<event>
 4    1  0.5531008E-005  0.4898878E+03  0.7818608E-02  0.1016453E+00
          2   -1    0    0  501    0  0.00000000000E+00  0.00000000000E+00  0.43918267459E+04  0.43918267459E+04  0.25500000000E-02 0.  1.
         -2   -1    0    0    0  501 -0.00000000000E+00 -0.00000000000E+00 -0.13661173401E+02  0.13661173639E+02  0.25500000000E-02 0. -1.
    5000001    1    1    2    0    0 -0.15940835405E+03  0.32419435882E+02  0.29034607759E+04  0.29126914564E+04  0.16500000000E+03 0.  0.
   -5000001    1    1    2    0    0  0.15940835405E+03 -0.32419435882E+02  0.14747047966E+04  0.14927964631E+04  0.16500000000E+03 0.  0.
<mgrwt>
<rscale>  0 0.48988777E+03</rscale>
<asrwt>0</asrwt>
<pdfrwt beam="1">  1        2 0.62740467E+00 0.48988777E+03</pdfrwt>
<pdfrwt beam="2">  1       -2 0.19515936E-02 0.48988777E+03</pdfrwt>
<totfact> 0.29536191E+02</totfact>
</mgrwt>
</event>
<event>
 4    1  0.5531008E-005  0.8030544E+03  0.7818608E-02  0.9555607E-01
         -2   -1    0    0    0  501 -0.00000000000E+00  0.00000000000E+00  0.11619990888E+03  0.11619990890E+03  0.25500000000E-02 0. -1.
          2   -1    0    0  501    0  0.00000000000E+00 -0.00000000000E+00 -0.13874717047E+04  0.13874717047E+04  0.25500000000E-02 0.  1.
    5000001    1    1    2    0    0 -0.14428314578E+03  0.27266963131E+03 -0.26665233920E+03  0.43988046557E+03  0.16500000000E+03 0.  0.
   -5000001    1    1    2    0    0  0.14428314578E+03 -0.27266963131E+03 -0.10046194566E+04  0.10637911480E+04  0.16500000000E+03 0.  0.
<mgrwt>
<rscale>  0 0.80305438E+03</rscale>
<asrwt>0</asrwt>
<pdfrwt beam="1">  1        2 0.19821023E+00 0.80305438E+03</pdfrwt>
<pdfrwt beam="2">  1       -2 0.16599988E-01 0.80305438E+03</pdfrwt>
<totfact> 0.49822097E+02</totfact>
</mgrwt>
</event>
<event>
 4    1  0.5531008E-005  0.4764343E+03  0.7818608E-02  0.1020120E+00
          2   -1    0    0  501    0  0.00000000000E+00  0.00000000000E+00  0.30222627582E+03  0.30222627583E+03  0.25500000000E-02 0.  1.
         -2   -1    0    0    0  501 -0.00000000000E+00 -0.00000000000E+00 -0.18776468583E+03  0.18776468585E+03  0.25500000000E-02 0. -1.
    5000001    1    1    2    0    0  0.13694432663E+03 -0.15954325859E+02  0.16268690119E+03  0.26962996297E+03  0.16500000000E+03 0.  0.
   -5000001    1    1    2    0    0 -0.13694432663E+03  0.15954325859E+02 -0.48225311204E+02  0.22036099871E+03  0.16500000000E+03 0.  0.
<mgrwt>
<rscale>  0 0.47643435E+03</rscale>
<asrwt>0</asrwt>
<pdfrwt beam="1">  1        2 0.43175182E-01 0.47643435E+03</pdfrwt>
<pdfrwt beam="2">  1       -2 0.26823527E-01 0.47643435E+03</pdfrwt>
<totfact> 0.14853715E+03</totfact>
</mgrwt>
</event>
<event>
 4    1  0.5531008E-005  0.7299205E+03  0.7818608E-02  0.9667389E-01
          2   -1    0    0  501    0  0.00000000000E+00  0.00000000000E+00  0.42142231460E+04  0.42142231460E+04  0.25500000000E-02 0.  1.
         -2   -1    0    0    0  501 -0.00000000000E+00 -0.00000000000E+00 -0.31606295265E+02  0.31606295368E+02  0.25500000000E-02 0. -1.
    5000001    1    1    2    0    0 -0.11105015312E+03  0.13901601518E+03  0.36770066173E+04  0.36850047833E+04  0.16500000000E+03 0.  0.
   -5000001    1    1    2    0    0  0.11105015312E+03 -0.13901601518E+03  0.50561023339E+03  0.56082465806E+03  0.16500000000E+03 0.  0.
<mgrwt>
<rscale>  0 0.72992049E+03</rscale>
<asrwt>0</asrwt>
<pdfrwt beam="1">  1        2 0.60203128E+00 0.72992049E+03</pdfrwt>
<pdfrwt beam="2">  1       -2 0.45151895E-02 0.72992049E+03</pdfrwt>
<totfact> 0.10683886E+02</totfact>
</mgrwt>
</event>
<event>
 4    1  0.5531008E-005  0.5681463E+03  0.7818608E-02  0.9973789E-01
          2   -1    0    0  501    0  0.00000000000E+00  0.00000000000E+00  0.29470441382E+03  0.29470441383E+03  0.25500000000E-02 0.  1.
         -2   -1    0    0    0  501 -0.00000000000E+00 -0.00000000000E+00 -0.27382536520E+03  0.27382536521E+03  0.25500000000E-02 0. -1.
    5000001    1    1    2    0    0 -0.21357155054E+03  0.77961513310E+02 -0.31799619408E+02  0.28271367238E+03  0.16500000000E+03 0.  0.
   -5000001    1    1    2    0    0  0.21357155054E+03 -0.77961513310E+02  0.52678668030E+02  0.28581610666E+03  0.16500000000E+03 0.  0.
<mgrwt>
<rscale>  0 0.56814626E+03</rscale>
<asrwt>0</asrwt>
<pdfrwt beam="1">  1        2 0.42100631E-01 0.56814626E+03</pdfrwt>
<pdfrwt beam="2">  1       -2 0.39117909E-01 0.56814626E+03</pdfrwt>
<totfact> 0.75515652E+02</totfact>
</mgrwt>
</event>
<event>
 4    1  0.5531008E-005  0.4893830E+03  0.7818608E-02  0.1016588E+00
          2   -1    0    0  501    0  0.00000000000E+00  0.00000000000E+00  0.14592180414E+04  0.14592180414E+04  0.25500000000E-02 0. -1.
         -2   -1    0    0    0  501 -0.00000000000E+00 -0.00000000000E+00 -0.41031512958E+02  0.41031513037E+02  0.25500000000E-02 0.  1.
    5000001    1    1    2    0    0  0.13034423731E+03 -0.12278953265E+03  0.63513460723E+03  0.68021162797E+03  0.16500000000E+03 0.  0.
   -5000001    1    1    2    0    0 -0.13034423731E+03  0.12278953265E+03  0.78305192120E+03  0.82003792645E+03  0.16500000000E+03 0.  0.
<mgrwt>
<rscale>  0 0.48938297E+03</rscale>
<asrwt>0</asrwt>
<pdfrwt beam="1">  1        2 0.20845976E+00 0.48938297E+03</pdfrwt>
<pdfrwt beam="2">  1       -2 0.58616435E-02 0.48938297E+03</pdfrwt>
<totfact> 0.25063619E+03</totfact>
</mgrwt>
</event>
<event>
 4    1  0.5531008E-005  0.4960685E+03  0.7818608E-02  0.1014810E+00
          2   -1    0    0  501    0  0.00000000000E+00  0.00000000000E+00  0.83666222631E+03  0.83666222631E+03  0.25500000000E-02 0.  1.
         -2   -1    0    0    0  501 -0.00000000000E+00 -0.00000000000E+00 -0.73531454300E+02  0.73531454344E+02  0.25500000000E-02 0. -1.
    5000001    1    1    2    0    0  0.13524219975E+03  0.98605059409E+02  0.52699778676E+03  0.57703126222E+03  0.16500000000E+03 0.  0.
   -5000001    1    1    2    0    0 -0.13524219975E+03 -0.98605059409E+02  0.23613298525E+03  0.33316241843E+03  0.16500000000E+03 0.  0.
<mgrwt>
<rscale>  0 0.49606850E+03</rscale>
<asrwt>0</asrwt>
<pdfrwt beam="1">  1        2 0.11952317E+00 0.49606850E+03</pdfrwt>
<pdfrwt beam="2">  1       -2 0.10504494E-01 0.49606850E+03</pdfrwt>
<totfact> 0.22683726E+03</totfact>
</mgrwt>
</event>
<event>
 4    1  0.5531008E-005  0.4100429E+03  0.7818608E-02  0.1040357E+00
         -2   -1    0    0    0  501 -0.00000000000E+00  0.00000000000E+00  0.53035079193E+02  0.53035079254E+02  0.25500000000E-02 0. -1.
          2   -1    0    0  501    0  0.00000000000E+00 -0.00000000000E+00 -0.79256608308E+03  0.79256608308E+03  0.25500000000E-02 0.  1.
    5000001    1    1    2    0    0 -0.56277472363E+02 -0.98740755730E+02 -0.45946436732E+03  0.50124783847E+03  0.16500000000E+03 0.  0.
   -5000001    1    1    2    0    0  0.56277472363E+02  0.98740755730E+02 -0.28006663657E+03  0.34435332386E+03  0.16500000000E+03 0.  0.
<mgrwt>
<rscale>  0 0.41004295E+03</rscale>
<asrwt>0</asrwt>
<pdfrwt beam="1">  1        2 0.11322372E+00 0.41004295E+03</pdfrwt>
<pdfrwt beam="2">  1       -2 0.75764403E-02 0.41004295E+03</pdfrwt>
<totfact> 0.40876347E+03</totfact>
</mgrwt>
</event>
<event>
 4    1  0.5531008E-005  0.7233300E+03  0.7818608E-02  0.9678146E-01
          2   -1    0    0  501    0  0.00000000000E+00  0.00000000000E+00  0.42657401818E+03  0.42657401819E+03  0.25500000000E-02 0.  1.
         -2   -1    0    0    0  501 -0.00000000000E+00 -0.00000000000E+00 -0.30663280639E+03  0.30663280640E+03  0.25500000000E-02 0. -1.
    5000001    1    1    2    0    0  0.49174102238E+02  0.26496337402E+03 -0.11836608816E+03  0.33743030796E+03  0.16500000000E+03 0.  0.
   -5000001    1    1    2    0    0 -0.49174102238E+02 -0.26496337402E+03  0.23830729995E+03  0.39577651663E+03  0.16500000000E+03 0.  0.
<mgrwt>
<rscale>  0 0.72333004E+03</rscale>
<asrwt>0</asrwt>
<pdfrwt beam="1">  1        2 0.60939146E-01 0.72333004E+03</pdfrwt>
<pdfrwt beam="2">  1       -2 0.43804686E-01 0.72333004E+03</pdfrwt>
<totfact> 0.40034884E+02</totfact>
</mgrwt>
</event>
<event>
 4    1  0.5531008E-005  0.5087719E+03  0.7818608E-02  0.1011514E+00
         -2   -1    0    0    0  501 -0.00000000000E+00  0.00000000000E+00  0.18394948566E+03  0.18394948567E+03  0.25500000000E-02 0. -1.
          2   -1    0    0  501    0  0.00000000000E+00 -0.00000000000E+00 -0.35179335759E+03  0.35179335760E+03  0.25500000000E-02 0.  1.
    5000001    1    1    2    0    0 -0.16135040626E+03 -0.88975343485E+02 -0.21299664476E+02  0.24825237371E+03  0.16500000000E+03 0.  0.
   -5000001    1    1    2    0    0  0.16135040626E+03  0.88975343485E+02 -0.14654420745E+03  0.28749046956E+03  0.16500000000E+03 0.  0.
<mgrwt>
<rscale>  0 0.50877188E+03</rscale>
<asrwt>0</asrwt>
<pdfrwt beam="1">  1        2 0.50256194E-01 0.50877188E+03</pdfrwt>
<pdfrwt beam="2">  1       -2 0.26278498E-01 0.50877188E+03</pdfrwt>
<totfact> 0.13051155E+03</totfact>
</mgrwt>
</event>
<event>
 4    1  0.5531008E-005  0.6367767E+03  0.7818608E-02  0.9831913E-01
         -2   -1    0    0    0  501 -0.00000000000E+00  0.00000000000E+00  0.17609742491E+03  0.17609742493E+03  0.25500000000E-02 0. -1.
          2   -1    0    0  501    0  0.00000000000E+00 -0.00000000000E+00 -0.57565380036E+03  0.57565380037E+03  0.25500000000E-02 0.  1.
    5000001    1    1    2    0    0  0.11480510505E+03  0.24637603935E+03 -0.21898853757E+03  0.38608592890E+03  0.16500000000E+03 0.  0.
   -5000001    1    1    2    0    0 -0.11480510505E+03 -0.24637603935E+03 -0.18056783789E+03  0.36566529640E+03  0.16500000000E+03 0.  0.
<mgrwt>
<rscale>  0 0.63677673E+03</rscale>
<asrwt>0</asrwt>
<pdfrwt beam="1">  1        2 0.82236257E-01 0.63677673E+03</pdfrwt>
<pdfrwt beam="2">  1       -2 0.25156775E-01 0.63677673E+03</pdfrwt>
<totfact> 0.81022391E+02</totfact>
</mgrwt>
</event>
<event>
 4    1  0.5531008E-005  0.4477348E+03  0.7818608E-02  0.1028400E+00
         -2   -1    0    0    0  501 -0.00000000000E+00  0.00000000000E+00  0.17365924013E+03  0.17365924015E+03  0.25500000000E-02 0. -1.
          2   -1    0    0  501    0  0.00000000000E+00 -0.00000000000E+00 -0.28859168323E+03  0.28859168324E+03  0.25500000000E-02 0.  1.
    5000001    1    1    2    0    0  0.61840262757E+02  0.13283209550E+03 -0.96412303402E+02  0.24080887845E+03  0.16500000000E+03 0.  0.
   -5000001    1    1    2    0    0 -0.61840262757E+02 -0.13283209550E+03 -0.18520139698E+02  0.22144204494E+03  0.16500000000E+03 0.  0.
<mgrwt>
<rscale>  0 0.44773480E+03</rscale>
<asrwt>0</asrwt>
<pdfrwt beam="1">  1        2 0.41227383E-01 0.44773480E+03</pdfrwt>
<pdfrwt beam="2">  1       -2 0.24808463E-01 0.44773480E+03</pdfrwt>
<totfact> 0.17964935E+03</totfact>
</mgrwt>
</event>
<event>
 4    1  0.5531008E-005  0.5728620E+03  0.7818608E-02  0.9963365E-01
          2   -1    0    0  501    0  0.00000000000E+00  0.00000000000E+00  0.10330368521E+04  0.10330368521E+04  0.25500000000E-02 0.  1.
         -2   -1    0    0    0  501 -0.00000000000E+00 -0.00000000000E+00 -0.79418967519E+02  0.79418967560E+02  0.25500000000E-02 0. -1.
    5000001    1    1    2    0    0  0.18979044284E+03 -0.13661374091E+03  0.49928784699E+03  0.57549724634E+03  0.16500000000E+03 0.  0.
   -5000001    1    1    2    0    0 -0.18979044284E+03  0.13661374091E+03  0.45433003756E+03  0.53695857329E+03  0.16500000000E+03 0.  0.
<mgrwt>
<rscale>  0 0.57286201E+03</rscale>
<asrwt>0</asrwt>
<pdfrwt beam="1">  1        2 0.14757668E+00 0.57286201E+03</pdfrwt>
<pdfrwt beam="2">  1       -2 0.11345568E-01 0.57286201E+03</pdfrwt>
<totfact> 0.15035527E+03</totfact>
</mgrwt>
</event>
<event>
 4    1  0.5531008E-005  0.4521786E+03  0.7818608E-02  0.1027074E+00
         -2   -1    0    0    0  501 -0.00000000000E+00  0.00000000000E+00  0.10547346095E+03  0.10547346099E+03  0.25500000000E-02 0. -1.
          2   -1    0    0  501    0  0.00000000000E+00 -0.00000000000E+00 -0.48463728537E+03  0.48463728538E+03  0.25500000000E-02 0.  1.
    5000001    1    1    2    0    0 -0.14555402210E+03 -0.51097832123E+02 -0.17690152433E+03  0.28690784428E+03  0.16500000000E+03 0.  0.
   -5000001    1    1    2    0    0  0.14555402210E+03  0.51097832123E+02 -0.20226230009E+03  0.30320290209E+03  0.16500000000E+03 0.  0.
<mgrwt>
<rscale>  0 0.45217860E+03</rscale>
<asrwt>0</asrwt>
<pdfrwt beam="1">  1        2 0.69233897E-01 0.45217860E+03</pdfrwt>
<pdfrwt beam="2">  1       -2 0.15067637E-01 0.45217860E+03</pdfrwt>
<totfact> 0.23988694E+03</totfact>
</mgrwt>
</event>
<event>
 4    1  0.5531008E-005  0.4004883E+03  0.7818608E-02  0.1043611E+00
         -2   -1    0    0    0  501 -0.00000000000E+00  0.00000000000E+00  0.56827704190E+02  0.56827704248E+02  0.25500000000E-02 0. -1.
          2   -1    0    0  501    0  0.00000000000E+00 -0.00000000000E+00 -0.70560162037E+03  0.70560162037E+03  0.25500000000E-02 0.  1.
    5000001    1    1    2    0    0  0.14380848618E+02 -0.10672477359E+03 -0.39238397089E+03  0.43907535425E+03  0.16500000000E+03 0.  0.
   -5000001    1    1    2    0    0 -0.14380848618E+02  0.10672477359E+03 -0.25638994529E+03  0.32335397037E+03  0.16500000000E+03 0.  0.
<mgrwt>
<rscale>  0 0.40048830E+03</rscale>
<asrwt>0</asrwt>
<pdfrwt beam="1">  1        2 0.10080023E+00 0.40048830E+03</pdfrwt>
<pdfrwt beam="2">  1       -2 0.81182439E-02 0.40048830E+03</pdfrwt>
<totfact> 0.42280737E+03</totfact>
</mgrwt>
</event>
<event>
 4    1  0.5531008E-005  0.4081877E+03  0.7818608E-02  0.1040981E+00
          2   -1    0    0  501    0  0.00000000000E+00  0.00000000000E+00  0.14669546120E+03  0.14669546122E+03  0.25500000000E-02 0.  1.
         -2   -1    0    0    0  501 -0.00000000000E+00 -0.00000000000E+00 -0.28395091038E+03  0.28395091039E+03  0.25500000000E-02 0. -1.
    5000001    1    1    2    0    0  0.34346747782E+02  0.10042706640E+03 -0.92832767409E+01  0.19640894576E+03  0.16500000000E+03 0.  0.
   -5000001    1    1    2    0    0 -0.34346747782E+02 -0.10042706640E+03 -0.12797217244E+03  0.23423742584E+03  0.16500000000E+03 0.  0.
<mgrwt>
<rscale>  0 0.40818775E+03</rscale>
<asrwt>0</asrwt>
<pdfrwt beam="1">  1        2 0.20956494E-01 0.40818775E+03</pdfrwt>
<pdfrwt beam="2">  1       -2 0.40564416E-01 0.40818775E+03</pdfrwt>
<totfact> 0.15381051E+03</totfact>
</mgrwt>
</event>
<event>
 4    1  0.5531008E-005  0.6071926E+03  0.7818608E-02  0.9890595E-01
          2   -1    0    0  501    0  0.00000000000E+00  0.00000000000E+00  0.70496752987E+03  0.70496752988E+03  0.25500000000E-02 0.  1.
         -2   -1    0    0    0  501 -0.00000000000E+00 -0.00000000000E+00 -0.13074463921E+03  0.13074463923E+03  0.25500000000E-02 0. -1.
    5000001    1    1    2    0    0  0.11968620736E+03  0.21842445580E+03  0.21284320894E+03  0.36682592972E+03  0.16500000000E+03 0.  0.
   -5000001    1    1    2    0    0 -0.11968620736E+03 -0.21842445580E+03  0.36137968172E+03  0.46888623938E+03  0.16500000000E+03 0.  0.
<mgrwt>
<rscale>  0 0.60719264E+03</rscale>
<asrwt>0</asrwt>
<pdfrwt beam="1">  1        2 0.10070965E+00 0.60719264E+03</pdfrwt>
<pdfrwt beam="2">  1       -2 0.18677806E-01 0.60719264E+03</pdfrwt>
<totfact> 0.10751747E+03</totfact>
</mgrwt>
</event>
<event>
 4    1  0.5531008E-005  0.4596080E+03  0.7818608E-02  0.1024895E+00
          2   -1    0    0  501    0  0.00000000000E+00  0.00000000000E+00  0.14601715602E+04  0.14601715602E+04  0.25500000000E-02 0.  1.
         -2   -1    0    0    0  501 -0.00000000000E+00 -0.00000000000E+00 -0.36166900307E+02  0.36166900397E+02  0.25500000000E-02 0. -1.
    5000001    1    1    2    0    0  0.96678288791E+02  0.23676107960E+02  0.11196476463E+04  0.11361087543E+04  0.16500000000E+03 0.  0.
   -5000001    1    1    2    0    0 -0.96678288791E+02 -0.23676107960E+02  0.30435701355E+03  0.36022970631E+03  0.16500000000E+03 0.  0.
<mgrwt>
<rscale>  0 0.45960800E+03</rscale>
<asrwt>0</asrwt>
<pdfrwt beam="1">  1        2 0.20859595E+00 0.45960800E+03</pdfrwt>
<pdfrwt beam="2">  1       -2 0.51666997E-02 0.45960800E+03</pdfrwt>
<totfact> 0.30455216E+03</totfact>
</mgrwt>
</event>
<event>
 4    1  0.5531008E-005  0.6026909E+03  0.7818608E-02  0.9899839E-01
          2   -1    0    0  501    0  0.00000000000E+00  0.00000000000E+00  0.43127465551E+03  0.43127465551E+03  0.25500000000E-02 0.  1.
         -2   -1    0    0    0  501 -0.00000000000E+00 -0.00000000000E+00 -0.21055973273E+03  0.21055973274E+03  0.25500000000E-02 0. -1.
    5000001    1    1    2    0    0  0.21005415272E+03 -0.17616677190E+01 -0.38195042159E+02  0.26983274781E+03  0.16500000000E+03 0.  0.
   -5000001    1    1    2    0    0 -0.21005415272E+03  0.17616677190E+01  0.25890996494E+03  0.37200164044E+03  0.16500000000E+03 0.  0.
<mgrwt>
<rscale>  0 0.60269089E+03</rscale>
<asrwt>0</asrwt>
<pdfrwt beam="1">  1        2 0.61610664E-01 0.60269089E+03</pdfrwt>
<pdfrwt beam="2">  1       -2 0.30079962E-01 0.60269089E+03</pdfrwt>
<totfact> 0.81342133E+02</totfact>
</mgrwt>
</event>
<event>
 4    1  0.5531008E-005  0.4263150E+03  0.7818608E-02  0.1035030E+00
          2   -1    0    0  501    0  0.00000000000E+00  0.00000000000E+00  0.40204033954E+03  0.40204033955E+03  0.25500000000E-02 0.  1.
         -2   -1    0    0    0  501 -0.00000000000E+00 -0.00000000000E+00 -0.11301384258E+03  0.11301384261E+03  0.25500000000E-02 0. -1.
    5000001    1    1    2    0    0 -0.11243106951E+02 -0.71910336047E+02  0.28180558093E+03  0.33456970772E+03  0.16500000000E+03 0.  0.
   -5000001    1    1    2    0    0  0.11243106951E+02  0.71910336047E+02  0.72209160268E+01  0.18048447444E+03  0.16500000000E+03 0.  0.
<mgrwt>
<rscale>  0 0.42631502E+03</rscale>
<asrwt>0</asrwt>
<pdfrwt beam="1">  1        2 0.57434334E-01 0.42631502E+03</pdfrwt>
<pdfrwt beam="2">  1       -2 0.16144835E-01 0.42631502E+03</pdfrwt>
<totfact> 0.26266248E+03</totfact>
</mgrwt>
</event>
<event>
 4    1  0.5531008E-005  0.5804190E+03  0.7818608E-02  0.9946884E-01
          2   -1    0    0  501    0  0.00000000000E+00  0.00000000000E+00  0.93611096911E+03  0.93611096911E+03  0.25500000000E-02 0.  1.
         -2   -1    0    0    0  501 -0.00000000000E+00 -0.00000000000E+00 -0.89969615234E+02  0.89969615270E+02  0.25500000000E-02 0. -1.
    5000001    1    1    2    0    0  0.16739387497E+03 -0.14446068839E+03  0.26389802270E+03  0.38178104491E+03  0.16500000000E+03 0.  0.
   -5000001    1    1    2    0    0 -0.16739387497E+03  0.14446068839E+03  0.58224333118E+03  0.64429953948E+03  0.16500000000E+03 0.  0.
<mgrwt>
<rscale>  0 0.58041896E+03</rscale>
<asrwt>0</asrwt>
<pdfrwt beam="1">  1        2 0.13373014E+00 0.58041896E+03</pdfrwt>
<pdfrwt beam="2">  1       -2 0.12852802E-01 0.58041896E+03</pdfrwt>
<totfact> 0.14041272E+03</totfact>
</mgrwt>
</event>
<event>
 4    1  0.5531008E-005  0.4721108E+03  0.7818608E-02  0.1021326E+00
         -2   -1    0    0    0  501 -0.00000000000E+00  0.00000000000E+00  0.20828068207E+02  0.20828068364E+02  0.25500000000E-02 0. -1.
          2   -1    0    0  501    0  0.00000000000E+00 -0.00000000000E+00 -0.26753390851E+04  0.26753390851E+04  0.25500000000E-02 0.  1.
    5000001    1    1    2    0    0  0.14284076234E+03 -0.14174785196E+02 -0.18346160946E+04  0.18476053752E+04  0.16500000000E+03 0.  0.
   -5000001    1    1    2    0    0 -0.14284076234E+03  0.14174785196E+02 -0.81989492224E+03  0.84856177821E+03  0.16500000000E+03 0.  0.
<mgrwt>
<rscale>  0 0.47211077E+03</rscale>
<asrwt>0</asrwt>
<pdfrwt beam="1">  1        2 0.38219108E+00 0.47211077E+03</pdfrwt>
<pdfrwt beam="2">  1       -2 0.29754400E-02 0.47211077E+03</pdfrwt>
<totfact> 0.17227389E+03</totfact>
</mgrwt>
</event>
<event>
 4    1  0.5531008E-005  0.5747443E+03  0.7818608E-02  0.9959235E-01
         -2   -1    0    0    0  501 -0.00000000000E+00  0.00000000000E+00  0.37330461087E+03  0.37330461088E+03  0.25500000000E-02 0. -1.
          2   -1    0    0  501    0  0.00000000000E+00 -0.00000000000E+00 -0.22122079345E+03  0.22122079346E+03  0.25500000000E-02 0.  1.
    5000001    1    1    2    0    0 -0.13462696919E+03  0.17590201683E+03  0.15809279759E+03  0.31825190181E+03  0.16500000000E+03 0.  0.
   -5000001    1    1    2    0    0  0.13462696919E+03 -0.17590201683E+03 -0.60089801668E+01  0.27627350253E+03  0.16500000000E+03 0.  0.
<mgrwt>
<rscale>  0 0.57474426E+03</rscale>
<asrwt>0</asrwt>
<pdfrwt beam="1">  1        2 0.31602970E-01 0.57474426E+03</pdfrwt>
<pdfrwt beam="2">  1       -2 0.53329230E-01 0.57474426E+03</pdfrwt>
<totfact> 0.56030265E+02</totfact>
</mgrwt>
</event>
<event>
 4    1  0.5531008E-005  0.4491330E+03  0.7818608E-02  0.1027981E+00
          2   -1    0    0  501    0  0.00000000000E+00  0.00000000000E+00  0.20884016663E+03  0.20884016665E+03  0.25500000000E-02 0.  1.
         -2   -1    0    0    0  501 -0.00000000000E+00 -0.00000000000E+00 -0.24147705746E+03  0.24147705747E+03  0.25500000000E-02 0. -1.
    5000001    1    1    2    0    0  0.13985264940E+03 -0.11612803114E+02  0.43095612529E+02  0.22085255842E+03  0.16500000000E+03 0.  0.
   -5000001    1    1    2    0    0 -0.13985264940E+03  0.11612803114E+02 -0.75732503352E+02  0.22946466570E+03  0.16500000000E+03 0.  0.
<mgrwt>
<rscale>  0 0.44913298E+03</rscale>
<asrwt>0</asrwt>
<pdfrwt beam="1">  1        2 0.29834309E-01 0.44913298E+03</pdfrwt>
<pdfrwt beam="2">  1       -2 0.34496723E-01 0.44913298E+03</pdfrwt>
<totfact> 0.14046653E+03</totfact>
</mgrwt>
</event>
<event>
 4    1  0.5531008E-005  0.7752016E+03  0.7818608E-02  0.9596622E-01
          2   -1    0    0  501    0  0.00000000000E+00  0.00000000000E+00  0.82945640661E+03  0.82945640661E+03  0.25500000000E-02 0.  1.
         -2   -1    0    0    0  501 -0.00000000000E+00 -0.00000000000E+00 -0.18112391157E+03  0.18112391159E+03  0.25500000000E-02 0. -1.
    5000001    1    1    2    0    0 -0.19049520305E+03  0.26203627123E+03  0.14898383841E+03  0.39290280469E+03  0.16500000000E+03 0.  0.
   -5000001    1    1    2    0    0  0.19049520305E+03 -0.26203627123E+03  0.49934865663E+03  0.61767751351E+03  0.16500000000E+03 0.  0.
<mgrwt>
<rscale>  0 0.77520162E+03</rscale>
<asrwt>0</asrwt>
<pdfrwt beam="1">  1        2 0.11849378E+00 0.77520162E+03</pdfrwt>
<pdfrwt beam="2">  1       -2 0.25874843E-01 0.77520162E+03</pdfrwt>
<totfact> 0.48966259E+02</totfact>
</mgrwt>
</event>
<event>
 4    1  0.5531008E-005  0.6603261E+03  0.7818608E-02  0.9787594E-01
          2   -1    0    0  501    0  0.00000000000E+00  0.00000000000E+00  0.33514833391E+04  0.33514833391E+04  0.25500000000E-02 0.  1.
         -2   -1    0    0    0  501 -0.00000000000E+00 -0.00000000000E+00 -0.32525194453E+02  0.32525194553E+02  0.25500000000E-02 0. -1.
    5000001    1    1    2    0    0  0.13709462798E+03 -0.24597559941E+03  0.19148808092E+04  0.19424964469E+04  0.16500000000E+03 0.  0.
   -5000001    1    1    2    0    0 -0.13709462798E+03  0.24597559941E+03  0.14040773354E+04  0.14415120868E+04  0.16500000000E+03 0.  0.
<mgrwt>
<rscale>  0 0.66032612E+03</rscale>
<asrwt>0</asrwt>
<pdfrwt beam="1">  1        2 0.47878298E+00 0.66032612E+03</pdfrwt>
<pdfrwt beam="2">  1       -2 0.46464598E-02 0.66032612E+03</pdfrwt>
<totfact> 0.36614308E+02</totfact>
</mgrwt>
</event>
<event>
 4    1  0.5531008E-005  0.7797413E+03  0.7818608E-02  0.9589813E-01
          2   -1    0    0  501    0  0.00000000000E+00  0.00000000000E+00  0.93461183427E+03  0.93461183427E+03  0.25500000000E-02 0.  1.
         -2   -1    0    0    0  501 -0.00000000000E+00 -0.00000000000E+00 -0.16263340471E+03  0.16263340473E+03  0.25500000000E-02 0. -1.
    5000001    1    1    2    0    0  0.56880058963E+02  0.27444817054E+03  0.68850908618E+03  0.76146365716E+03  0.16500000000E+03 0.  0.
   -5000001    1    1    2    0    0 -0.56880058963E+02 -0.27444817054E+03  0.83469343381E+02  0.33578158184E+03  0.16500000000E+03 0.  0.
<mgrwt>
<rscale>  0 0.77974125E+03</rscale>
<asrwt>0</asrwt>
<pdfrwt beam="1">  1        2 0.13351598E+00 0.77974125E+03</pdfrwt>
<pdfrwt beam="2">  1       -2 0.23233343E-01 0.77974125E+03</pdfrwt>
<totfact> 0.50653659E+02</totfact>
</mgrwt>
</event>
<event>
 4    1  0.5531008E-005  0.9239362E+03  0.7818608E-02  0.9396145E-01
          2   -1    0    0  501    0  0.00000000000E+00  0.00000000000E+00  0.52588577924E+03  0.52588577925E+03  0.25500000000E-02 0.  1.
         -2   -1    0    0    0  501 -0.00000000000E+00 -0.00000000000E+00 -0.40581912946E+03  0.40581912947E+03  0.25500000000E-02 0. -1.
    5000001    1    1    2    0    0  0.84698534731E+02 -0.38761940122E+03 -0.11100077280E+03  0.44381168703E+03  0.16500000000E+03 0.  0.
   -5000001    1    1    2    0    0 -0.84698534731E+02  0.38761940122E+03  0.23106742258E+03  0.48789322168E+03  0.16500000000E+03 0.  0.
<mgrwt>
<rscale>  0 0.92393616E+03</rscale>
<asrwt>0</asrwt>
<pdfrwt beam="1">  1        2 0.75126540E-01 0.92393616E+03</pdfrwt>
<pdfrwt beam="2">  1       -2 0.57974161E-01 0.92393616E+03</pdfrwt>
<totfact> 0.17681027E+02</totfact>
</mgrwt>
</event>
<event>
 4    1  0.5531008E-005  0.3943674E+03  0.7818608E-02  0.1045748E+00
         -2   -1    0    0    0  501 -0.00000000000E+00  0.00000000000E+00  0.11258100770E+03  0.11258100773E+03  0.25500000000E-02 0. -1.
          2   -1    0    0  501    0  0.00000000000E+00 -0.00000000000E+00 -0.34536382693E+03  0.34536382694E+03  0.25500000000E-02 0.  1.
    5000001    1    1    2    0    0 -0.23609250173E+02 -0.10148356280E+03 -0.14923749548E+03  0.24566876128E+03  0.16500000000E+03 0.  0.
   -5000001    1    1    2    0    0  0.23609250173E+02  0.10148356280E+03 -0.83545323745E+02  0.21227607339E+03  0.16500000000E+03 0.  0.
<mgrwt>
<rscale>  0 0.39436738E+03</rscale>
<asrwt>0</asrwt>
<pdfrwt beam="1">  1        2 0.49337689E-01 0.39436738E+03</pdfrwt>
<pdfrwt beam="2">  1       -2 0.16083001E-01 0.39436738E+03</pdfrwt>
<totfact> 0.31182986E+03</totfact>
</mgrwt>
</event>
<event>
 4    1  0.5531008E-005  0.4876734E+03  0.7818608E-02  0.1017047E+00
          2   -1    0    0  501    0  0.00000000000E+00  0.00000000000E+00  0.53288222135E+03  0.53288222136E+03  0.25500000000E-02 0.  1.
         -2   -1    0    0    0  501 -0.00000000000E+00 -0.00000000000E+00 -0.11157498350E+03  0.11157498353E+03  0.25500000000E-02 0. -1.
    5000001    1    1    2    0    0  0.58553371742E+02  0.13532627404E+03  0.75307724968E+02  0.23374762293E+03  0.16500000000E+03 0.  0.
   -5000001    1    1    2    0    0 -0.58553371742E+02 -0.13532627404E+03  0.34599951289E+03  0.41070958195E+03  0.16500000000E+03 0.  0.
<mgrwt>
<rscale>  0 0.48767335E+03</rscale>
<asrwt>0</asrwt>
<pdfrwt beam="1">  1        2 0.76126030E-01 0.48767335E+03</pdfrwt>
<pdfrwt beam="2">  1       -2 0.15939284E-01 0.48767335E+03</pdfrwt>
<totfact> 0.19615601E+03</totfact>
</mgrwt>
</event>
<event>
 4    1  0.5531008E-005  0.3735266E+03  0.7818608E-02  0.1053353E+00
          2   -1    0    0  501    0  0.00000000000E+00  0.00000000000E+00  0.16099550376E+03  0.16099550378E+03  0.25500000000E-02 0.  1.
         -2   -1    0    0    0  501 -0.00000000000E+00 -0.00000000000E+00 -0.21665534406E+03  0.21665534407E+03  0.25500000000E-02 0. -1.
    5000001    1    1    2    0    0  0.27949440719E+02 -0.70592334214E+02  0.16136862854E+02  0.18234540638E+03  0.16500000000E+03 0.  0.
   -5000001    1    1    2    0    0 -0.27949440719E+02  0.70592334214E+02 -0.71796703149E+02  0.19530544147E+03  0.16500000000E+03 0.  0.
<mgrwt>
<rscale>  0 0.37352663E+03</rscale>
<asrwt>0</asrwt>
<pdfrwt beam="1">  1        2 0.22999358E-01 0.37352663E+03</pdfrwt>
<pdfrwt beam="2">  1       -2 0.30950763E-01 0.37352663E+03</pdfrwt>
<totfact> 0.22982551E+03</totfact>
</mgrwt>
</event>
<event>
 4    1  0.5531008E-005  0.6085852E+03  0.7818608E-02  0.9887753E-01
          2   -1    0    0  501    0  0.00000000000E+00  0.00000000000E+00  0.45199103119E+03  0.45199103120E+03  0.25500000000E-02 0.  1.
         -2   -1    0    0    0  501 -0.00000000000E+00 -0.00000000000E+00 -0.20485803248E+03  0.20485803250E+03  0.25500000000E-02 0. -1.
    5000001    1    1    2    0    0 -0.34073349415E+02  0.25336277961E+03  0.12778851692E+03  0.33001302442E+03  0.16500000000E+03 0.  0.
   -5000001    1    1    2    0    0  0.34073349415E+02 -0.25336277961E+03  0.11934448179E+03  0.32683603927E+03  0.16500000000E+03 0.  0.
<mgrwt>
<rscale>  0 0.60858522E+03</rscale>
<asrwt>0</asrwt>
<pdfrwt beam="1">  1        2 0.64570146E-01 0.60858522E+03</pdfrwt>
<pdfrwt beam="2">  1       -2 0.29265434E-01 0.60858522E+03</pdfrwt>
<totfact> 0.81176462E+02</totfact>
</mgrwt>
</event>
<event>
 4    1  0.5531008E-005  0.3884402E+03  0.7818608E-02  0.1047858E+00
         -2   -1    0    0    0  501 -0.00000000000E+00  0.00000000000E+00  0.11986830960E+03  0.11986830963E+03  0.25500000000E-02 0. -1.
          2   -1    0    0  501    0  0.00000000000E+00 -0.00000000000E+00 -0.31469077752E+03  0.31469077753E+03  0.25500000000E-02 0.  1.
    5000001    1    1    2    0    0  0.41455370775E+02  0.70181154098E+02 -0.27973347150E+02  0.18614900029E+03  0.16500000000E+03 0.  0.
   -5000001    1    1    2    0    0 -0.41455370775E+02 -0.70181154098E+02 -0.16684912077E+03  0.24841008687E+03  0.16500000000E+03 0.  0.
<mgrwt>
<rscale>  0 0.38844022E+03</rscale>
<asrwt>0</asrwt>
<pdfrwt beam="1">  1        2 0.44955825E-01 0.38844022E+03</pdfrwt>
<pdfrwt beam="2">  1       -2 0.17124044E-01 0.38844022E+03</pdfrwt>
<totfact> 0.31036664E+03</totfact>
</mgrwt>
</event>
<event>
 4    1  0.5531008E-005  0.4872656E+03  0.7818608E-02  0.1017157E+00
          2   -1    0    0  501    0  0.00000000000E+00  0.00000000000E+00  0.26944418902E+03  0.26944418904E+03  0.25500000000E-02 0.  1.
         -2   -1    0    0    0  501 -0.00000000000E+00 -0.00000000000E+00 -0.22029404712E+03  0.22029404714E+03  0.25500000000E-02 0. -1.
    5000001    1    1    2    0    0 -0.12635235143E+03  0.12479433193E+03  0.49058669456E+02  0.24732629266E+03  0.16500000000E+03 0.  0.
   -5000001    1    1    2    0    0  0.12635235143E+03 -0.12479433193E+03  0.91472444503E-01  0.24241194352E+03  0.16500000000E+03 0.  0.
<mgrwt>
<rscale>  0 0.48726564E+03</rscale>
<asrwt>0</asrwt>
<pdfrwt beam="1">  1        2 0.38492027E-01 0.48726564E+03</pdfrwt>
<pdfrwt beam="2">  1       -2 0.31470578E-01 0.48726564E+03</pdfrwt>
<totfact> 0.12579814E+03</totfact>
</mgrwt>
</event>
<event>
 4    1  0.5531008E-005  0.5260066E+03  0.7818608E-02  0.1007205E+00
         -2   -1    0    0    0  501 -0.00000000000E+00  0.00000000000E+00  0.61120881387E+02  0.61120881440E+02  0.25500000000E-02 0. -1.
          2   -1    0    0  501    0  0.00000000000E+00 -0.00000000000E+00 -0.11317036554E+04  0.11317036554E+04  0.25500000000E-02 0.  1.
    5000001    1    1    2    0    0  0.15556522720E+03  0.22123912862E+02 -0.83317863743E+03  0.86377175764E+03  0.16500000000E+03 0.  0.
   -5000001    1    1    2    0    0 -0.15556522720E+03 -0.22123912862E+02 -0.23740413659E+03  0.32905277921E+03  0.16500000000E+03 0.  0.
<mgrwt>
<rscale>  0 0.52600656E+03</rscale>
<asrwt>0</asrwt>
<pdfrwt beam="1">  1        2 0.16167194E+00 0.52600656E+03</pdfrwt>
<pdfrwt beam="2">  1       -2 0.87315552E-02 0.52600656E+03</pdfrwt>
<totfact> 0.20123143E+03</totfact>
</mgrwt>
</event>
<event>
 4    1  0.5531008E-005  0.1285958E+04  0.7818608E-02  0.9040775E-01
         -2   -1    0    0    0  501 -0.00000000000E+00  0.00000000000E+00  0.24466682422E+03  0.24466682424E+03  0.25500000000E-02 0. -1.
          2   -1    0    0  501    0  0.00000000000E+00 -0.00000000000E+00 -0.16897344623E+04  0.16897344623E+04  0.25500000000E-02 0.  1.
    5000001    1    1    2    0    0  0.37088984376E+03 -0.45201345513E+03 -0.40584906908E+03  0.73062569534E+03  0.16500000000E+03 0.  0.
   -5000001    1    1    2    0    0 -0.37088984376E+03  0.45201345513E+03 -0.10392185690E+04  0.12037755912E+04  0.16500000000E+03 0.  0.
<mgrwt>
<rscale>  0 0.12859580E+04</rscale>
<asrwt>0</asrwt>
<pdfrwt beam="1">  1        2 0.24139063E+00 0.12859580E+04</pdfrwt>
<pdfrwt beam="2">  1       -2 0.34952405E-01 0.12859580E+04</pdfrwt>
<totfact> 0.87498197E+01</totfact>
</mgrwt>
</event>
<event>
 4    1  0.5531008E-005  0.1048263E+04  0.7818608E-02  0.9257139E-01
          2   -1    0    0  501    0  0.00000000000E+00  0.00000000000E+00  0.28372019827E+04  0.28372019827E+04  0.25500000000E-02 0.  1.
         -2   -1    0    0    0  501 -0.00000000000E+00 -0.00000000000E+00 -0.96825577691E+02  0.96825577725E+02  0.25500000000E-02 0. -1.
    5000001    1    1    2    0    0  0.36681689664E+03 -0.97769795930E+02  0.47027194228E+03  0.62649362994E+03  0.16500000000E+03 0.  0.
   -5000001    1    1    2    0    0 -0.36681689664E+03  0.97769795930E+02  0.22701044628E+04  0.23075339305E+04  0.16500000000E+03 0.  0.
<mgrwt>
<rscale>  0 0.10482628E+04</rscale>
<asrwt>0</asrwt>
<pdfrwt beam="1">  1        2 0.40531450E+00 0.10482628E+04</pdfrwt>
<pdfrwt beam="2">  1       -2 0.13832228E-01 0.10482628E+04</pdfrwt>
<totfact> 0.11807290E+02</totfact>
</mgrwt>
</event>
<event>
 4    1  0.5531008E-005  0.4087252E+03  0.7818608E-02  0.1040800E+00
         -2   -1    0    0    0  501 -0.00000000000E+00  0.00000000000E+00  0.10663269963E+03  0.10663269966E+03  0.25500000000E-02 0. -1.
          2   -1    0    0  501    0  0.00000000000E+00 -0.00000000000E+00 -0.39166292871E+03  0.39166292872E+03  0.25500000000E-02 0.  1.
    5000001    1    1    2    0    0  0.85184876988E+02  0.25095059908E+02 -0.43075480779E+02  0.19226732001E+03  0.16500000000E+03 0.  0.
   -5000001    1    1    2    0    0 -0.85184876988E+02 -0.25095059908E+02 -0.24195474830E+03  0.30602830837E+03  0.16500000000E+03 0.  0.
<mgrwt>
<rscale>  0 0.40872522E+03</rscale>
<asrwt>0</asrwt>
<pdfrwt beam="1">  1        2 0.55951846E-01 0.40872522E+03</pdfrwt>
<pdfrwt beam="2">  1       -2 0.15233243E-01 0.40872522E+03</pdfrwt>
<totfact> 0.29782437E+03</totfact>
</mgrwt>
</event>
<event>
 4    1  0.5531008E-005  0.4639087E+03  0.7818608E-02  0.1023654E+00
         -2   -1    0    0    0  501 -0.00000000000E+00  0.00000000000E+00  0.19238783384E+02  0.19238783553E+02  0.25500000000E-02 0. -1.
          2   -1    0    0  501    0  0.00000000000E+00 -0.00000000000E+00 -0.27965810314E+04  0.27965810314E+04  0.25500000000E-02 0.  1.
    5000001    1    1    2    0    0 -0.13763445737E+03 -0.86041912920E+01 -0.86089614995E+03  0.88734686395E+03  0.16500000000E+03 0.  0.
   -5000001    1    1    2    0    0  0.13763445737E+03  0.86041912920E+01 -0.19164460980E+04  0.19284729510E+04  0.16500000000E+03 0.  0.
<mgrwt>
<rscale>  0 0.46390868E+03</rscale>
<asrwt>0</asrwt>
<pdfrwt beam="1">  1        2 0.39951132E+00 0.46390868E+03</pdfrwt>
<pdfrwt beam="2">  1       -2 0.27483994E-02 0.46390868E+03</pdfrwt>
<totfact> 0.16799642E+03</totfact>
</mgrwt>
</event>
<event>
 4    1  0.5531008E-005  0.5408523E+03  0.7818608E-02  0.1003634E+00
          2   -1    0    0  501    0  0.00000000000E+00  0.00000000000E+00  0.17215529293E+03  0.17215529294E+03  0.25500000000E-02 0.  1.
         -2   -1    0    0    0  501 -0.00000000000E+00 -0.00000000000E+00 -0.42479264085E+03  0.42479264085E+03  0.25500000000E-02 0. -1.
    5000001    1    1    2    0    0 -0.80487814077E+02 -0.18591211807E+03 -0.20329214323E+03  0.33105029732E+03  0.16500000000E+03 0.  0.
   -5000001    1    1    2    0    0  0.80487814077E+02  0.18591211807E+03 -0.49345204695E+02  0.26589763648E+03  0.16500000000E+03 0.  0.
<mgrwt>
<rscale>  0 0.54085230E+03</rscale>
<asrwt>0</asrwt>
<pdfrwt beam="1">  1        2 0.24593613E-01 0.54085230E+03</pdfrwt>
<pdfrwt beam="2">  1       -2 0.60684663E-01 0.54085230E+03</pdfrwt>
<totfact> 0.56891004E+02</totfact>
</mgrwt>
</event>
<event>
 4    1  0.5531008E-005  0.4449124E+03  0.7818608E-02  0.1029250E+00
          2   -1    0    0  501    0  0.00000000000E+00  0.00000000000E+00  0.32955825512E+03  0.32955825513E+03  0.25500000000E-02 0.  1.
         -2   -1    0    0    0  501 -0.00000000000E+00 -0.00000000000E+00 -0.15016086555E+03  0.15016086557E+03  0.25500000000E-02 0. -1.
    5000001    1    1    2    0    0 -0.91511942635E+02  0.79652003419E+02 -0.39455357865E+01  0.20484004625E+03  0.16500000000E+03 0.  0.
   -5000001    1    1    2    0    0  0.91511942635E+02 -0.79652003419E+02  0.18334292536E+03  0.27487907445E+03  0.16500000000E+03 0.  0.
<mgrwt>
<rscale>  0 0.44491236E+03</rscale>
<asrwt>0</asrwt>
<pdfrwt beam="1">  1        2 0.47079750E-01 0.44491236E+03</pdfrwt>
<pdfrwt beam="2">  1       -2 0.21451553E-01 0.44491236E+03</pdfrwt>
<totfact> 0.20078178E+03</totfact>
</mgrwt>
</event>
<event>
 4    1  0.5531008E-005  0.6316219E+03  0.7818608E-02  0.9841889E-01
         -2   -1    0    0    0  501 -0.00000000000E+00  0.00000000000E+00  0.49315423849E+03  0.49315423849E+03  0.25500000000E-02 0. -1.
          2   -1    0    0  501    0  0.00000000000E+00 -0.00000000000E+00 -0.20224211505E+03  0.20224211507E+03  0.25500000000E-02 0.  1.
    5000001    1    1    2    0    0  0.21983323598E+03 -0.10341685989E+03  0.17583044317E+02  0.29420377631E+03  0.16500000000E+03 0.  0.
   -5000001    1    1    2    0    0 -0.21983323598E+03  0.10341685989E+03  0.27332907912E+03  0.40119257725E+03  0.16500000000E+03 0.  0.
<mgrwt>
<rscale>  0 0.63162190E+03</rscale>
<asrwt>0</asrwt>
<pdfrwt beam="1">  1        2 0.28891731E-01 0.63162190E+03</pdfrwt>
<pdfrwt beam="2">  1       -2 0.70450605E-01 0.63162190E+03</pdfrwt>
<totfact> 0.34373945E+02</totfact>
</mgrwt>
</event>
<event>
 4    1  0.5531008E-005  0.6675547E+03  0.7818608E-02  0.9774385E-01
         -2   -1    0    0    0  501 -0.00000000000E+00  0.00000000000E+00  0.13027212404E+03  0.13027212406E+03  0.25500000000E-02 0. -1.
          2   -1    0    0  501    0  0.00000000000E+00 -0.00000000000E+00 -0.85518926304E+03  0.85518926305E+03  0.25500000000E-02 0.  1.
    5000001    1    1    2    0    0 -0.15817933685E+03  0.24164572504E+03 -0.32152257037E+03  0.46261768481E+03  0.16500000000E+03 0.  0.
   -5000001    1    1    2    0    0  0.15817933685E+03 -0.24164572504E+03 -0.40339456863E+03  0.52284370230E+03  0.16500000000E+03 0.  0.
<mgrwt>
<rscale>  0 0.66755471E+03</rscale>
<asrwt>0</asrwt>
<pdfrwt beam="1">  1        2 0.12216989E+00 0.66755471E+03</pdfrwt>
<pdfrwt beam="2">  1       -2 0.18610304E-01 0.66755471E+03</pdfrwt>
<totfact> 0.84575134E+02</totfact>
</mgrwt>
</event>
<event>
 4    1  0.5531008E-005  0.4797827E+03  0.7818608E-02  0.1019195E+00
         -2   -1    0    0    0  501 -0.00000000000E+00  0.00000000000E+00  0.12769120818E+02  0.12769121072E+02  0.25500000000E-02 0. -1.
          2   -1    0    0  501    0  0.00000000000E+00 -0.00000000000E+00 -0.45067996180E+04  0.45067996180E+04  0.25500000000E-02 0.  1.
    5000001    1    1    2    0    0  0.29489228617E+02  0.73190823847E+02 -0.37092869658E+04  0.37137933849E+04  0.16500000000E+03 0.  0.
   -5000001    1    1    2    0    0 -0.29489228617E+02 -0.73190823847E+02 -0.78474353145E+03  0.80577535421E+03  0.16500000000E+03 0.  0.
<mgrwt>
<rscale>  0 0.47978274E+03</rscale>
<asrwt>0</asrwt>
<pdfrwt beam="1">  1        2 0.64382750E+00 0.47978274E+03</pdfrwt>
<pdfrwt beam="2">  1       -2 0.18241630E-02 0.47978274E+03</pdfrwt>
<totfact> 0.26787178E+02</totfact>
</mgrwt>
</event>
<event>
 4    1  0.5531008E-005  0.6185208E+03  0.7818608E-02  0.9867709E-01
          2   -1    0    0  501    0  0.00000000000E+00  0.00000000000E+00  0.11650559432E+03  0.11650559434E+03  0.25500000000E-02 0.  1.
         -2   -1    0    0    0  501 -0.00000000000E+00 -0.00000000000E+00 -0.82092183999E+03  0.82092183999E+03  0.25500000000E-02 0. -1.
    5000001    1    1    2    0    0  0.24414164707E+03 -0.27522750040E+02 -0.21618949723E+03  0.36650449426E+03  0.16500000000E+03 0.  0.
   -5000001    1    1    2    0    0 -0.24414164707E+03  0.27522750040E+02 -0.48822674845E+03  0.57092294007E+03  0.16500000000E+03 0.  0.
<mgrwt>
<rscale>  0 0.61852077E+03</rscale>
<asrwt>0</asrwt>
<pdfrwt beam="1">  1        2 0.16643657E-01 0.61852077E+03</pdfrwt>
<pdfrwt beam="2">  1       -2 0.11727455E+00 0.61852077E+03</pdfrwt>
<totfact> 0.20124242E+02</totfact>
</mgrwt>
</event>
<event>
 4    1  0.5531008E-005  0.1147747E+04  0.7818608E-02  0.9159864E-01
          2   -1    0    0  501    0  0.00000000000E+00  0.00000000000E+00  0.17636639853E+04  0.17636639853E+04  0.25500000000E-02 0.  1.
         -2   -1    0    0    0  501 -0.00000000000E+00 -0.00000000000E+00 -0.18673110154E+03  0.18673110156E+03  0.25500000000E-02 0. -1.
    5000001    1    1    2    0    0  0.12568789013E+03  0.25922357953E+03 -0.69765127800E+01  0.33206623081E+03  0.16500000000E+03 0.  0.
   -5000001    1    1    2    0    0 -0.12568789013E+03 -0.25922357953E+03  0.15839093966E+04  0.16183288561E+04  0.16500000000E+03 0.  0.
<mgrwt>
<rscale>  0 0.11477472E+04</rscale>
<asrwt>0</asrwt>
<pdfrwt beam="1">  1        2 0.25195199E+00 0.11477472E+04</pdfrwt>
<pdfrwt beam="2">  1       -2 0.26675873E-01 0.11477472E+04</pdfrwt>
<totfact> 0.13400301E+02</totfact>
</mgrwt>
</event>
<event>
 4    1  0.5531008E-005  0.5363702E+03  0.7818608E-02  0.1004699E+00
         -2   -1    0    0    0  501 -0.00000000000E+00  0.00000000000E+00  0.18290989177E+03  0.18290989179E+03  0.25500000000E-02 0. -1.
          2   -1    0    0  501    0  0.00000000000E+00 -0.00000000000E+00 -0.39321679773E+03  0.39321679774E+03  0.25500000000E-02 0.  1.
    5000001    1    1    2    0    0  0.17139843215E+03  0.87241197177E+02 -0.10839764989E+02  0.25363546584E+03  0.16500000000E+03 0.  0.
   -5000001    1    1    2    0    0 -0.17139843215E+03 -0.87241197177E+02 -0.19946714097E+03  0.32249122369E+03  0.16500000000E+03 0.  0.
<mgrwt>
<rscale>  0 0.53637018E+03</rscale>
<asrwt>0</asrwt>
<pdfrwt beam="1">  1        2 0.56173828E-01 0.53637018E+03</pdfrwt>
<pdfrwt beam="2">  1       -2 0.26129985E-01 0.53637018E+03</pdfrwt>
<totfact> 0.11661269E+03</totfact>
</mgrwt>
</event>
<event>
 4    1  0.5531008E-005  0.5722588E+03  0.7818608E-02  0.9964693E-01
         -2   -1    0    0    0  501 -0.00000000000E+00  0.00000000000E+00  0.70746668065E+02  0.70746668111E+02  0.25500000000E-02 0. -1.
          2   -1    0    0  501    0  0.00000000000E+00 -0.00000000000E+00 -0.11572282708E+04  0.11572282708E+04  0.25500000000E-02 0.  1.
    5000001    1    1    2    0    0  0.63493930664E+02 -0.25451736692E+01 -0.10259689966E+04  0.10410933383E+04  0.16500000000E+03 0.  0.
   -5000001    1    1    2    0    0 -0.63493930664E+02  0.25451736692E+01 -0.60512606159E+02  0.18688160060E+03  0.16500000000E+03 0.  0.
<mgrwt>
<rscale>  0 0.57225884E+03</rscale>
<asrwt>0</asrwt>
<pdfrwt beam="1">  1        2 0.16531831E+00 0.57225884E+03</pdfrwt>
<pdfrwt beam="2">  1       -2 0.10106668E-01 0.57225884E+03</pdfrwt>
<totfact> 0.15366379E+03</totfact>
</mgrwt>
</event>
<event>
 4    1  0.5531008E-005  0.8146681E+03  0.7818608E-02  0.9539025E-01
         -2   -1    0    0    0  501 -0.00000000000E+00  0.00000000000E+00  0.40352101694E+02  0.40352101775E+02  0.25500000000E-02 0.  1.
          2   -1    0    0  501    0  0.00000000000E+00 -0.00000000000E+00 -0.41118308959E+04  0.41118308959E+04  0.25500000000E-02 0. -1.
    5000001    1    1    2    0    0 -0.18170997102E+03  0.31520935159E+03 -0.16305352318E+04  0.16787631134E+04  0.16500000000E+03 0.  0.
   -5000001    1    1    2    0    0  0.18170997102E+03 -0.31520935159E+03 -0.24409435624E+04  0.24734198843E+04  0.16500000000E+03 0.  0.
<mgrwt>
<rscale>  0 0.81466808E+03</rscale>
<asrwt>0</asrwt>
<pdfrwt beam="1">  1        2 0.58740414E+00 0.81466808E+03</pdfrwt>
<pdfrwt beam="2">  1       -2 0.57645886E-02 0.81466808E+03</pdfrwt>
<totfact> 0.85095793E+01</totfact>
</mgrwt>
</event>
<event>
 4    1  0.5531008E-005  0.5305707E+03  0.7818608E-02  0.1006094E+00
          2   -1    0    0  501    0  0.00000000000E+00  0.00000000000E+00  0.12798058809E+04  0.12798058809E+04  0.25500000000E-02 0.  1.
         -2   -1    0    0    0  501 -0.00000000000E+00 -0.00000000000E+00 -0.54989830442E+02  0.54989830501E+02  0.25500000000E-02 0. -1.
    5000001    1    1    2    0    0 -0.17793399258E+03 -0.10648645426E+03  0.58144890045E+03  0.63898958872E+03  0.16500000000E+03 0.  0.
   -5000001    1    1    2    0    0  0.17793399258E+03  0.10648645426E+03  0.64336715001E+03  0.69580612269E+03  0.16500000000E+03 0.  0.
<mgrwt>
<rscale>  0 0.53057067E+03</rscale>
<asrwt>0</asrwt>
<pdfrwt beam="1">  1        2 0.18282942E+00 0.53057067E+03</pdfrwt>
<pdfrwt beam="2">  1       -2 0.78556895E-02 0.53057067E+03</pdfrwt>
<totfact> 0.19692016E+03</totfact>
</mgrwt>
</event>
<event>
 4    1  0.5531008E-005  0.4145558E+03  0.7818608E-02  0.1038853E+00
         -2   -1    0    0    0  501 -0.00000000000E+00  0.00000000000E+00  0.33474695259E+03  0.33474695260E+03  0.25500000000E-02 0. -1.
          2   -1    0    0  501    0  0.00000000000E+00 -0.00000000000E+00 -0.12834810624E+03  0.12834810627E+03  0.25500000000E-02 0.  1.
    5000001    1    1    2    0    0 -0.88456972207E+02  0.77497184260E+02  0.54395518740E+02  0.20979590549E+03  0.16500000000E+03 0.  0.
   -5000001    1    1    2    0    0  0.88456972207E+02 -0.77497184260E+02  0.15200332760E+03  0.25329915338E+03  0.16500000000E+03 0.  0.
<mgrwt>
<rscale>  0 0.41455585E+03</rscale>
<asrwt>0</asrwt>
<pdfrwt beam="1">  1        2 0.18335444E-01 0.41455585E+03</pdfrwt>
<pdfrwt beam="2">  1       -2 0.47820992E-01 0.41455585E+03</pdfrwt>
<totfact> 0.13008332E+03</totfact>
</mgrwt>
</event>
<event>
 4    1  0.5531008E-005  0.3491839E+03  0.7818608E-02  0.1062950E+00
          2   -1    0    0  501    0  0.00000000000E+00  0.00000000000E+00  0.16292806206E+04  0.16292806206E+04  0.25500000000E-02 0.  1.
         -2   -1    0    0    0  501 -0.00000000000E+00 -0.00000000000E+00 -0.18709086236E+02  0.18709086410E+02  0.25500000000E-02 0. -1.
    5000001    1    1    2    0    0 -0.25571612756E+01 -0.49853759083E+02  0.93585740887E+03  0.95160182120E+03  0.16500000000E+03 0.  0.
   -5000001    1    1    2    0    0  0.25571612756E+01  0.49853759083E+02  0.67471412551E+03  0.69638788583E+03  0.16500000000E+03 0.  0.
<mgrwt>
<rscale>  0 0.34918392E+03</rscale>
<asrwt>0</asrwt>
<pdfrwt beam="1">  1        2 0.23275429E+00 0.34918392E+03</pdfrwt>
<pdfrwt beam="2">  1       -2 0.26727275E-02 0.34918392E+03</pdfrwt>
<totfact> 0.67821470E+03</totfact>
</mgrwt>
</event>
<event>
 4    1  0.5531008E-005  0.6495347E+03  0.7818608E-02  0.9807653E-01
          2   -1    0    0  501    0  0.00000000000E+00  0.00000000000E+00  0.24651535602E+04  0.24651535602E+04  0.25500000000E-02 0.  1.
         -2   -1    0    0    0  501 -0.00000000000E+00 -0.00000000000E+00 -0.42785913317E+02  0.42785913393E+02  0.25500000000E-02 0. -1.
    5000001    1    1    2    0    0 -0.76282690977E+01 -0.23837325971E+03  0.17756074559E+04  0.17991350252E+04  0.16500000000E+03 0.  0.
   -5000001    1    1    2    0    0  0.76282690977E+01  0.23837325971E+03  0.64676019100E+03  0.70880444841E+03  0.16500000000E+03 0.  0.
<mgrwt>
<rscale>  0 0.64953475E+03</rscale>
<asrwt>0</asrwt>
<pdfrwt beam="1">  1        2 0.35216477E+00 0.64953475E+03</pdfrwt>
<pdfrwt beam="2">  1       -2 0.61122738E-02 0.64953475E+03</pdfrwt>
<totfact> 0.72071972E+02</totfact>
</mgrwt>
</event>
<event>
 4    1  0.5531008E-005  0.3728837E+03  0.7818608E-02  0.1053596E+00
         -2   -1    0    0    0  501 -0.00000000000E+00  0.00000000000E+00  0.11209681132E+02  0.11209681422E+02  0.25500000000E-02 0. -1.
          2   -1    0    0  501    0  0.00000000000E+00 -0.00000000000E+00 -0.31009406296E+04  0.31009406296E+04  0.25500000000E-02 0.  1.
    5000001    1    1    2    0    0 -0.25426705352E+02 -0.21326007640E+02 -0.22143427570E+04  0.22207296462E+04  0.16500000000E+03 0.  0.
   -5000001    1    1    2    0    0  0.25426705352E+02  0.21326007640E+02 -0.87538819144E+03  0.89142066482E+03  0.16500000000E+03 0.  0.
<mgrwt>
<rscale>  0 0.37288366E+03</rscale>
<asrwt>0</asrwt>
<pdfrwt beam="1">  1        2 0.44299097E+00 0.37288366E+03</pdfrwt>
<pdfrwt beam="2">  1       -2 0.16013850E-02 0.37288366E+03</pdfrwt>
<totfact> 0.26049357E+03</totfact>
</mgrwt>
</event>
<event>
 4    1  0.5531008E-005  0.7906281E+03  0.7818608E-02  0.9573683E-01
         -2   -1    0    0    0  501 -0.00000000000E+00  0.00000000000E+00  0.12027972389E+03  0.12027972391E+03  0.25500000000E-02 0. -1.
          2   -1    0    0  501    0  0.00000000000E+00 -0.00000000000E+00 -0.12992479341E+04  0.12992479341E+04  0.25500000000E-02 0.  1.
    5000001    1    1    2    0    0  0.17739374745E+02 -0.24469245360E+03 -0.11834157802E+03  0.31846320251E+03  0.16500000000E+03 0.  0.
   -5000001    1    1    2    0    0 -0.17739374745E+02  0.24469245360E+03 -0.10606266322E+04  0.11010644555E+04  0.16500000000E+03 0.  0.
<mgrwt>
<rscale>  0 0.79062806E+03</rscale>
<asrwt>0</asrwt>
<pdfrwt beam="1">  1        2 0.18560684E+00 0.79062806E+03</pdfrwt>
<pdfrwt beam="2">  1       -2 0.17182818E-01 0.79062806E+03</pdfrwt>
<totfact> 0.52469941E+02</totfact>
</mgrwt>
</event>
<event>
 4    1  0.5531008E-005  0.4826574E+03  0.7818608E-02  0.1018407E+00
          2   -1    0    0  501    0  0.00000000000E+00  0.00000000000E+00  0.12582311849E+04  0.12582311849E+04  0.25500000000E-02 0.  1.
         -2   -1    0    0    0  501 -0.00000000000E+00 -0.00000000000E+00 -0.46286844345E+02  0.46286844415E+02  0.25500000000E-02 0. -1.
    5000001    1    1    2    0    0 -0.14508268396E+03  0.41857573549E+02  0.85092105145E+03  0.87982536758E+03  0.16500000000E+03 0.  0.
   -5000001    1    1    2    0    0  0.14508268396E+03 -0.41857573549E+02  0.36102328906E+03  0.42469266169E+03  0.16500000000E+03 0.  0.
<mgrwt>
<rscale>  0 0.48265744E+03</rscale>
<asrwt>0</asrwt>
<pdfrwt beam="1">  1        2 0.17974729E+00 0.48265744E+03</pdfrwt>
<pdfrwt beam="2">  1       -2 0.66124073E-02 0.48265744E+03</pdfrwt>
<totfact> 0.26565276E+03</totfact>
</mgrwt>
</event>
<event>
 4    1  0.5531008E-005  0.5115659E+03  0.7818608E-02  0.1010803E+00
          2   -1    0    0  501    0  0.00000000000E+00  0.00000000000E+00  0.38676229688E+04  0.38676229688E+04  0.25500000000E-02 0.  1.
         -2   -1    0    0    0  501 -0.00000000000E+00 -0.00000000000E+00 -0.16916054592E+02  0.16916054784E+02  0.25500000000E-02 0. -1.
    5000001    1    1    2    0    0 -0.84700213444E+02  0.14704889723E+03  0.26616582866E+04  0.26721615480E+04  0.16500000000E+03 0.  0.
   -5000001    1    1    2    0    0  0.84700213444E+02 -0.14704889723E+03  0.11890486277E+04  0.12123774756E+04  0.16500000000E+03 0.  0.
<mgrwt>
<rscale>  0 0.51156592E+03</rscale>
<asrwt>0</asrwt>
<pdfrwt beam="1">  1        2 0.55251755E+00 0.51156592E+03</pdfrwt>
<pdfrwt beam="2">  1       -2 0.24165793E-02 0.51156592E+03</pdfrwt>
<totfact> 0.49088375E+02</totfact>
</mgrwt>
</event>
<event>
 4    1  0.5531008E-005  0.4983705E+03  0.7818608E-02  0.1014205E+00
          2   -1    0    0  501    0  0.00000000000E+00  0.00000000000E+00  0.21096252107E+03  0.21096252108E+03  0.25500000000E-02 0.  1.
         -2   -1    0    0    0  501 -0.00000000000E+00 -0.00000000000E+00 -0.29433327251E+03  0.29433327252E+03  0.25500000000E-02 0. -1.
    5000001    1    1    2    0    0 -0.10050630158E+03 -0.14881187061E+03  0.10229654424E+02  0.24408223065E+03  0.16500000000E+03 0.  0.
   -5000001    1    1    2    0    0  0.10050630158E+03  0.14881187061E+03 -0.93600405867E+02  0.26121356295E+03  0.16500000000E+03 0.  0.
<mgrwt>
<rscale>  0 0.49837050E+03</rscale>
<asrwt>0</asrwt>
<pdfrwt beam="1">  1        2 0.30137503E-01 0.49837050E+03</pdfrwt>
<pdfrwt beam="2">  1       -2 0.42047610E-01 0.49837050E+03</pdfrwt>
<totfact> 0.95110722E+02</totfact>
</mgrwt>
</event>
<event>
 4    1  0.5531008E-005  0.4380732E+03  0.7818608E-02  0.1031340E+00
         -2   -1    0    0    0  501 -0.00000000000E+00  0.00000000000E+00  0.19711476413E+02  0.19711476578E+02  0.25500000000E-02 0. -1.
          2   -1    0    0  501    0  0.00000000000E+00 -0.00000000000E+00 -0.24339646969E+04  0.24339646969E+04  0.25500000000E-02 0.  1.
    5000001    1    1    2    0    0 -0.36774550121E+02 -0.13730888038E+03 -0.10762555298E+04  0.10980696980E+04  0.16500000000E+03 0.  0.
   -5000001    1    1    2    0    0  0.36774550121E+02  0.13730888038E+03 -0.13379976906E+04  0.13556064754E+04  0.16500000000E+03 0.  0.
<mgrwt>
<rscale>  0 0.43807323E+03</rscale>
<asrwt>0</asrwt>
<pdfrwt beam="1">  1        2 0.34770905E+00 0.43807323E+03</pdfrwt>
<pdfrwt beam="2">  1       -2 0.28159268E-02 0.43807323E+03</pdfrwt>
<totfact> 0.24922562E+03</totfact>
</mgrwt>
</event>
<event>
 4    1  0.5531008E-005  0.3995430E+03  0.7818608E-02  0.1043938E+00
         -2   -1    0    0    0  501 -0.00000000000E+00  0.00000000000E+00  0.13303408120E+02  0.13303408364E+02  0.25500000000E-02 0. -1.
          2   -1    0    0  501    0  0.00000000000E+00 -0.00000000000E+00 -0.29998825266E+04  0.29998825266E+04  0.25500000000E-02 0.  1.
    5000001    1    1    2    0    0 -0.14121800421E+02 -0.10435388032E+03 -0.11921448716E+04  0.12081074259E+04  0.16500000000E+03 0.  0.
   -5000001    1    1    2    0    0  0.14121800421E+02  0.10435388032E+03 -0.17944342469E+04  0.18050785091E+04  0.16500000000E+03 0.  0.
<mgrwt>
<rscale>  0 0.39954305E+03</rscale>
<asrwt>0</asrwt>
<pdfrwt beam="1">  1        2 0.42855422E+00 0.39954305E+03</pdfrwt>
<pdfrwt beam="2">  1       -2 0.19004888E-02 0.39954305E+03</pdfrwt>
<totfact> 0.22870449E+03</totfact>
</mgrwt>
</event>
<event>
 4    1  0.5531008E-005  0.3609255E+03  0.7818608E-02  0.1058218E+00
          2   -1    0    0  501    0  0.00000000000E+00  0.00000000000E+00  0.41935864343E+04  0.41935864343E+04  0.25500000000E-02 0.  1.
         -2   -1    0    0    0  501 -0.00000000000E+00 -0.00000000000E+00 -0.77658574891E+01  0.77658579077E+01  0.25500000000E-02 0. -1.
    5000001    1    1    2    0    0  0.45802908573E+02  0.46487859718E+02  0.17098745569E+04  0.17190564353E+04  0.16500000000E+03 0.  0.
   -5000001    1    1    2    0    0 -0.45802908573E+02 -0.46487859718E+02  0.24759460199E+04  0.24822958568E+04  0.16500000000E+03 0.  0.
<mgrwt>
<rscale>  0 0.36092545E+03</rscale>
<asrwt>0</asrwt>
<pdfrwt beam="1">  1        2 0.59908296E+00 0.36092545E+03</pdfrwt>
<pdfrwt beam="2">  1       -2 0.11094098E-02 0.36092545E+03</pdfrwt>
<totfact> 0.96813607E+02</totfact>
</mgrwt>
</event>
<event>
 4    1  0.5531008E-005  0.4126671E+03  0.7818608E-02  0.1039480E+00
          2   -1    0    0  501    0  0.00000000000E+00  0.00000000000E+00  0.10724311936E+04  0.10724311936E+04  0.25500000000E-02 0.  1.
         -2   -1    0    0    0  501 -0.00000000000E+00 -0.00000000000E+00 -0.39698143059E+02  0.39698143141E+02  0.25500000000E-02 0. -1.
    5000001    1    1    2    0    0  0.50137861765E+01  0.12294831292E+03  0.47758303504E+03  0.52004997938E+03  0.16500000000E+03 0.  0.
   -5000001    1    1    2    0    0 -0.50137861765E+01 -0.12294831292E+03  0.55515001553E+03  0.59207935739E+03  0.16500000000E+03 0.  0.
<mgrwt>
<rscale>  0 0.41266707E+03</rscale>
<asrwt>0</asrwt>
<pdfrwt beam="1">  1        2 0.15320447E+00 0.41266707E+03</pdfrwt>
<pdfrwt beam="2">  1       -2 0.56711629E-02 0.41266707E+03</pdfrwt>
<totfact> 0.42878075E+03</totfact>
</mgrwt>
</event>
<event>
 4    1  0.5531008E-005  0.4816386E+03  0.7818608E-02  0.1018686E+00
          2   -1    0    0  501    0  0.00000000000E+00  0.00000000000E+00  0.13050175500E+04  0.13050175500E+04  0.25500000000E-02 0.  1.
         -2   -1    0    0    0  501 -0.00000000000E+00 -0.00000000000E+00 -0.44439199911E+02  0.44439199984E+02  0.25500000000E-02 0. -1.
    5000001    1    1    2    0    0  0.10808818747E+03  0.55545594340E+02  0.98469868122E+03  0.10057956364E+04  0.16500000000E+03 0.  0.
   -5000001    1    1    2    0    0 -0.10808818747E+03 -0.55545594340E+02  0.27587966884E+03  0.34366111360E+03  0.16500000000E+03 0.  0.
<mgrwt>
<rscale>  0 0.48163860E+03</rscale>
<asrwt>0</asrwt>
<pdfrwt beam="1">  1        2 0.18643110E+00 0.48163860E+03</pdfrwt>
<pdfrwt beam="2">  1       -2 0.63484564E-02 0.48163860E+03</pdfrwt>
<totfact> 0.26707952E+03</totfact>
</mgrwt>
</event>
<event>
 4    1  0.5531008E-005  0.8509806E+03  0.7818608E-02  0.9489022E-01
          2   -1    0    0  501    0  0.00000000000E+00  0.00000000000E+00  0.20976289619E+04  0.20976289619E+04  0.25500000000E-02 0.  1.
         -2   -1    0    0    0  501 -0.00000000000E+00 -0.00000000000E+00 -0.86307926106E+02  0.86307926144E+02  0.25500000000E-02 0. -1.
    5000001    1    1    2    0    0 -0.26208905188E+00  0.33055635396E+03  0.15473389028E+04  0.15908331943E+04  0.16500000000E+03 0.  0.
   -5000001    1    1    2    0    0  0.26208905188E+00 -0.33055635396E+03  0.46398213294E+03  0.59310369373E+03  0.16500000000E+03 0.  0.
<mgrwt>
<rscale>  0 0.85098062E+03</rscale>
<asrwt>0</asrwt>
<pdfrwt beam="1">  1        2 0.29966130E+00 0.85098062E+03</pdfrwt>
<pdfrwt beam="2">  1       -2 0.12329703E-01 0.85098062E+03</pdfrwt>
<totfact> 0.35280601E+02</totfact>
</mgrwt>
</event>
<event>
 4    1  0.5531008E-005  0.4891267E+03  0.7818608E-02  0.1016657E+00
          2   -1    0    0  501    0  0.00000000000E+00  0.00000000000E+00  0.73098238586E+03  0.73098238587E+03  0.25500000000E-02 0.  1.
         -2   -1    0    0    0  501 -0.00000000000E+00 -0.00000000000E+00 -0.81823089520E+02  0.81823089559E+02  0.25500000000E-02 0. -1.
    5000001    1    1    2    0    0  0.17421622807E+03  0.51510124644E+01  0.40267138826E+03  0.46877187840E+03  0.16500000000E+03 0.  0.
   -5000001    1    1    2    0    0 -0.17421622807E+03 -0.51510124644E+01  0.24648790808E+03  0.34403359703E+03  0.16500000000E+03 0.  0.
<mgrwt>
<rscale>  0 0.48912672E+03</rscale>
<asrwt>0</asrwt>
<pdfrwt beam="1">  1        2 0.10442605E+00 0.48912672E+03</pdfrwt>
<pdfrwt beam="2">  1       -2 0.11689013E-01 0.48912672E+03</pdfrwt>
<totfact> 0.22594982E+03</totfact>
</mgrwt>
</event>
<event>
 4    1  0.5531008E-005  0.3825625E+03  0.7818608E-02  0.1049991E+00
         -2   -1    0    0    0  501 -0.00000000000E+00  0.00000000000E+00  0.11634470600E+03  0.11634470603E+03  0.25500000000E-02 0. -1.
          2   -1    0    0  501    0  0.00000000000E+00 -0.00000000000E+00 -0.31448373285E+03  0.31448373286E+03  0.25500000000E-02 0.  1.
    5000001    1    1    2    0    0 -0.84301121785E+02  0.10329048157E+02 -0.46849587963E+02  0.19139815115E+03  0.16500000000E+03 0.  0.
   -5000001    1    1    2    0    0  0.84301121785E+02 -0.10329048157E+02 -0.15128943888E+03  0.23943028774E+03  0.16500000000E+03 0.  0.
<mgrwt>
<rscale>  0 0.38256250E+03</rscale>
<asrwt>0</asrwt>
<pdfrwt beam="1">  1        2 0.44926247E-01 0.38256250E+03</pdfrwt>
<pdfrwt beam="2">  1       -2 0.16620672E-01 0.38256250E+03</pdfrwt>
<totfact> 0.32653448E+03</totfact>
</mgrwt>
</event>
<event>
 4    1  0.5531008E-005  0.3687198E+03  0.7818608E-02  0.1055184E+00
         -2   -1    0    0    0  501 -0.00000000000E+00  0.00000000000E+00  0.11395738743E+02  0.11395739028E+02  0.25500000000E-02 0. -1.
          2   -1    0    0  501    0  0.00000000000E+00 -0.00000000000E+00 -0.29825678872E+04  0.29825678872E+04  0.25500000000E-02 0.  1.
    5000001    1    1    2    0    0 -0.60503852777E+02  0.53630512911E+02 -0.13633509259E+04  0.13756771770E+04  0.16500000000E+03 0.  0.
   -5000001    1    1    2    0    0  0.60503852777E+02 -0.53630512911E+02 -0.16078212225E+04  0.16182864492E+04  0.16500000000E+03 0.  0.
<mgrwt>
<rscale>  0 0.36871976E+03</rscale>
<asrwt>0</asrwt>
<pdfrwt beam="1">  1        2 0.42608063E+00 0.36871976E+03</pdfrwt>
<pdfrwt beam="2">  1       -2 0.16279646E-02 0.36871976E+03</pdfrwt>
<totfact> 0.29456902E+03</totfact>
</mgrwt>
</event>
<event>
 4    1  0.5531008E-005  0.5317223E+03  0.7818608E-02  0.1005815E+00
         -2   -1    0    0    0  501 -0.00000000000E+00  0.00000000000E+00  0.29390374725E+02  0.29390374835E+02  0.25500000000E-02 0.  1.
          2   -1    0    0  501    0  0.00000000000E+00 -0.00000000000E+00 -0.24049418575E+04  0.24049418575E+04  0.25500000000E-02 0. -1.
    5000001    1    1    2    0    0 -0.11489477324E+03 -0.17321191258E+03 -0.11148159476E+04  0.11459680505E+04  0.16500000000E+03 0.  0.
   -5000001    1    1    2    0    0  0.11489477324E+03  0.17321191258E+03 -0.12607355352E+04  0.12883641819E+04  0.16500000000E+03 0.  0.
<mgrwt>
<rscale>  0 0.53172227E+03</rscale>
<asrwt>0</asrwt>
<pdfrwt beam="1">  1        2 0.34356300E+00 0.53172227E+03</pdfrwt>
<pdfrwt beam="2">  1       -2 0.41986265E-02 0.53172227E+03</pdfrwt>
<totfact> 0.13970583E+03</totfact>
</mgrwt>
</event>
<event>
 4    1  0.5531008E-005  0.1493654E+04  0.7818608E-02  0.8888684E-01
          2   -1    0    0  501    0  0.00000000000E+00  0.00000000000E+00  0.20863349789E+04  0.20863349789E+04  0.25500000000E-02 0.  1.
         -2   -1    0    0    0  501 -0.00000000000E+00 -0.00000000000E+00 -0.26733523450E+03  0.26733523451E+03  0.25500000000E-02 0. -1.
    5000001    1    1    2    0    0 -0.22129406658E+03 -0.61193661950E+03  0.14251636547E+04  0.15753583506E+04  0.16500000000E+03 0.  0.
   -5000001    1    1    2    0    0  0.22129406658E+03  0.61193661950E+03  0.39383608967E+03  0.77831186276E+03  0.16500000000E+03 0.  0.
<mgrwt>
<rscale>  0 0.14936544E+04</rscale>
<asrwt>0</asrwt>
<pdfrwt beam="1">  1        2 0.29804785E+00 0.14936544E+04</pdfrwt>
<pdfrwt beam="2">  1       -2 0.38190748E-01 0.14936544E+04</pdfrwt>
<totfact> 0.45381644E+01</totfact>
</mgrwt>
</event>
<event>
 4    1  0.5531008E-005  0.6489932E+03  0.7818608E-02  0.9808670E-01
          2   -1    0    0  501    0  0.00000000000E+00  0.00000000000E+00  0.13810279870E+04  0.13810279870E+04  0.25500000000E-02 0.  1.
         -2   -1    0    0    0  501 -0.00000000000E+00 -0.00000000000E+00 -0.76246142136E+02  0.76246142178E+02  0.25500000000E-02 0. -1.
    5000001    1    1    2    0    0  0.51591446067E+02  0.18254338079E+03  0.19172413967E+03  0.31617544008E+03  0.16500000000E+03 0.  0.
   -5000001    1    1    2    0    0 -0.51591446067E+02 -0.18254338079E+03  0.11130577052E+04  0.11410986891E+04  0.16500000000E+03 0.  0.
<mgrwt>
<rscale>  0 0.64899324E+03</rscale>
<asrwt>0</asrwt>
<pdfrwt beam="1">  1        2 0.19728970E+00 0.64899324E+03</pdfrwt>
<pdfrwt beam="2">  1       -2 0.10892307E-01 0.64899324E+03</pdfrwt>
<totfact> 0.10224373E+03</totfact>
</mgrwt>
</event>
<event>
 4    1  0.5531008E-005  0.4212621E+03  0.7818608E-02  0.1036656E+00
         -2   -1    0    0    0  501 -0.00000000000E+00  0.00000000000E+00  0.42431056573E+02  0.42431056650E+02  0.25500000000E-02 0. -1.
          2   -1    0    0  501    0  0.00000000000E+00 -0.00000000000E+00 -0.10455890593E+04  0.10455890593E+04  0.25500000000E-02 0.  1.
    5000001    1    1    2    0    0  0.17169950661E+02  0.12001861362E+03 -0.62918874507E+03  0.66166664699E+03  0.16500000000E+03 0.  0.
   -5000001    1    1    2    0    0 -0.17169950661E+02 -0.12001861362E+03 -0.37396925766E+03  0.42635346896E+03  0.16500000000E+03 0.  0.
<mgrwt>
<rscale>  0 0.42126214E+03</rscale>
<asrwt>0</asrwt>
<pdfrwt beam="1">  1        2 0.14936985E+00 0.42126214E+03</pdfrwt>
<pdfrwt beam="2">  1       -2 0.60615802E-02 0.42126214E+03</pdfrwt>
<totfact> 0.40102765E+03</totfact>
</mgrwt>
</event>
<event>
 4    1  0.5531008E-005  0.4356831E+03  0.7818608E-02  0.1032080E+00
          2   -1    0    0  501    0  0.00000000000E+00  0.00000000000E+00  0.13498972448E+03  0.13498972450E+03  0.25500000000E-02 0.  1.
         -2   -1    0    0    0  501 -0.00000000000E+00 -0.00000000000E+00 -0.35154480302E+03  0.35154480303E+03  0.25500000000E-02 0. -1.
    5000001    1    1    2    0    0  0.12455212684E+03  0.36493272147E+02 -0.17324842320E+03  0.27218561195E+03  0.16500000000E+03 0.  0.
   -5000001    1    1    2    0    0 -0.12455212684E+03 -0.36493272147E+02 -0.43306655349E+02  0.21434891558E+03  0.16500000000E+03 0.  0.
<mgrwt>
<rscale>  0 0.43568308E+03</rscale>
<asrwt>0</asrwt>
<pdfrwt beam="1">  1        2 0.19284246E-01 0.43568308E+03</pdfrwt>
<pdfrwt beam="2">  1       -2 0.50220686E-01 0.43568308E+03</pdfrwt>
<totfact> 0.11120756E+03</totfact>
</mgrwt>
</event>
<event>
 4    1  0.5531008E-005  0.7073980E+03  0.7818608E-02  0.9704664E-01
         -2   -1    0    0    0  501 -0.00000000000E+00  0.00000000000E+00  0.15871551903E+03  0.15871551905E+03  0.25500000000E-02 0. -1.
          2   -1    0    0  501    0  0.00000000000E+00 -0.00000000000E+00 -0.78822146516E+03  0.78822146516E+03  0.25500000000E-02 0.  1.
    5000001    1    1    2    0    0 -0.24931000337E+02 -0.29400621377E+03 -0.17553155136E+03  0.38091670223E+03  0.16500000000E+03 0.  0.
   -5000001    1    1    2    0    0  0.24931000337E+02  0.29400621377E+03 -0.45397439477E+03  0.56602028199E+03  0.16500000000E+03 0.  0.
<mgrwt>
<rscale>  0 0.70739799E+03</rscale>
<asrwt>0</asrwt>
<pdfrwt beam="1">  1        2 0.11260306E+00 0.70739799E+03</pdfrwt>
<pdfrwt beam="2">  1       -2 0.22673646E-01 0.70739799E+03</pdfrwt>
<totfact> 0.66429462E+02</totfact>
</mgrwt>
</event>
<event>
 4    1  0.5531008E-005  0.4729672E+03  0.7818608E-02  0.1021086E+00
         -2   -1    0    0    0  501 -0.00000000000E+00  0.00000000000E+00  0.25457925958E+02  0.25457926085E+02  0.25500000000E-02 0. -1.
          2   -1    0    0  501    0  0.00000000000E+00 -0.00000000000E+00 -0.21967417633E+04  0.21967417633E+04  0.25500000000E-02 0.  1.
    5000001    1    1    2    0    0 -0.12204561103E+03 -0.11749131731E+03 -0.10838314215E+04  0.11093308303E+04  0.16500000000E+03 0.  0.
   -5000001    1    1    2    0    0  0.12204561103E+03  0.11749131731E+03 -0.10874524159E+04  0.11128688592E+04  0.16500000000E+03 0.  0.
<mgrwt>
<rscale>  0 0.47296718E+03</rscale>
<asrwt>0</asrwt>
<pdfrwt beam="1">  1        2 0.31382013E+00 0.47296718E+03</pdfrwt>
<pdfrwt beam="2">  1       -2 0.36368480E-02 0.47296718E+03</pdfrwt>
<totfact> 0.22219691E+03</totfact>
</mgrwt>
</event>
<event>
 4    1  0.5531008E-005  0.9900652E+03  0.7818608E-02  0.9319509E-01
          2   -1    0    0  501    0  0.00000000000E+00  0.00000000000E+00  0.88738069556E+03  0.88738069556E+03  0.25500000000E-02 0.  1.
         -2   -1    0    0    0  501 -0.00000000000E+00 -0.00000000000E+00 -0.27615802139E+03  0.27615802140E+03  0.25500000000E-02 0. -1.
    5000001    1    1    2    0    0  0.22737249007E+03 -0.34717143537E+03  0.54637635034E+02  0.44992946774E+03  0.16500000000E+03 0.  0.
   -5000001    1    1    2    0    0 -0.22737249007E+03  0.34717143537E+03  0.55658503914E+03  0.71360924922E+03  0.16500000000E+03 0.  0.
<mgrwt>
<rscale>  0 0.99006524E+03</rscale>
<asrwt>0</asrwt>
<pdfrwt beam="1">  1        2 0.12676867E+00 0.99006524E+03</pdfrwt>
<pdfrwt beam="2">  1       -2 0.39451146E-01 0.99006524E+03</pdfrwt>
<totfact> 0.20085104E+02</totfact>
</mgrwt>
</event>
<event>
 4    1  0.5531008E-005  0.5077023E+03  0.7818608E-02  0.1011788E+00
          2   -1    0    0  501    0  0.00000000000E+00  0.00000000000E+00  0.73247506525E+02  0.73247506570E+02  0.25500000000E-02 0.  1.
         -2   -1    0    0    0  501 -0.00000000000E+00 -0.00000000000E+00 -0.87976252601E+03  0.87976252602E+03  0.25500000000E-02 0. -1.
    5000001    1    1    2    0    0 -0.15999171741E+03  0.10772884750E+03 -0.40990923183E+03  0.48213424745E+03  0.16500000000E+03 0.  0.
   -5000001    1    1    2    0    0  0.15999171741E+03 -0.10772884750E+03 -0.39660578766E+03  0.47087578514E+03  0.16500000000E+03 0.  0.
<mgrwt>
<rscale>  0 0.50770232E+03</rscale>
<asrwt>0</asrwt>
<pdfrwt beam="1">  1        2 0.10463930E-01 0.50770232E+03</pdfrwt>
<pdfrwt beam="2">  1       -2 0.12568035E+00 0.50770232E+03</pdfrwt>
<totfact> 0.30073807E+02</totfact>
</mgrwt>
</event>
<event>
 4    1  0.5531008E-005  0.7916346E+03  0.7818608E-02  0.9572205E-01
         -2   -1    0    0    0  501 -0.00000000000E+00  0.00000000000E+00  0.46162270142E+02  0.46162270212E+02  0.25500000000E-02 0. -1.
          2   -1    0    0  501    0  0.00000000000E+00 -0.00000000000E+00 -0.33939263167E+04  0.33939263167E+04  0.25500000000E-02 0.  1.
    5000001    1    1    2    0    0  0.16646999824E+03  0.10738894066E+03 -0.29790073123E+04  0.29901428414E+04  0.16500000000E+03 0.  0.
   -5000001    1    1    2    0    0 -0.16646999824E+03 -0.10738894066E+03 -0.36875673422E+03  0.44994574553E+03  0.16500000000E+03 0.  0.
<mgrwt>
<rscale>  0 0.79163462E+03</rscale>
<asrwt>0</asrwt>
<pdfrwt beam="1">  1        2 0.48484646E+00 0.79163462E+03</pdfrwt>
<pdfrwt beam="2">  1       -2 0.65946122E-02 0.79163462E+03</pdfrwt>
<totfact> 0.19706524E+02</totfact>
</mgrwt>
</event>
<event>
 4    1  0.5531008E-005  0.4965962E+03  0.7818608E-02  0.1014671E+00
         -2   -1    0    0    0  501 -0.00000000000E+00  0.00000000000E+00  0.97102311562E+02  0.97102311595E+02  0.25500000000E-02 0. -1.
          2   -1    0    0  501    0  0.00000000000E+00 -0.00000000000E+00 -0.63491751921E+03  0.63491751922E+03  0.25500000000E-02 0.  1.
    5000001    1    1    2    0    0  0.13929006301E+03 -0.11888288391E+03 -0.22487995835E+03  0.33366278997E+03  0.16500000000E+03 0.  0.
   -5000001    1    1    2    0    0 -0.13929006301E+03  0.11888288391E+03 -0.31293524930E+03  0.39835704085E+03  0.16500000000E+03 0.  0.
<mgrwt>
<rscale>  0 0.49659625E+03</rscale>
<asrwt>0</asrwt>
<pdfrwt beam="1">  1        2 0.90702501E-01 0.49659625E+03</pdfrwt>
<pdfrwt beam="2">  1       -2 0.13871759E-01 0.49659625E+03</pdfrwt>
<totfact> 0.20197492E+03</totfact>
</mgrwt>
</event>
<event>
 4    1  0.5531008E-005  0.6960365E+03  0.7818608E-02  0.9724034E-01
          2   -1    0    0  501    0  0.00000000000E+00  0.00000000000E+00  0.11986530570E+04  0.11986530570E+04  0.25500000000E-02 0.  1.
         -2   -1    0    0    0  501 -0.00000000000E+00 -0.00000000000E+00 -0.10104401244E+03  0.10104401247E+03  0.25500000000E-02 0. -1.
    5000001    1    1    2    0    0 -0.15533352007E+03  0.23247763809E+03  0.78290370660E+03  0.84754797414E+03  0.16500000000E+03 0.  0.
   -5000001    1    1    2    0    0  0.15533352007E+03 -0.23247763809E+03  0.31470533796E+03  0.45214909533E+03  0.16500000000E+03 0.  0.
<mgrwt>
<rscale>  0 0.69603653E+03</rscale>
<asrwt>0</asrwt>
<pdfrwt beam="1">  1        2 0.17123614E+00 0.69603653E+03</pdfrwt>
<pdfrwt beam="2">  1       -2 0.14434860E-01 0.69603653E+03</pdfrwt>
<totfact> 0.80566979E+02</totfact>
</mgrwt>
</event>
<event>
 4    1  0.5531008E-005  0.3908601E+03  0.7818608E-02  0.1046991E+00
         -2   -1    0    0    0  501 -0.00000000000E+00  0.00000000000E+00  0.72449172184E+02  0.72449172229E+02  0.25500000000E-02 0. -1.
          2   -1    0    0  501    0  0.00000000000E+00 -0.00000000000E+00 -0.52716831637E+03  0.52716831638E+03  0.25500000000E-02 0.  1.
    5000001    1    1    2    0    0 -0.70375402390E+02  0.16588201383E+02 -0.34358749682E+03  0.38795004015E+03  0.16500000000E+03 0.  0.
   -5000001    1    1    2    0    0  0.70375402390E+02 -0.16588201383E+02 -0.11113164737E+03  0.21166744845E+03  0.16500000000E+03 0.  0.
<mgrwt>
<rscale>  0 0.39086012E+03</rscale>
<asrwt>0</asrwt>
<pdfrwt beam="1">  1        2 0.75309757E-01 0.39086012E+03</pdfrwt>
<pdfrwt beam="2">  1       -2 0.10349882E-01 0.39086012E+03</pdfrwt>
<totfact> 0.40305709E+03</totfact>
</mgrwt>
</event>
<event>
 4    1  0.5531008E-005  0.6191183E+03  0.7818608E-02  0.9866517E-01
         -2   -1    0    0    0  501 -0.00000000000E+00  0.00000000000E+00  0.65807079659E+02  0.65807079709E+02  0.25500000000E-02 0. -1.
          2   -1    0    0  501    0  0.00000000000E+00 -0.00000000000E+00 -0.14561789134E+04  0.14561789134E+04  0.25500000000E-02 0.  1.
    5000001    1    1    2    0    0 -0.45021592511E+02  0.25794368187E+03 -0.67963916254E+03  0.74679065211E+03  0.16500000000E+03 0.  0.
   -5000001    1    1    2    0    0  0.45021592511E+02 -0.25794368187E+03 -0.71073267117E+03  0.77519534097E+03  0.16500000000E+03 0.  0.
<mgrwt>
<rscale>  0 0.61911835E+03</rscale>
<asrwt>0</asrwt>
<pdfrwt beam="1">  1        2 0.20802554E+00 0.61911835E+03</pdfrwt>
<pdfrwt beam="2">  1       -2 0.94010123E-02 0.61911835E+03</pdfrwt>
<totfact> 0.11861777E+03</totfact>
</mgrwt>
</event>
<event>
 4    1  0.5531008E-005  0.8118883E+03  0.7818608E-02  0.9542967E-01
          2   -1    0    0  501    0  0.00000000000E+00  0.00000000000E+00  0.97131230516E+03  0.97131230517E+03  0.25500000000E-02 0.  1.
         -2   -1    0    0    0  501 -0.00000000000E+00 -0.00000000000E+00 -0.16965773315E+03  0.16965773317E+03  0.25500000000E-02 0. -1.
    5000001    1    1    2    0    0 -0.28982763347E+03 -0.18354396371E+03  0.59895971989E+03  0.70969443410E+03  0.16500000000E+03 0.  0.
   -5000001    1    1    2    0    0  0.28982763347E+03  0.18354396371E+03  0.20269485211E+03  0.43127560424E+03  0.16500000000E+03 0.  0.
<mgrwt>
<rscale>  0 0.81188828E+03</rscale>
<asrwt>0</asrwt>
<pdfrwt beam="1">  1        2 0.13875890E+00 0.81188828E+03</pdfrwt>
<pdfrwt beam="2">  1       -2 0.24236819E-01 0.81188828E+03</pdfrwt>
<totfact> 0.44465119E+02</totfact>
</mgrwt>
</event>
<event>
 4    1  0.5531008E-005  0.5394015E+03  0.7818608E-02  0.1003977E+00
         -2   -1    0    0    0  501 -0.00000000000E+00  0.00000000000E+00  0.11498409215E+03  0.11498409217E+03  0.25500000000E-02 0. -1.
          2   -1    0    0  501    0  0.00000000000E+00 -0.00000000000E+00 -0.63259607889E+03  0.63259607890E+03  0.25500000000E-02 0.  1.
    5000001    1    1    2    0    0  0.20959187718E+03  0.21113203402E+02 -0.21203241966E+03  0.34140484666E+03  0.16500000000E+03 0.  0.
   -5000001    1    1    2    0    0 -0.20959187718E+03 -0.21113203402E+02 -0.30557956709E+03  0.40617532441E+03  0.16500000000E+03 0.  0.
<mgrwt>
<rscale>  0 0.53940147E+03</rscale>
<asrwt>0</asrwt>
<pdfrwt beam="1">  1        2 0.90370866E-01 0.53940147E+03</pdfrwt>
<pdfrwt beam="2">  1       -2 0.16426299E-01 0.53940147E+03</pdfrwt>
<totfact> 0.15273594E+03</totfact>
</mgrwt>
</event>
<event>
 4    1  0.5531008E-005  0.7503729E+03  0.7818608E-02  0.9634766E-01
         -2   -1    0    0    0  501 -0.00000000000E+00  0.00000000000E+00  0.89899678438E+02  0.89899678474E+02  0.25500000000E-02 0. -1.
          2   -1    0    0  501    0  0.00000000000E+00 -0.00000000000E+00 -0.15657994361E+04  0.15657994361E+04  0.25500000000E-02 0.  1.
    5000001    1    1    2    0    0  0.65949737785E+02 -0.24030535373E+03 -0.12384117016E+04  0.12739641178E+04  0.16500000000E+03 0.  0.
   -5000001    1    1    2    0    0 -0.65949737785E+02  0.24030535373E+03 -0.23748805608E+03  0.38173499673E+03  0.16500000000E+03 0.  0.
<mgrwt>
<rscale>  0 0.75037288E+03</rscale>
<asrwt>0</asrwt>
<pdfrwt beam="1">  1        2 0.22368562E+00 0.75037288E+03</pdfrwt>
<pdfrwt beam="2">  1       -2 0.12842812E-01 0.75037288E+03</pdfrwt>
<totfact> 0.61997388E+02</totfact>
</mgrwt>
</event>
<event>
 4    1  0.5531008E-005  0.3935249E+03  0.7818608E-02  0.1046045E+00
          2   -1    0    0  501    0  0.00000000000E+00  0.00000000000E+00  0.51619258005E+02  0.51619258068E+02  0.25500000000E-02 0.  1.
         -2   -1    0    0    0  501 -0.00000000000E+00 -0.00000000000E+00 -0.75001978554E+03  0.75001978554E+03  0.25500000000E-02 0. -1.
    5000001    1    1    2    0    0  0.93292855730E+02 -0.47735824390E+02 -0.30327797519E+03  0.36081130262E+03  0.16500000000E+03 0.  0.
   -5000001    1    1    2    0    0 -0.93292855730E+02  0.47735824390E+02 -0.39512255234E+03  0.44082774099E+03  0.16500000000E+03 0.  0.
<mgrwt>
<rscale>  0 0.39352492E+03</rscale>
<asrwt>0</asrwt>
<pdfrwt beam="1">  1        2 0.73741802E-02 0.39352492E+03</pdfrwt>
<pdfrwt beam="2">  1       -2 0.10714568E+00 0.39352492E+03</pdfrwt>
<totfact> 0.69315476E+02</totfact>
</mgrwt>
</event>
<event>
 4    1  0.5531008E-005  0.7003089E+03  0.7818608E-02  0.9716704E-01
          2   -1    0    0  501    0  0.00000000000E+00  0.00000000000E+00  0.71838161688E+03  0.71838161689E+03  0.25500000000E-02 0.  1.
         -2   -1    0    0    0  501 -0.00000000000E+00 -0.00000000000E+00 -0.17067272763E+03  0.17067272765E+03  0.25500000000E-02 0. -1.
    5000001    1    1    2    0    0 -0.13186734086E+03  0.39132782327E+02 -0.77191276995E+02  0.22826270716E+03  0.16500000000E+03 0.  0.
   -5000001    1    1    2    0    0  0.13186734086E+03 -0.39132782327E+02  0.62490016625E+03  0.66079163737E+03  0.16500000000E+03 0.  0.
<mgrwt>
<rscale>  0 0.70030893E+03</rscale>
<asrwt>0</asrwt>
<pdfrwt beam="1">  1        2 0.10262595E+00 0.70030893E+03</pdfrwt>
<pdfrwt beam="2">  1       -2 0.24381818E-01 0.70030893E+03</pdfrwt>
<totfact> 0.65588348E+02</totfact>
</mgrwt>
</event>
<event>
 4    1  0.5531008E-005  0.3901945E+03  0.7818608E-02  0.1047229E+00
         -2   -1    0    0    0  501 -0.00000000000E+00  0.00000000000E+00  0.47127556857E+03  0.47127556858E+03  0.25500000000E-02 0. -1.
          2   -1    0    0  501    0  0.00000000000E+00 -0.00000000000E+00 -0.80765773388E+02  0.80765773428E+02  0.25500000000E-02 0.  1.
    5000001    1    1    2    0    0 -0.91728051136E+01  0.39469482973E+02  0.59583314360E+02  0.18004763756E+03  0.16500000000E+03 0.  0.
   -5000001    1    1    2    0    0  0.91728051136E+01 -0.39469482973E+02  0.33092648083E+03  0.37199370445E+03  0.16500000000E+03 0.  0.
<mgrwt>
<rscale>  0 0.39019449E+03</rscale>
<asrwt>0</asrwt>
<pdfrwt beam="1">  1        2 0.11537968E-01 0.39019449E+03</pdfrwt>
<pdfrwt beam="2">  1       -2 0.67325080E-01 0.39019449E+03</pdfrwt>
<totfact> 0.11205293E+03</totfact>
</mgrwt>
</event>
<event>
 4    1  0.5531008E-005  0.7494509E+03  0.7818608E-02  0.9636212E-01
          2   -1    0    0  501    0  0.00000000000E+00  0.00000000000E+00  0.15678683916E+03  0.15678683918E+03  0.25500000000E-02 0.  1.
         -2   -1    0    0    0  501 -0.00000000000E+00 -0.00000000000E+00 -0.89560552814E+03  0.89560552815E+03  0.25500000000E-02 0. -1.
    5000001    1    1    2    0    0 -0.16243390855E+03  0.11704850198E+03 -0.74909136313E+03  0.79274712032E+03  0.16500000000E+03 0.  0.
   -5000001    1    1    2    0    0  0.16243390855E+03 -0.11704850198E+03  0.10272674144E+02  0.25964524701E+03  0.16500000000E+03 0.  0.
<mgrwt>
<rscale>  0 0.74945089E+03</rscale>
<asrwt>0</asrwt>
<pdfrwt beam="1">  1        2 0.22398120E-01 0.74945089E+03</pdfrwt>
<pdfrwt beam="2">  1       -2 0.12794364E+00 0.74945089E+03</pdfrwt>
<totfact> 0.11362604E+02</totfact>
</mgrwt>
</event>
<event>
 4    1  0.5531008E-005  0.5325960E+03  0.7818608E-02  0.1005605E+00
         -2   -1    0    0    0  501 -0.00000000000E+00  0.00000000000E+00  0.56722343130E+03  0.56722343131E+03  0.25500000000E-02 0. -1.
          2   -1    0    0  501    0  0.00000000000E+00 -0.00000000000E+00 -0.12502060105E+03  0.12502060107E+03  0.25500000000E-02 0.  1.
    5000001    1    1    2    0    0 -0.18438672943E+03 -0.62943025731E+02  0.12272000624E+03  0.28327634989E+03  0.16500000000E+03 0.  0.
   -5000001    1    1    2    0    0  0.18438672943E+03  0.62943025731E+02  0.31948282402E+03  0.40896768249E+03  0.16500000000E+03 0.  0.
<mgrwt>
<rscale>  0 0.53259596E+03</rscale>
<asrwt>0</asrwt>
<pdfrwt beam="1">  1        2 0.17860086E-01 0.53259596E+03</pdfrwt>
<pdfrwt beam="2">  1       -2 0.81031919E-01 0.53259596E+03</pdfrwt>
<totfact> 0.44051500E+02</totfact>
</mgrwt>
</event>
<event>
 4    1  0.5531008E-005  0.7304227E+03  0.7818608E-02  0.9666575E-01
         -2   -1    0    0    0  501 -0.00000000000E+00  0.00000000000E+00  0.50403892769E+03  0.50403892770E+03  0.25500000000E-02 0.  1.
          2   -1    0    0  501    0  0.00000000000E+00 -0.00000000000E+00 -0.26462107412E+03  0.26462107413E+03  0.25500000000E-02 0. -1.
    5000001    1    1    2    0    0  0.27904832083E+03  0.16817353842E+03  0.11759947930E+03  0.38367296219E+03  0.16500000000E+03 0.  0.
   -5000001    1    1    2    0    0 -0.27904832083E+03 -0.16817353842E+03  0.12181837428E+03  0.38498703964E+03  0.16500000000E+03 0.  0.
<mgrwt>
<rscale>  0 0.73042268E+03</rscale>
<asrwt>0</asrwt>
<pdfrwt beam="1">  1        2 0.37803011E-01 0.73042268E+03</pdfrwt>
<pdfrwt beam="2">  1       -2 0.72005560E-01 0.73042268E+03</pdfrwt>
<totfact> 0.24184151E+02</totfact>
</mgrwt>
</event>
<event>
 4    1  0.5531008E-005  0.3593288E+03  0.7818608E-02  0.1058850E+00
         -2   -1    0    0    0  501 -0.00000000000E+00  0.00000000000E+00  0.33977053832E+02  0.33977053928E+02  0.25500000000E-02 0. -1.
          2   -1    0    0  501    0  0.00000000000E+00 -0.00000000000E+00 -0.95003207588E+03  0.95003207589E+03  0.25500000000E-02 0.  1.
    5000001    1    1    2    0    0  0.21406117382E+02 -0.64414976124E+02 -0.51591090814E+03  0.54589062655E+03  0.16500000000E+03 0.  0.
   -5000001    1    1    2    0    0 -0.21406117382E+02  0.64414976124E+02 -0.40014411391E+03  0.43811850327E+03  0.16500000000E+03 0.  0.
<mgrwt>
<rscale>  0 0.35932877E+03</rscale>
<asrwt>0</asrwt>
<pdfrwt beam="1">  1        2 0.13571885E+00 0.35932877E+03</pdfrwt>
<pdfrwt beam="2">  1       -2 0.48538655E-02 0.35932877E+03</pdfrwt>
<totfact> 0.64296932E+03</totfact>
</mgrwt>
</event>
<event>
 4    1  0.5531008E-005  0.7637292E+03  0.7818608E-02  0.9614054E-01
         -2   -1    0    0    0  501 -0.00000000000E+00  0.00000000000E+00  0.47873599645E+03  0.47873599646E+03  0.25500000000E-02 0. -1.
          2   -1    0    0  501    0  0.00000000000E+00 -0.00000000000E+00 -0.30459499280E+03  0.30459499281E+03  0.25500000000E-02 0.  1.
    5000001    1    1    2    0    0  0.77746253637E+02  0.29734261392E+03  0.24642371566E+03  0.42709104140E+03  0.16500000000E+03 0.  0.
   -5000001    1    1    2    0    0 -0.77746253637E+02 -0.29734261392E+03 -0.72282712007E+02  0.35623994787E+03  0.16500000000E+03 0.  0.
<mgrwt>
<rscale>  0 0.76372924E+03</rscale>
<asrwt>0</asrwt>
<pdfrwt beam="1">  1        2 0.43513571E-01 0.76372924E+03</pdfrwt>
<pdfrwt beam="2">  1       -2 0.68390855E-01 0.76372924E+03</pdfrwt>
<totfact> 0.23118359E+02</totfact>
</mgrwt>
</event>
<event>
 4    1  0.5531008E-005  0.4984327E+03  0.7818608E-02  0.1014189E+00
         -2   -1    0    0    0  501 -0.00000000000E+00  0.00000000000E+00  0.19610292692E+03  0.19610292693E+03  0.25500000000E-02 0. -1.
          2   -1    0    0  501    0  0.00000000000E+00 -0.00000000000E+00 -0.31671530858E+03  0.31671530859E+03  0.25500000000E-02 0.  1.
    5000001    1    1    2    0    0  0.73550112145E+02  0.17067531493E+03 -0.79391970050E+02  0.26089800121E+03  0.16500000000E+03 0.  0.
   -5000001    1    1    2    0    0 -0.73550112145E+02 -0.17067531493E+03 -0.41220411607E+02  0.25192023432E+03  0.16500000000E+03 0.  0.
<mgrwt>
<rscale>  0 0.49843274E+03</rscale>
<asrwt>0</asrwt>
<pdfrwt beam="1">  1        2 0.45245044E-01 0.49843274E+03</pdfrwt>
<pdfrwt beam="2">  1       -2 0.28014704E-01 0.49843274E+03</pdfrwt>
<totfact> 0.13044020E+03</totfact>
</mgrwt>
</event>
<event>
 4    1  0.5531008E-005  0.1085252E+04  0.7818608E-02  0.9219687E-01
          2   -1    0    0  501    0  0.00000000000E+00  0.00000000000E+00  0.17054224903E+04  0.17054224903E+04  0.25500000000E-02 0.  1.
         -2   -1    0    0    0  501 -0.00000000000E+00 -0.00000000000E+00 -0.17265090601E+03  0.17265090603E+03  0.25500000000E-02 0. -1.
    5000001    1    1    2    0    0 -0.29146545267E+03 -0.38276500145E+03  0.43915049848E+03  0.67196675272E+03  0.16500000000E+03 0.  0.
   -5000001    1    1    2    0    0  0.29146545267E+03  0.38276500145E+03  0.10936210859E+04  0.12061066437E+04  0.16500000000E+03 0.  0.
<mgrwt>
<rscale>  0 0.10852516E+04</rscale>
<asrwt>0</asrwt>
<pdfrwt beam="1">  1        2 0.24363179E+00 0.10852516E+04</pdfrwt>
<pdfrwt beam="2">  1       -2 0.24664415E-01 0.10852516E+04</pdfrwt>
<totfact> 0.16629777E+02</totfact>
</mgrwt>
</event>
<event>
 4    1  0.5531008E-005  0.1072267E+04  0.7818608E-02  0.9232652E-01
         -2   -1    0    0    0  501 -0.00000000000E+00  0.00000000000E+00  0.18200404782E+03  0.18200404783E+03  0.25500000000E-02 0. -1.
          2   -1    0    0  501    0  0.00000000000E+00 -0.00000000000E+00 -0.15793015742E+04  0.15793015742E+04  0.25500000000E-02 0.  1.
    5000001    1    1    2    0    0  0.42183903222E+03 -0.27378532447E+03 -0.55823094885E+03  0.76925507165E+03  0.16500000000E+03 0.  0.
   -5000001    1    1    2    0    0 -0.42183903222E+03  0.27378532447E+03 -0.83906657757E+03  0.99205055043E+03  0.16500000000E+03 0.  0.
<mgrwt>
<rscale>  0 0.10722673E+04</rscale>
<asrwt>0</asrwt>
<pdfrwt beam="1">  1        2 0.22561450E+00 0.10722673E+04</pdfrwt>
<pdfrwt beam="2">  1       -2 0.26000579E-01 0.10722673E+04</pdfrwt>
<totfact> 0.17594333E+02</totfact>
</mgrwt>
</event>
<event>
 4    1  0.5531008E-005  0.1191852E+04  0.7818608E-02  0.9120019E-01
          2   -1    0    0  501    0  0.00000000000E+00  0.00000000000E+00  0.62881377077E+03  0.62881377077E+03  0.25500000000E-02 0.  1.
         -2   -1    0    0    0  501 -0.00000000000E+00 -0.00000000000E+00 -0.56475824042E+03  0.56475824043E+03  0.25500000000E-02 0. -1.
    5000001    1    1    2    0    0  0.51480155155E+03  0.23961134635E+03  0.10608395774E+03  0.60076038557E+03  0.16500000000E+03 0.  0.
   -5000001    1    1    2    0    0 -0.51480155155E+03 -0.23961134635E+03 -0.42028427392E+02  0.59281162563E+03  0.16500000000E+03 0.  0.
<mgrwt>
<rscale>  0 0.11918519E+04</rscale>
<asrwt>0</asrwt>
<pdfrwt beam="1">  1        2 0.89830539E-01 0.11918519E+04</pdfrwt>
<pdfrwt beam="2">  1       -2 0.80679748E-01 0.11918519E+04</pdfrwt>
<totfact> 0.68780587E+01</totfact>
</mgrwt>
</event>
<event>
 4    1  0.5531008E-005  0.7917141E+03  0.7818608E-02  0.9572089E-01
          2   -1    0    0  501    0  0.00000000000E+00  0.00000000000E+00  0.68320933254E+03  0.68320933255E+03  0.25500000000E-02 0.  1.
         -2   -1    0    0    0  501 -0.00000000000E+00 -0.00000000000E+00 -0.22936279775E+03  0.22936279777E+03  0.25500000000E-02 0. -1.
    5000001    1    1    2    0    0  0.22516181295E+03 -0.23620049065E+03  0.40169114132E+03  0.54320280449E+03  0.16500000000E+03 0.  0.
   -5000001    1    1    2    0    0 -0.22516181295E+03  0.23620049065E+03  0.52155393471E+02  0.36936932582E+03  0.16500000000E+03 0.  0.
<mgrwt>
<rscale>  0 0.79171410E+03</rscale>
<asrwt>0</asrwt>
<pdfrwt beam="1">  1        2 0.97601334E-01 0.79171410E+03</pdfrwt>
<pdfrwt beam="2">  1       -2 0.32766114E-01 0.79171410E+03</pdfrwt>
<totfact> 0.40423721E+02</totfact>
</mgrwt>
</event>
<event>
 4    1  0.5531008E-005  0.5049504E+03  0.7818608E-02  0.1012495E+00
         -2   -1    0    0    0  501 -0.00000000000E+00  0.00000000000E+00  0.70426493170E+03  0.70426493171E+03  0.25500000000E-02 0. -1.
          2   -1    0    0  501    0  0.00000000000E+00 -0.00000000000E+00 -0.90511003738E+02  0.90511003774E+02  0.25500000000E-02 0.  1.
    5000001    1    1    2    0    0  0.24369983339E+02 -0.18832178740E+03  0.27312885916E+03  0.37132649435E+03  0.16500000000E+03 0.  0.
   -5000001    1    1    2    0    0 -0.24369983339E+02  0.18832178740E+03  0.34062506881E+03  0.42344944113E+03  0.16500000000E+03 0.  0.
<mgrwt>
<rscale>  0 0.50495040E+03</rscale>
<asrwt>0</asrwt>
<pdfrwt beam="1">  1        2 0.12930144E-01 0.50495040E+03</pdfrwt>
<pdfrwt beam="2">  1       -2 0.10060927E+00 0.50495040E+03</pdfrwt>
<totfact> 0.39596830E+02</totfact>
</mgrwt>
</event>
<event>
 4    1  0.5531008E-005  0.4755697E+03  0.7818608E-02  0.1020360E+00
          2   -1    0    0  501    0  0.00000000000E+00  0.00000000000E+00  0.53399572378E+03  0.53399572379E+03  0.25500000000E-02 0.  1.
         -2   -1    0    0    0  501 -0.00000000000E+00 -0.00000000000E+00 -0.10588406500E+03  0.10588406503E+03  0.25500000000E-02 0. -1.
    5000001    1    1    2    0    0  0.76346610699E+01 -0.12067277700E+03  0.50942241300E+02  0.21080872636E+03  0.16500000000E+03 0.  0.
   -5000001    1    1    2    0    0 -0.76346610699E+01  0.12067277700E+03  0.37716941749E+03  0.42907106247E+03  0.16500000000E+03 0.  0.
<mgrwt>
<rscale>  0 0.47556971E+03</rscale>
<asrwt>0</asrwt>
<pdfrwt beam="1">  1        2 0.76285104E-01 0.47556971E+03</pdfrwt>
<pdfrwt beam="2">  1       -2 0.15126295E-01 0.47556971E+03</pdfrwt>
<totfact> 0.21365903E+03</totfact>
</mgrwt>
</event>
<event>
 4    1  0.5531008E-005  0.9684292E+03  0.7818608E-02  0.9343865E-01
          2   -1    0    0  501    0  0.00000000000E+00  0.00000000000E+00  0.66921195324E+03  0.66921195324E+03  0.25500000000E-02 0.  1.
         -2   -1    0    0    0  501 -0.00000000000E+00 -0.00000000000E+00 -0.35035803437E+03  0.35035803438E+03  0.25500000000E-02 0. -1.
    5000001    1    1    2    0    0  0.28385879831E+03  0.34211009977E+03  0.26270761817E+03  0.54208433881E+03  0.16500000000E+03 0.  0.
   -5000001    1    1    2    0    0 -0.28385879831E+03 -0.34211009977E+03  0.56146300700E+02  0.47748564881E+03  0.16500000000E+03 0.  0.
<mgrwt>
<rscale>  0 0.96842921E+03</rscale>
<asrwt>0</asrwt>
<pdfrwt beam="1">  1        2 0.95601707E-01 0.96842921E+03</pdfrwt>
<pdfrwt beam="2">  1       -2 0.50051148E-01 0.96842921E+03</pdfrwt>
<totfact> 0.17958702E+02</totfact>
</mgrwt>
</event>
<event>
 4    1  0.5531008E-005  0.4808489E+03  0.7818608E-02  0.1018902E+00
         -2   -1    0    0    0  501 -0.00000000000E+00  0.00000000000E+00  0.26160478318E+03  0.26160478320E+03  0.25500000000E-02 0. -1.
          2   -1    0    0  501    0  0.00000000000E+00 -0.00000000000E+00 -0.22095892334E+03  0.22095892335E+03  0.25500000000E-02 0.  1.
    5000001    1    1    2    0    0  0.13676119567E+03 -0.10848280202E+03  0.99532072688E+01  0.24040842188E+03  0.16500000000E+03 0.  0.
   -5000001    1    1    2    0    0 -0.13676119567E+03  0.10848280202E+03  0.30692652575E+02  0.24215528467E+03  0.16500000000E+03 0.  0.
<mgrwt>
<rscale>  0 0.48084888E+03</rscale>
<asrwt>0</asrwt>
<pdfrwt beam="1">  1        2 0.31565560E-01 0.48084888E+03</pdfrwt>
<pdfrwt beam="2">  1       -2 0.37372112E-01 0.48084888E+03</pdfrwt>
<totfact> 0.11339389E+03</totfact>
</mgrwt>
</event>
<event>
 4    1  0.5531008E-005  0.4661377E+03  0.7818608E-02  0.1023016E+00
         -2   -1    0    0    0  501 -0.00000000000E+00  0.00000000000E+00  0.66246462126E+02  0.66246462175E+02  0.25500000000E-02 0. -1.
          2   -1    0    0  501    0  0.00000000000E+00 -0.00000000000E+00 -0.81998477510E+03  0.81998477510E+03  0.25500000000E-02 0.  1.
    5000001    1    1    2    0    0  0.49196780424E+02  0.15620360121E+03 -0.34527212112E+03  0.41624238835E+03  0.16500000000E+03 0.  0.
   -5000001    1    1    2    0    0 -0.49196780424E+02 -0.15620360121E+03 -0.40846619185E+03  0.46998884893E+03  0.16500000000E+03 0.  0.
<mgrwt>
<rscale>  0 0.46613771E+03</rscale>
<asrwt>0</asrwt>
<pdfrwt beam="1">  1        2 0.11714068E+00 0.46613771E+03</pdfrwt>
<pdfrwt beam="2">  1       -2 0.94637808E-02 0.46613771E+03</pdfrwt>
<totfact> 0.27534408E+03</totfact>
</mgrwt>
</event>
<event>
 4    1  0.5531008E-005  0.1283637E+04  0.7818608E-02  0.9042643E-01
         -2   -1    0    0    0  501 -0.00000000000E+00  0.00000000000E+00  0.10278057345E+04  0.10278057345E+04  0.25500000000E-02 0. -1.
          2   -1    0    0  501    0  0.00000000000E+00 -0.00000000000E+00 -0.40078670879E+03  0.40078670880E+03  0.25500000000E-02 0.  1.
    5000001    1    1    2    0    0 -0.40026317014E+03 -0.46733383828E+03  0.40039156778E+03  0.75242935171E+03  0.16500000000E+03 0.  0.
   -5000001    1    1    2    0    0  0.40026317014E+03  0.46733383828E+03  0.22662745796E+03  0.67616309162E+03  0.16500000000E+03 0.  0.
<mgrwt>
<rscale>  0 0.12836368E+04</rscale>
<asrwt>0</asrwt>
<pdfrwt beam="1">  1        2 0.57255246E-01 0.12836368E+04</pdfrwt>
<pdfrwt beam="2">  1       -2 0.14682939E+00 0.12836368E+04</pdfrwt>
<totfact> 0.26856189E+01</totfact>
</mgrwt>
</event>
<event>
 4    1  0.5531008E-005  0.4890221E+03  0.7818608E-02  0.1016685E+00
          2   -1    0    0  501    0  0.00000000000E+00  0.00000000000E+00  0.49455048997E+03  0.49455048998E+03  0.25500000000E-02 0.  1.
         -2   -1    0    0    0  501 -0.00000000000E+00 -0.00000000000E+00 -0.12088885277E+03  0.12088885280E+03  0.25500000000E-02 0. -1.
    5000001    1    1    2    0    0  0.10931514457E+03 -0.13406760468E+03  0.25145404684E+03  0.34695541663E+03  0.16500000000E+03 0.  0.
   -5000001    1    1    2    0    0 -0.10931514457E+03  0.13406760468E+03  0.12220759035E+03  0.26848392614E+03  0.16500000000E+03 0.  0.
<mgrwt>
<rscale>  0 0.48902205E+03</rscale>
<asrwt>0</asrwt>
<pdfrwt beam="1">  1        2 0.70650070E-01 0.48902205E+03</pdfrwt>
<pdfrwt beam="2">  1       -2 0.17269836E-01 0.48902205E+03</pdfrwt>
<totfact> 0.18638358E+03</totfact>
</mgrwt>
</event>
<event>
 4    1  0.5531008E-005  0.4946189E+03  0.7818608E-02  0.1015193E+00
         -2   -1    0    0    0  501 -0.00000000000E+00  0.00000000000E+00  0.12223768930E+03  0.12223768933E+03  0.25500000000E-02 0. -1.
          2   -1    0    0  501    0  0.00000000000E+00 -0.00000000000E+00 -0.50035279031E+03  0.50035279031E+03  0.25500000000E-02 0.  1.
    5000001    1    1    2    0    0  0.17967975955E+03 -0.26954375248E+01 -0.13800706710E+03  0.28029097728E+03  0.16500000000E+03 0.  0.
   -5000001    1    1    2    0    0 -0.17967975955E+03  0.26954375248E+01 -0.24010803390E+03  0.34229950236E+03  0.16500000000E+03 0.  0.
<mgrwt>
<rscale>  0 0.49461892E+03</rscale>
<asrwt>0</asrwt>
<pdfrwt beam="1">  1        2 0.71478969E-01 0.49461892E+03</pdfrwt>
<pdfrwt beam="2">  1       -2 0.17462527E-01 0.49461892E+03</pdfrwt>
<totfact> 0.18051089E+03</totfact>
</mgrwt>
</event>
<event>
 4    1  0.5531008E-005  0.7491229E+03  0.7818608E-02  0.9636727E-01
         -2   -1    0    0    0  501 -0.00000000000E+00  0.00000000000E+00  0.47690320227E+03  0.47690320227E+03  0.25500000000E-02 0.  1.
          2   -1    0    0  501    0  0.00000000000E+00 -0.00000000000E+00 -0.29418185836E+03  0.29418185837E+03  0.25500000000E-02 0. -1.
    5000001    1    1    2    0    0  0.26661390604E+03 -0.18091498028E+03  0.19040037984E+03  0.40901162530E+03  0.16500000000E+03 0.  0.
   -5000001    1    1    2    0    0 -0.26661390604E+03  0.18091498028E+03 -0.76790359291E+01  0.36207343534E+03  0.16500000000E+03 0.  0.
<mgrwt>
<rscale>  0 0.74912287E+03</rscale>
<asrwt>0</asrwt>
<pdfrwt beam="1">  1        2 0.42025980E-01 0.74912287E+03</pdfrwt>
<pdfrwt beam="2">  1       -2 0.68129029E-01 0.74912287E+03</pdfrwt>
<totfact> 0.24240853E+02</totfact>
</mgrwt>
</event>
<event>
 4    1  0.5531008E-005  0.5319390E+03  0.7818608E-02  0.1005763E+00
          2   -1    0    0  501    0  0.00000000000E+00  0.00000000000E+00  0.75319346343E+03  0.75319346343E+03  0.25500000000E-02 0.  1.
         -2   -1    0    0    0  501 -0.00000000000E+00 -0.00000000000E+00 -0.93919807168E+02  0.93919807203E+02  0.25500000000E-02 0. -1.
    5000001    1    1    2    0    0 -0.16469334710E+03 -0.87367077105E+02  0.47866868768E+03  0.53954204406E+03  0.16500000000E+03 0.  0.
   -5000001    1    1    2    0    0  0.16469334710E+03  0.87367077105E+02  0.18060496858E+03  0.30757122657E+03  0.16500000000E+03 0.  0.
<mgrwt>
<rscale>  0 0.53193904E+03</rscale>
<asrwt>0</asrwt>
<pdfrwt beam="1">  1        2 0.10759907E+00 0.53193904E+03</pdfrwt>
<pdfrwt beam="2">  1       -2 0.13417115E-01 0.53193904E+03</pdfrwt>
<totfact> 0.17350898E+03</totfact>
</mgrwt>
</event>
<event>
 4    1  0.5531008E-005  0.6191743E+03  0.7818608E-02  0.9866405E-01
          2   -1    0    0  501    0  0.00000000000E+00  0.00000000000E+00  0.44646705015E+03  0.44646705016E+03  0.25500000000E-02 0.  1.
         -2   -1    0    0    0  501 -0.00000000000E+00 -0.00000000000E+00 -0.21467248357E+03  0.21467248358E+03  0.25500000000E-02 0. -1.
    5000001    1    1    2    0    0 -0.21955213345E+03 -0.56717910819E+02 -0.24136709322E+02  0.28147405111E+03  0.16500000000E+03 0.  0.
   -5000001    1    1    2    0    0  0.21955213345E+03  0.56717910819E+02  0.25593127591E+03  0.37966548263E+03  0.16500000000E+03 0.  0.
<mgrwt>
<rscale>  0 0.61917426E+03</rscale>
<asrwt>0</asrwt>
<pdfrwt beam="1">  1        2 0.63781007E-01 0.61917426E+03</pdfrwt>
<pdfrwt beam="2">  1       -2 0.30667498E-01 0.61917426E+03</pdfrwt>
<totfact> 0.75475682E+02</totfact>
</mgrwt>
</event>
<event>
 4    1  0.5531008E-005  0.4927922E+03  0.7818608E-02  0.1015678E+00
         -2   -1    0    0    0  501 -0.00000000000E+00  0.00000000000E+00  0.27198395552E+02  0.27198395671E+02  0.25500000000E-02 0. -1.
          2   -1    0    0  501    0  0.00000000000E+00 -0.00000000000E+00 -0.22321554010E+04  0.22321554010E+04  0.25500000000E-02 0.  1.
    5000001    1    1    2    0    0 -0.82208249626E+02  0.99773990833E+02 -0.16962587770E+04  0.17091611639E+04  0.16500000000E+03 0.  0.
   -5000001    1    1    2    0    0  0.82208249626E+02 -0.99773990833E+02 -0.50869822840E+03  0.55019263275E+03  0.16500000000E+03 0.  0.
<mgrwt>
<rscale>  0 0.49279223E+03</rscale>
<asrwt>0</asrwt>
<pdfrwt beam="1">  1        2 0.31887923E+00 0.49279223E+03</pdfrwt>
<pdfrwt beam="2">  1       -2 0.38854865E-02 0.49279223E+03</pdfrwt>
<totfact> 0.19266584E+03</totfact>
</mgrwt>
</event>
<event>
 4    1  0.5531008E-005  0.9324411E+03  0.7818608E-02  0.9385913E-01
          2   -1    0    0  501    0  0.00000000000E+00  0.00000000000E+00  0.35218417606E+03  0.35218417607E+03  0.25500000000E-02 0.  1.
         -2   -1    0    0    0  501 -0.00000000000E+00 -0.00000000000E+00 -0.61718157095E+03  0.61718157095E+03  0.25500000000E-02 0. -1.
    5000001    1    1    2    0    0 -0.29748549390E+03 -0.30817954797E+03 -0.47630587012E+02  0.46148231352E+03  0.16500000000E+03 0.  0.
   -5000001    1    1    2    0    0  0.29748549390E+03  0.30817954797E+03 -0.21736680787E+03  0.50788343351E+03  0.16500000000E+03 0.  0.
<mgrwt>
<rscale>  0 0.93244106E+03</rscale>
<asrwt>0</asrwt>
<pdfrwt beam="1">  1        2 0.50312025E-01 0.93244106E+03</pdfrwt>
<pdfrwt beam="2">  1       -2 0.88168795E-01 0.93244106E+03</pdfrwt>
<totfact> 0.11077613E+02</totfact>
</mgrwt>
</event>
<event>
 4    1  0.5531008E-005  0.8348209E+03  0.7818608E-02  0.9510939E-01
         -2   -1    0    0    0  501 -0.00000000000E+00  0.00000000000E+00  0.20037135326E+03  0.20037135327E+03  0.25500000000E-02 0. -1.
          2   -1    0    0  501    0  0.00000000000E+00 -0.00000000000E+00 -0.86954294115E+03  0.86954294115E+03  0.25500000000E-02 0.  1.
    5000001    1    1    2    0    0 -0.12850785187E+03  0.65648120037E+02 -0.78984141342E+03  0.81969409051E+03  0.16500000000E+03 0.  0.
   -5000001    1    1    2    0    0  0.12850785187E+03 -0.65648120037E+02  0.12066982553E+03  0.25022020392E+03  0.16500000000E+03 0.  0.
<mgrwt>
<rscale>  0 0.83482093E+03</rscale>
<asrwt>0</asrwt>
<pdfrwt beam="1">  1        2 0.12422042E+00 0.83482093E+03</pdfrwt>
<pdfrwt beam="2">  1       -2 0.28624479E-01 0.83482093E+03</pdfrwt>
<totfact> 0.38168833E+02</totfact>
</mgrwt>
</event>
<event>
 4    1  0.5531008E-005  0.3999141E+03  0.7818608E-02  0.1043809E+00
          2   -1    0    0  501    0  0.00000000000E+00  0.00000000000E+00  0.65384062697E+03  0.65384062697E+03  0.25500000000E-02 0.  1.
         -2   -1    0    0    0  501 -0.00000000000E+00 -0.00000000000E+00 -0.61150727684E+02  0.61150727737E+02  0.25500000000E-02 0. -1.
    5000001    1    1    2    0    0  0.10479136150E+03 -0.22236850224E+02  0.23232742053E+03  0.30442854216E+03  0.16500000000E+03 0.  0.
   -5000001    1    1    2    0    0 -0.10479136150E+03  0.22236850224E+02  0.36036247876E+03  0.41056281255E+03  0.16500000000E+03 0.  0.
<mgrwt>
<rscale>  0 0.39991414E+03</rscale>
<asrwt>0</asrwt>
<pdfrwt beam="1">  1        2 0.93405800E-01 0.39991414E+03</pdfrwt>
<pdfrwt beam="2">  1       -2 0.87358186E-02 0.39991414E+03</pdfrwt>
<totfact> 0.41233780E+03</totfact>
</mgrwt>
</event>
<event>
 4    1  0.5531008E-005  0.3947433E+03  0.7818608E-02  0.1045615E+00
         -2   -1    0    0    0  501 -0.00000000000E+00  0.00000000000E+00  0.26965564641E+02  0.26965564762E+02  0.25500000000E-02 0. -1.
          2   -1    0    0  501    0  0.00000000000E+00 -0.00000000000E+00 -0.14446414093E+04  0.14446414093E+04  0.25500000000E-02 0.  1.
    5000001    1    1    2    0    0  0.10021983983E+03  0.35980049612E+02 -0.78264791658E+03  0.80690850881E+03  0.16500000000E+03 0.  0.
   -5000001    1    1    2    0    0 -0.10021983983E+03 -0.35980049612E+02 -0.63502792804E+03  0.66469846521E+03  0.16500000000E+03 0.  0.
<mgrwt>
<rscale>  0 0.39474332E+03</rscale>
<asrwt>0</asrwt>
<pdfrwt beam="1">  1        2 0.20637730E+00 0.39474332E+03</pdfrwt>
<pdfrwt beam="2">  1       -2 0.38522244E-02 0.39474332E+03</pdfrwt>
<totfact> 0.48618677E+03</totfact>
</mgrwt>
</event>
<event>
 4    1  0.5531008E-005  0.9983959E+03  0.7818608E-02  0.9310306E-01
         -2   -1    0    0    0  501 -0.00000000000E+00  0.00000000000E+00  0.34220303727E+03  0.34220303728E+03  0.25500000000E-02 0. -1.
          2   -1    0    0  501    0  0.00000000000E+00 -0.00000000000E+00 -0.72821848992E+03  0.72821848993E+03  0.25500000000E-02 0.  1.
    5000001    1    1    2    0    0  0.17714836534E+03 -0.40508444616E+03 -0.36753517728E+03  0.59814885973E+03  0.16500000000E+03 0.  0.
   -5000001    1    1    2    0    0 -0.17714836534E+03  0.40508444616E+03 -0.18480275381E+02  0.47227266747E+03  0.16500000000E+03 0.  0.
<mgrwt>
<rscale>  0 0.99839587E+03</rscale>
<asrwt>0</asrwt>
<pdfrwt beam="1">  1        2 0.10403121E+00 0.99839587E+03</pdfrwt>
<pdfrwt beam="2">  1       -2 0.48886148E-01 0.99839587E+03</pdfrwt>
<totfact> 0.16943519E+02</totfact>
</mgrwt>
</event>
<event>
 4    1  0.5531008E-005  0.4766825E+03  0.7818608E-02  0.1020051E+00
         -2   -1    0    0    0  501 -0.00000000000E+00  0.00000000000E+00  0.87697094935E+02  0.87697094972E+02  0.25500000000E-02 0. -1.
          2   -1    0    0  501    0  0.00000000000E+00 -0.00000000000E+00 -0.64775856813E+03  0.64775856814E+03  0.25500000000E-02 0.  1.
    5000001    1    1    2    0    0  0.14132708073E+03 -0.27975042881E+02 -0.13508702368E+03  0.25735083202E+03  0.16500000000E+03 0.  0.
   -5000001    1    1    2    0    0 -0.14132708073E+03  0.27975042881E+02 -0.42497444952E+03  0.47810483109E+03  0.16500000000E+03 0.  0.
<mgrwt>
<rscale>  0 0.47668247E+03</rscale>
<asrwt>0</asrwt>
<pdfrwt beam="1">  1        2 0.92536936E-01 0.47668247E+03</pdfrwt>
<pdfrwt beam="2">  1       -2 0.12528157E-01 0.47668247E+03</pdfrwt>
<totfact> 0.23336842E+03</totfact>
</mgrwt>
</event>
<event>
 4    1  0.5531008E-005  0.5006305E+03  0.7818608E-02  0.1013614E+00
         -2   -1    0    0    0  501 -0.00000000000E+00  0.00000000000E+00  0.22937040074E+03  0.22937040075E+03  0.25500000000E-02 0. -1.
          2   -1    0    0  501    0  0.00000000000E+00 -0.00000000000E+00 -0.27317263741E+03  0.27317263742E+03  0.25500000000E-02 0.  1.
    5000001    1    1    2    0    0  0.67972437380E+02  0.82840796908E+02 -0.17724978776E+03  0.26481189010E+03  0.16500000000E+03 0.  0.
   -5000001    1    1    2    0    0 -0.67972437380E+02 -0.82840796908E+02  0.13344755108E+03  0.23773114808E+03  0.16500000000E+03 0.  0.
<mgrwt>
<rscale>  0 0.50063047E+03</rscale>
<asrwt>0</asrwt>
<pdfrwt beam="1">  1        2 0.39024662E-01 0.50063047E+03</pdfrwt>
<pdfrwt beam="2">  1       -2 0.32767200E-01 0.50063047E+03</pdfrwt>
<totfact> 0.11494966E+03</totfact>
</mgrwt>
</event>
<event>
 4    1  0.5531008E-005  0.6709563E+03  0.7818608E-02  0.9768232E-01
          2   -1    0    0  501    0  0.00000000000E+00  0.00000000000E+00  0.37958414335E+04  0.37958414335E+04  0.25500000000E-02 0.  1.
         -2   -1    0    0    0  501 -0.00000000000E+00 -0.00000000000E+00 -0.29649706558E+02  0.29649706668E+02  0.25500000000E-02 0. -1.
    5000001    1    1    2    0    0  0.14807809917E+03  0.22296305248E+03  0.12162109066E+04  0.12561980798E+04  0.16500000000E+03 0.  0.
   -5000001    1    1    2    0    0 -0.14807809917E+03 -0.22296305248E+03  0.25499808203E+04  0.25692930604E+04  0.16500000000E+03 0.  0.
<mgrwt>
<rscale>  0 0.67095629E+03</rscale>
<asrwt>0</asrwt>
<pdfrwt beam="1">  1        2 0.54226259E+00 0.67095629E+03</pdfrwt>
<pdfrwt beam="2">  1       -2 0.42356760E-02 0.67095629E+03</pdfrwt>
<totfact> 0.22709889E+02</totfact>
</mgrwt>
</event>
<event>
 4    1  0.5531008E-005  0.5298531E+03  0.7818608E-02  0.1006268E+00
         -2   -1    0    0    0  501 -0.00000000000E+00  0.00000000000E+00  0.66915839982E+02  0.66915840031E+02  0.25500000000E-02 0. -1.
          2   -1    0    0  501    0  0.00000000000E+00 -0.00000000000E+00 -0.10488707905E+04  0.10488707905E+04  0.25500000000E-02 0.  1.
    5000001    1    1    2    0    0  0.35918178065E+02  0.15551875223E+03 -0.21252125345E+03  0.31283618873E+03  0.16500000000E+03 0.  0.
   -5000001    1    1    2    0    0 -0.35918178065E+02 -0.15551875223E+03 -0.76943369708E+03  0.80295044182E+03  0.16500000000E+03 0.  0.
<mgrwt>
<rscale>  0 0.52985307E+03</rscale>
<asrwt>0</asrwt>
<pdfrwt beam="1">  1        2 0.14983867E+00 0.52985307E+03</pdfrwt>
<pdfrwt beam="2">  1       -2 0.95594063E-02 0.52985307E+03</pdfrwt>
<totfact> 0.19440767E+03</totfact>
</mgrwt>
</event>
<event>
 4    1  0.5531008E-005  0.4374550E+03  0.7818608E-02  0.1031531E+00
         -2   -1    0    0    0  501 -0.00000000000E+00  0.00000000000E+00  0.42907574185E+02  0.42907574261E+02  0.25500000000E-02 0. -1.
          2   -1    0    0  501    0  0.00000000000E+00 -0.00000000000E+00 -0.11149945472E+04  0.11149945472E+04  0.25500000000E-02 0.  1.
    5000001    1    1    2    0    0 -0.11226365203E+03  0.87595863677E+02 -0.48719760848E+03  0.53372527822E+03  0.16500000000E+03 0.  0.
   -5000001    1    1    2    0    0  0.11226365203E+03 -0.87595863677E+02 -0.58488936457E+03  0.62417684328E+03  0.16500000000E+03 0.  0.
<mgrwt>
<rscale>  0 0.43745496E+03</rscale>
<asrwt>0</asrwt>
<pdfrwt beam="1">  1        2 0.15928492E+00 0.43745496E+03</pdfrwt>
<pdfrwt beam="2">  1       -2 0.61296542E-02 0.43745496E+03</pdfrwt>
<totfact> 0.35937479E+03</totfact>
</mgrwt>
</event>
<event>
 4    1  0.5531008E-005  0.3869168E+03  0.7818608E-02  0.1048407E+00
          2   -1    0    0  501    0  0.00000000000E+00  0.00000000000E+00  0.56163597078E+03  0.56163597079E+03  0.25500000000E-02 0.  1.
         -2   -1    0    0    0  501 -0.00000000000E+00 -0.00000000000E+00 -0.66637725631E+02  0.66637725680E+02  0.25500000000E-02 0. -1.
    5000001    1    1    2    0    0 -0.86021248069E+01  0.10026681916E+03  0.23355789785E+03  0.30315297001E+03  0.16500000000E+03 0.  0.
   -5000001    1    1    2    0    0  0.86021248069E+01 -0.10026681916E+03  0.26144034730E+03  0.32512072646E+03  0.16500000000E+03 0.  0.
<mgrwt>
<rscale>  0 0.38691675E+03</rscale>
<asrwt>0</asrwt>
<pdfrwt beam="1">  1        2 0.80233711E-01 0.38691675E+03</pdfrwt>
<pdfrwt beam="2">  1       -2 0.95196750E-02 0.38691675E+03</pdfrwt>
<totfact> 0.42877589E+03</totfact>
</mgrwt>
</event>
<event>
 4    1  0.5531008E-005  0.4879041E+03  0.7818608E-02  0.1016985E+00
         -2   -1    0    0    0  501 -0.00000000000E+00  0.00000000000E+00  0.23137280885E+03  0.23137280886E+03  0.25500000000E-02 0.  1.
          2   -1    0    0  501    0  0.00000000000E+00 -0.00000000000E+00 -0.25721516443E+03  0.25721516444E+03  0.25500000000E-02 0. -1.
    5000001    1    1    2    0    0 -0.17592597605E+03  0.35058640188E+02 -0.24884278974E+01  0.24374217849E+03  0.16500000000E+03 0.  0.
   -5000001    1    1    2    0    0  0.17592597605E+03 -0.35058640188E+02 -0.23353927688E+02  0.24484579482E+03  0.16500000000E+03 0.  0.
<mgrwt>
<rscale>  0 0.48790407E+03</rscale>
<asrwt>0</asrwt>
<pdfrwt beam="1">  1        2 0.36745023E-01 0.48790407E+03</pdfrwt>
<pdfrwt beam="2">  1       -2 0.33053259E-01 0.48790407E+03</pdfrwt>
<totfact> 0.12085061E+03</totfact>
</mgrwt>
</event>
<event>
 4    1  0.5531008E-005  0.4638417E+03  0.7818608E-02  0.1023673E+00
          2   -1    0    0  501    0  0.00000000000E+00  0.00000000000E+00  0.93260659067E+03  0.93260659067E+03  0.25500000000E-02 0.  1.
         -2   -1    0    0    0  501 -0.00000000000E+00 -0.00000000000E+00 -0.57674140068E+02  0.57674140124E+02  0.25500000000E-02 0. -1.
    5000001    1    1    2    0    0 -0.13237523147E+03  0.95073896591E+02  0.43786818953E+03  0.49549550868E+03  0.16500000000E+03 0.  0.
   -5000001    1    1    2    0    0  0.13237523147E+03 -0.95073896591E+02  0.43706426107E+03  0.49478522211E+03  0.16500000000E+03 0.  0.
<mgrwt>
<rscale>  0 0.46384171E+03</rscale>
<asrwt>0</asrwt>
<pdfrwt beam="1">  1        2 0.13322951E+00 0.46384171E+03</pdfrwt>
<pdfrwt beam="2">  1       -2 0.82391633E-02 0.46384171E+03</pdfrwt>
<totfact> 0.29018691E+03</totfact>
</mgrwt>
</event>
<event>
 4    1  0.5531008E-005  0.6180773E+03  0.7818608E-02  0.9868595E-01
         -2   -1    0    0    0  501 -0.00000000000E+00  0.00000000000E+00  0.46294669623E+03  0.46294669624E+03  0.25500000000E-02 0. -1.
          2   -1    0    0  501    0  0.00000000000E+00 -0.00000000000E+00 -0.20629778990E+03  0.20629778991E+03  0.25500000000E-02 0.  1.
    5000001    1    1    2    0    0  0.24889211351E+03  0.61242436210E+02  0.18334397210E+03  0.35572170621E+03  0.16500000000E+03 0.  0.
   -5000001    1    1    2    0    0 -0.24889211351E+03 -0.61242436210E+02  0.73304934237E+02  0.31352277995E+03  0.16500000000E+03 0.  0.
<mgrwt>
<rscale>  0 0.61807728E+03</rscale>
<asrwt>0</asrwt>
<pdfrwt beam="1">  1        2 0.29471113E-01 0.61807728E+03</pdfrwt>
<pdfrwt beam="2">  1       -2 0.66135243E-01 0.61807728E+03</pdfrwt>
<totfact> 0.38548811E+02</totfact>
</mgrwt>
</event>
<event>
 4    1  0.5531008E-005  0.1052733E+04  0.7818608E-02  0.9252527E-01
         -2   -1    0    0    0  501 -0.00000000000E+00  0.00000000000E+00  0.92386588138E+02  0.92386588174E+02  0.25500000000E-02 0. -1.
          2   -1    0    0  501    0  0.00000000000E+00 -0.00000000000E+00 -0.29989399620E+04  0.29989399620E+04  0.25500000000E-02 0.  1.
    5000001    1    1    2    0    0 -0.39243068399E+03  0.30446345149E+03 -0.16177454894E+04  0.17003015331E+04  0.16500000000E+03 0.  0.
   -5000001    1    1    2    0    0  0.39243068399E+03 -0.30446345149E+03 -0.12888078844E+04  0.13910250170E+04  0.16500000000E+03 0.  0.
<mgrwt>
<rscale>  0 0.10527333E+04</rscale>
<asrwt>0</asrwt>
<pdfrwt beam="1">  1        2 0.42841993E+00 0.10527333E+04</pdfrwt>
<pdfrwt beam="2">  1       -2 0.13198086E-01 0.10527333E+04</pdfrwt>
<totfact> 0.10420037E+02</totfact>
</mgrwt>
</event>
<event>
 4    1  0.5531008E-005  0.5259365E+03  0.7818608E-02  0.1007222E+00
         -2   -1    0    0    0  501 -0.00000000000E+00  0.00000000000E+00  0.21507520148E+03  0.21507520150E+03  0.25500000000E-02 0. -1.
          2   -1    0    0  501    0  0.00000000000E+00 -0.00000000000E+00 -0.32152616310E+03  0.32152616311E+03  0.25500000000E-02 0.  1.
    5000001    1    1    2    0    0 -0.13311411205E+03 -0.10596716855E+02  0.10514992684E+03  0.23688217398E+03  0.16500000000E+03 0.  0.
   -5000001    1    1    2    0    0  0.13311411205E+03  0.10596716855E+02 -0.21160088846E+03  0.29971919063E+03  0.16500000000E+03 0.  0.
<mgrwt>
<rscale>  0 0.52593651E+03</rscale>
<asrwt>0</asrwt>
<pdfrwt beam="1">  1        2 0.45932309E-01 0.52593651E+03</pdfrwt>
<pdfrwt beam="2">  1       -2 0.30725029E-01 0.52593651E+03</pdfrwt>
<totfact> 0.10830541E+03</totfact>
</mgrwt>
</event>
<event>
 4    1  0.5531008E-005  0.1227506E+04  0.7818608E-02  0.9089116E-01
          2   -1    0    0  501    0  0.00000000000E+00  0.00000000000E+00  0.10885964010E+04  0.10885964010E+04  0.25500000000E-02 0.  1.
         -2   -1    0    0    0  501 -0.00000000000E+00 -0.00000000000E+00 -0.34603499071E+03  0.34603499072E+03  0.25500000000E-02 0. -1.
    5000001    1    1    2    0    0  0.16852950249E+03 -0.51415273096E+03  0.64960762184E+03  0.86137697109E+03  0.16500000000E+03 0.  0.
   -5000001    1    1    2    0    0 -0.16852950249E+03  0.51415273096E+03  0.92953788409E+02  0.57325442061E+03  0.16500000000E+03 0.  0.
<mgrwt>
<rscale>  0 0.12275055E+04</rscale>
<asrwt>0</asrwt>
<pdfrwt beam="1">  1        2 0.15551377E+00 0.12275055E+04</pdfrwt>
<pdfrwt beam="2">  1       -2 0.49433570E-01 0.12275055E+04</pdfrwt>
<totfact> 0.94681691E+01</totfact>
</mgrwt>
</event>
<event>
 4    1  0.5531008E-005  0.5078960E+03  0.7818608E-02  0.1011738E+00
         -2   -1    0    0    0  501 -0.00000000000E+00  0.00000000000E+00  0.18651436815E+03  0.18651436817E+03  0.25500000000E-02 0. -1.
          2   -1    0    0  501    0  0.00000000000E+00 -0.00000000000E+00 -0.34576202044E+03  0.34576202045E+03  0.25500000000E-02 0.  1.
    5000001    1    1    2    0    0 -0.40600684454E+02  0.11438838788E+03 -0.23693411907E+03  0.31320264309E+03  0.16500000000E+03 0.  0.
   -5000001    1    1    2    0    0  0.40600684454E+02 -0.11438838788E+03  0.77686466779E+02  0.21907374553E+03  0.16500000000E+03 0.  0.
<mgrwt>
<rscale>  0 0.50789599E+03</rscale>
<asrwt>0</asrwt>
<pdfrwt beam="1">  1        2 0.49394574E-01 0.50789599E+03</pdfrwt>
<pdfrwt beam="2">  1       -2 0.26644910E-01 0.50789599E+03</pdfrwt>
<totfact> 0.12973466E+03</totfact>
</mgrwt>
</event>
<event>
 4    1  0.5531008E-005  0.4828940E+03  0.7818608E-02  0.1018343E+00
         -2   -1    0    0    0  501 -0.00000000000E+00  0.00000000000E+00  0.33845907309E+02  0.33845907405E+02  0.25500000000E-02 0. -1.
          2   -1    0    0  501    0  0.00000000000E+00 -0.00000000000E+00 -0.17224140040E+04  0.17224140040E+04  0.25500000000E-02 0.  1.
    5000001    1    1    2    0    0 -0.17374312794E+03 -0.17811380298E+02 -0.75762506058E+03  0.79481107956E+03  0.16500000000E+03 0.  0.
   -5000001    1    1    2    0    0  0.17374312794E+03  0.17811380298E+02 -0.93094303608E+03  0.96144883182E+03  0.16500000000E+03 0.  0.
<mgrwt>
<rscale>  0 0.48289405E+03</rscale>
<asrwt>0</asrwt>
<pdfrwt beam="1">  1        2 0.24605909E+00 0.48289405E+03</pdfrwt>
<pdfrwt beam="2">  1       -2 0.48351307E-02 0.48289405E+03</pdfrwt>
<totfact> 0.24777825E+03</totfact>
</mgrwt>
</event>
<event>
 4    1  0.5531008E-005  0.5680684E+03  0.7818608E-02  0.9973962E-01
         -2   -1    0    0    0  501 -0.00000000000E+00  0.00000000000E+00  0.84501323748E+02  0.84501323787E+02  0.25500000000E-02 0. -1.
          2   -1    0    0  501    0  0.00000000000E+00 -0.00000000000E+00 -0.95472371291E+03  0.95472371291E+03  0.25500000000E-02 0.  1.
    5000001    1    1    2    0    0 -0.93219309326E+02 -0.20178751565E+03 -0.55142395778E+03  0.61701006663E+03  0.16500000000E+03 0.  0.
   -5000001    1    1    2    0    0  0.93219309326E+02  0.20178751565E+03 -0.31879843138E+03  0.42221497007E+03  0.16500000000E+03 0.  0.
<mgrwt>
<rscale>  0 0.56806837E+03</rscale>
<asrwt>0</asrwt>
<pdfrwt beam="1">  1        2 0.13638910E+00 0.56806837E+03</pdfrwt>
<pdfrwt beam="2">  1       -2 0.12071618E-01 0.56806837E+03</pdfrwt>
<totfact> 0.15162066E+03</totfact>
</mgrwt>
</event>
<event>
 4    1  0.5531008E-005  0.5512777E+03  0.7818608E-02  0.1001199E+00
         -2   -1    0    0    0  501 -0.00000000000E+00  0.00000000000E+00  0.72904536192E+02  0.72904536237E+02  0.25500000000E-02 0. -1.
          2   -1    0    0  501    0  0.00000000000E+00 -0.00000000000E+00 -0.10421406050E+04  0.10421406050E+04  0.25500000000E-02 0.  1.
    5000001    1    1    2    0    0 -0.20277787498E+03  0.77265752936E+02 -0.56709961146E+03  0.62921842986E+03  0.16500000000E+03 0.  0.
   -5000001    1    1    2    0    0  0.20277787498E+03 -0.77265752936E+02 -0.40213645734E+03  0.48582671137E+03  0.16500000000E+03 0.  0.
<mgrwt>
<rscale>  0 0.55127771E+03</rscale>
<asrwt>0</asrwt>
<pdfrwt beam="1">  1        2 0.14887722E+00 0.55127771E+03</pdfrwt>
<pdfrwt beam="2">  1       -2 0.10414934E-01 0.55127771E+03</pdfrwt>
<totfact> 0.17076811E+03</totfact>
</mgrwt>
</event>
<event>
 4    1  0.5531008E-005  0.4551533E+03  0.7818608E-02  0.1026196E+00
          2   -1    0    0  501    0  0.00000000000E+00  0.00000000000E+00  0.16423504765E+04  0.16423504765E+04  0.25500000000E-02 0.  1.
         -2   -1    0    0    0  501 -0.00000000000E+00 -0.00000000000E+00 -0.31534768882E+02  0.31534768985E+02  0.25500000000E-02 0. -1.
    5000001    1    1    2    0    0  0.81133434689E+02  0.93491650160E+02  0.45184210696E+03  0.49669871401E+03  0.16500000000E+03 0.  0.
   -5000001    1    1    2    0    0 -0.81133434689E+02 -0.93491650160E+02  0.11589736006E+04  0.11771865315E+04  0.16500000000E+03 0.  0.
<mgrwt>
<rscale>  0 0.45515335E+03</rscale>
<asrwt>0</asrwt>
<pdfrwt beam="1">  1        2 0.23462156E+00 0.45515335E+03</pdfrwt>
<pdfrwt beam="2">  1       -2 0.45049658E-02 0.45515335E+03</pdfrwt>
<totfact> 0.30336083E+03</totfact>
</mgrwt>
</event>
<event>
 4    1  0.5531008E-005  0.5401437E+03  0.7818608E-02  0.1003801E+00
          2   -1    0    0  501    0  0.00000000000E+00  0.00000000000E+00  0.21480929742E+04  0.21480929742E+04  0.25500000000E-02 0.  1.
         -2   -1    0    0    0  501 -0.00000000000E+00 -0.00000000000E+00 -0.33955140737E+02  0.33955140833E+02  0.25500000000E-02 0. -1.
    5000001    1    1    2    0    0 -0.17217333542E+03 -0.54398730650E+02  0.15196326786E+04  0.15391917870E+04  0.16500000000E+03 0.  0.
   -5000001    1    1    2    0    0  0.17217333542E+03  0.54398730650E+02  0.59450515490E+03  0.64285632807E+03  0.16500000000E+03 0.  0.
<mgrwt>
<rscale>  0 0.54014368E+03</rscale>
<asrwt>0</asrwt>
<pdfrwt beam="1">  1        2 0.30687039E+00 0.54014368E+03</pdfrwt>
<pdfrwt beam="2">  1       -2 0.48507349E-02 0.54014368E+03</pdfrwt>
<totfact> 0.15059487E+03</totfact>
</mgrwt>
</event>
<event>
 4    1  0.5531008E-005  0.4185274E+03  0.7818608E-02  0.1037547E+00
          2   -1    0    0  501    0  0.00000000000E+00  0.00000000000E+00  0.10492111375E+04  0.10492111375E+04  0.25500000000E-02 0.  1.
         -2   -1    0    0    0  501 -0.00000000000E+00 -0.00000000000E+00 -0.41737354111E+02  0.41737354188E+02  0.25500000000E-02 0. -1.
    5000001    1    1    2    0    0  0.81699885476E+02 -0.82101866549E+02  0.35742335866E+03  0.41035599800E+03  0.16500000000E+03 0.  0.
   -5000001    1    1    2    0    0 -0.81699885476E+02  0.82101866549E+02  0.65005042468E+03  0.68059249365E+03  0.16500000000E+03 0.  0.
<mgrwt>
<rscale>  0 0.41852740E+03</rscale>
<asrwt>0</asrwt>
<pdfrwt beam="1">  1        2 0.14988729E+00 0.41852740E+03</pdfrwt>
<pdfrwt beam="2">  1       -2 0.59624798E-02 0.41852740E+03</pdfrwt>
<totfact> 0.40938873E+03</totfact>
</mgrwt>
</event>
<event>
 4    1  0.5531008E-005  0.4598966E+03  0.7818608E-02  0.1024811E+00
          2   -1    0    0  501    0  0.00000000000E+00  0.00000000000E+00  0.34336967209E+03  0.34336967210E+03  0.25500000000E-02 0.  1.
         -2   -1    0    0    0  501 -0.00000000000E+00 -0.00000000000E+00 -0.15399213280E+03  0.15399213282E+03  0.25500000000E-02 0. -1.
    5000001    1    1    2    0    0  0.23601768659E+02 -0.10063250963E+03 -0.37618492089E+02  0.19830304190E+03  0.16500000000E+03 0.  0.
   -5000001    1    1    2    0    0 -0.23601768659E+02  0.10063250963E+03  0.22699603138E+03  0.29905876302E+03  0.16500000000E+03 0.  0.
<mgrwt>
<rscale>  0 0.45989663E+03</rscale>
<asrwt>0</asrwt>
<pdfrwt beam="1">  1        2 0.49052810E-01 0.45989663E+03</pdfrwt>
<pdfrwt beam="2">  1       -2 0.21998876E-01 0.45989663E+03</pdfrwt>
<totfact> 0.18373602E+03</totfact>
</mgrwt>
</event>
<event>
 4    1  0.5531008E-005  0.6924568E+03  0.7818608E-02  0.9730220E-01
         -2   -1    0    0    0  501 -0.00000000000E+00  0.00000000000E+00  0.83665227946E+03  0.83665227946E+03  0.25500000000E-02 0. -1.
          2   -1    0    0  501    0  0.00000000000E+00 -0.00000000000E+00 -0.14327826695E+03  0.14327826697E+03  0.25500000000E-02 0.  1.
    5000001    1    1    2    0    0 -0.24584398335E+03 -0.17882756277E+03  0.36817341428E+03  0.50516851083E+03  0.16500000000E+03 0.  0.
   -5000001    1    1    2    0    0  0.24584398335E+03  0.17882756277E+03  0.32520059823E+03  0.47476203560E+03  0.16500000000E+03 0.  0.
<mgrwt>
<rscale>  0 0.69245675E+03</rscale>
<asrwt>0</asrwt>
<pdfrwt beam="1">  1        2 0.20468323E-01 0.69245675E+03</pdfrwt>
<pdfrwt beam="2">  1       -2 0.11952176E+00 0.69245675E+03</pdfrwt>
<totfact> 0.14994760E+02</totfact>
</mgrwt>
</event>
<event>
 4    1  0.5531008E-005  0.4474607E+03  0.7818608E-02  0.1028482E+00
         -2   -1    0    0    0  501 -0.00000000000E+00  0.00000000000E+00  0.21793579683E+04  0.21793579683E+04  0.25500000000E-02 0. -1.
          2   -1    0    0  501    0  0.00000000000E+00 -0.00000000000E+00 -0.22967901128E+02  0.22967901270E+02  0.25500000000E-02 0.  1.
    5000001    1    1    2    0    0  0.82704144217E+02 -0.12428205237E+03  0.11930198161E+04  0.12135927182E+04  0.16500000000E+03 0.  0.
   -5000001    1    1    2    0    0 -0.82704144217E+02  0.12428205237E+03  0.96337025110E+03  0.98873315142E+03  0.16500000000E+03 0.  0.
<mgrwt>
<rscale>  0 0.44746074E+03</rscale>
<asrwt>0</asrwt>
<pdfrwt beam="1">  1        2 0.32811317E-02 0.44746074E+03</pdfrwt>
<pdfrwt beam="2">  1       -2 0.31133657E+00 0.44746074E+03</pdfrwt>
<totfact> 0.85548032E+01</totfact>
</mgrwt>
</event>
<event>
 4    1  0.5531008E-005  0.4076140E+03  0.7818608E-02  0.1041175E+00
          2   -1    0    0  501    0  0.00000000000E+00  0.00000000000E+00  0.16682470258E+04  0.16682470258E+04  0.25500000000E-02 0.  1.
         -2   -1    0    0    0  501 -0.00000000000E+00 -0.00000000000E+00 -0.24898771578E+02  0.24898771708E+02  0.25500000000E-02 0. -1.
    5000001    1    1    2    0    0 -0.58960310274E+02  0.17060112097E+02  0.12482214272E+04  0.12605749073E+04  0.16500000000E+03 0.  0.
   -5000001    1    1    2    0    0  0.58960310274E+02 -0.17060112097E+02  0.39512682694E+03  0.43257089012E+03  0.16500000000E+03 0.  0.
<mgrwt>
<rscale>  0 0.40761404E+03</rscale>
<asrwt>0</asrwt>
<pdfrwt beam="1">  1        2 0.23832101E+00 0.40761404E+03</pdfrwt>
<pdfrwt beam="2">  1       -2 0.35569673E-02 0.40761404E+03</pdfrwt>
<totfact> 0.42213710E+03</totfact>
</mgrwt>
</event>
<event>
 4    1  0.5531008E-005  0.9536029E+03  0.7818608E-02  0.9360949E-01
          2   -1    0    0  501    0  0.00000000000E+00  0.00000000000E+00  0.72423484813E+03  0.72423484813E+03  0.25500000000E-02 0.  1.
         -2   -1    0    0    0  501 -0.00000000000E+00 -0.00000000000E+00 -0.31390320205E+03  0.31390320206E+03  0.25500000000E-02 0. -1.
    5000001    1    1    2    0    0 -0.30094377714E+03 -0.46845868775E+01  0.56545002920E+03  0.66147398881E+03  0.16500000000E+03 0.  0.
   -5000001    1    1    2    0    0  0.30094377714E+03  0.46845868775E+01 -0.15511838312E+03  0.37666406138E+03  0.16500000000E+03 0.  0.
<mgrwt>
<rscale>  0 0.95360293E+03</rscale>
<asrwt>0</asrwt>
<pdfrwt beam="1">  1        2 0.10346212E+00 0.95360293E+03</pdfrwt>
<pdfrwt beam="2">  1       -2 0.44843315E-01 0.95360293E+03</pdfrwt>
<totfact> 0.20340506E+02</totfact>
</mgrwt>
</event>
<event>
 4    1  0.5531008E-005  0.4683203E+03  0.7818608E-02  0.1022395E+00
          2   -1    0    0  501    0  0.00000000000E+00  0.00000000000E+00  0.10717116824E+03  0.10717116827E+03  0.25500000000E-02 0.  1.
         -2   -1    0    0    0  501 -0.00000000000E+00 -0.00000000000E+00 -0.51162068672E+03  0.51162068673E+03  0.25500000000E-02 0. -1.
    5000001    1    1    2    0    0  0.11244461272E+03 -0.12084334028E+03 -0.17718680083E+03  0.29303082809E+03  0.16500000000E+03 0.  0.
   -5000001    1    1    2    0    0 -0.11244461272E+03  0.12084334028E+03 -0.22726271765E+03  0.32576102691E+03  0.16500000000E+03 0.  0.
<mgrwt>
<rscale>  0 0.46832035E+03</rscale>
<asrwt>0</asrwt>
<pdfrwt beam="1">  1        2 0.15310167E-01 0.46832035E+03</pdfrwt>
<pdfrwt beam="2">  1       -2 0.73088668E-01 0.46832035E+03</pdfrwt>
<totfact> 0.66535937E+02</totfact>
</mgrwt>
</event>
<event>
 4    1  0.5531008E-005  0.7872718E+03  0.7818608E-02  0.9578626E-01
         -2   -1    0    0    0  501 -0.00000000000E+00  0.00000000000E+00  0.70585856830E+03  0.70585856830E+03  0.25500000000E-02 0. -1.
          2   -1    0    0  501    0  0.00000000000E+00 -0.00000000000E+00 -0.21951879702E+03  0.21951879703E+03  0.25500000000E-02 0.  1.
    5000001    1    1    2    0    0 -0.23921146386E+03  0.11433328556E+03 -0.38515022435E+02  0.31464683628E+03  0.16500000000E+03 0.  0.
   -5000001    1    1    2    0    0  0.23921146386E+03 -0.11433328556E+03  0.52485479372E+03  0.61073052905E+03  0.16500000000E+03 0.  0.
<mgrwt>
<rscale>  0 0.78727181E+03</rscale>
<asrwt>0</asrwt>
<pdfrwt beam="1">  1        2 0.31359829E-01 0.78727181E+03</pdfrwt>
<pdfrwt beam="2">  1       -2 0.10083694E+00 0.78727181E+03</pdfrwt>
<totfact> 0.13811672E+02</totfact>
</mgrwt>
</event>
<event>
 4    1  0.5531008E-005  0.5519372E+03  0.7818608E-02  0.1001047E+00
          2   -1    0    0  501    0  0.00000000000E+00  0.00000000000E+00  0.47589013987E+03  0.47589013988E+03  0.25500000000E-02 0.  1.
         -2   -1    0    0    0  501 -0.00000000000E+00 -0.00000000000E+00 -0.16003413752E+03  0.16003413754E+03  0.25500000000E-02 0. -1.
    5000001    1    1    2    0    0 -0.21255945697E+03  0.59645161581E+02  0.17400064110E+03  0.32594522722E+03  0.16500000000E+03 0.  0.
   -5000001    1    1    2    0    0  0.21255945697E+03 -0.59645161581E+02  0.14185536125E+03  0.30997905020E+03  0.16500000000E+03 0.  0.
<mgrwt>
<rscale>  0 0.55193720E+03</rscale>
<asrwt>0</asrwt>
<pdfrwt beam="1">  1        2 0.67984307E-01 0.55193720E+03</pdfrwt>
<pdfrwt beam="2">  1       -2 0.22862019E-01 0.55193720E+03</pdfrwt>
<totfact> 0.11965289E+03</totfact>
</mgrwt>
</event>
<event>
 4    1  0.5531008E-005  0.1452353E+04  0.7818608E-02  0.8916771E-01
          2   -1    0    0  501    0  0.00000000000E+00  0.00000000000E+00  0.35489093341E+04  0.35489093341E+04  0.25500000000E-02 0.  1.
         -2   -1    0    0    0  501 -0.00000000000E+00 -0.00000000000E+00 -0.14859005268E+03  0.14859005270E+03  0.25500000000E-02 0. -1.
    5000001    1    1    2    0    0 -0.28783595416E+03 -0.63394987148E+03  0.13845783508E+04  0.15585327028E+04  0.16500000000E+03 0.  0.
   -5000001    1    1    2    0    0  0.28783595416E+03  0.63394987148E+03  0.20157409306E+04  0.21389666841E+04  0.16500000000E+03 0.  0.
<mgrwt>
<rscale>  0 0.14523534E+04</rscale>
<asrwt>0</asrwt>
<pdfrwt beam="1">  1        2 0.50698700E+00 0.14523534E+04</pdfrwt>
<pdfrwt beam="2">  1       -2 0.21227153E-01 0.14523534E+04</pdfrwt>
<totfact> 0.21210746E+01</totfact>
</mgrwt>
</event>
<event>
 4    1  0.5531008E-005  0.4746885E+03  0.7818608E-02  0.1020605E+00
          2   -1    0    0  501    0  0.00000000000E+00  0.00000000000E+00  0.10627900041E+04  0.10627900041E+04  0.25500000000E-02 0.  1.
         -2   -1    0    0    0  501 -0.00000000000E+00 -0.00000000000E+00 -0.53004165885E+02  0.53004165947E+02  0.25500000000E-02 0. -1.
    5000001    1    1    2    0    0 -0.15505877932E+03  0.19857934995E+01  0.33768526019E+03  0.40657533542E+03  0.16500000000E+03 0.  0.
   -5000001    1    1    2    0    0  0.15505877932E+03 -0.19857934995E+01  0.67210057806E+03  0.70921883467E+03  0.16500000000E+03 0.  0.
<mgrwt>
<rscale>  0 0.47468852E+03</rscale>
<asrwt>0</asrwt>
<pdfrwt beam="1">  1        2 0.15182716E+00 0.47468852E+03</pdfrwt>
<pdfrwt beam="2">  1       -2 0.75720227E-02 0.47468852E+03</pdfrwt>
<totfact> 0.27669819E+03</totfact>
</mgrwt>
</event>
<event>
 4    1  0.5531008E-005  0.5267956E+03  0.7818608E-02  0.1007012E+00
         -2   -1    0    0    0  501 -0.00000000000E+00  0.00000000000E+00  0.35982053034E+02  0.35982053124E+02  0.25500000000E-02 0. -1.
          2   -1    0    0  501    0  0.00000000000E+00 -0.00000000000E+00 -0.19281392792E+04  0.19281392792E+04  0.25500000000E-02 0.  1.
    5000001    1    1    2    0    0 -0.61111903913E+02 -0.69615956786E+02 -0.16292302374E+04  0.16401820669E+04  0.16500000000E+03 0.  0.
   -5000001    1    1    2    0    0  0.61111903913E+02  0.69615956786E+02 -0.26292698876E+03  0.32393926539E+03  0.16500000000E+03 0.  0.
<mgrwt>
<rscale>  0 0.52679563E+03</rscale>
<asrwt>0</asrwt>
<pdfrwt beam="1">  1        2 0.27544840E+00 0.52679563E+03</pdfrwt>
<pdfrwt beam="2">  1       -2 0.51402945E-02 0.52679563E+03</pdfrwt>
<totfact> 0.17748852E+03</totfact>
</mgrwt>
</event>
<event>
 4    1  0.5531008E-005  0.4802139E+03  0.7818608E-02  0.1019076E+00
         -2   -1    0    0    0  501 -0.00000000000E+00  0.00000000000E+00  0.26184283271E+02  0.26184283396E+02  0.25500000000E-02 0. -1.
          2   -1    0    0  501    0  0.00000000000E+00 -0.00000000000E+00 -0.22017538081E+04  0.22017538081E+04  0.25500000000E-02 0.  1.
    5000001    1    1    2    0    0 -0.12027685731E+03 -0.62749714553E+02 -0.57908431946E+03  0.61722580805E+03  0.16500000000E+03 0.  0.
   -5000001    1    1    2    0    0  0.12027685731E+03  0.62749714553E+02 -0.15964852054E+04  0.16107122834E+04  0.16500000000E+03 0.  0.
<mgrwt>
<rscale>  0 0.48021389E+03</rscale>
<asrwt>0</asrwt>
<pdfrwt beam="1">  1        2 0.31453614E+00 0.48021389E+03</pdfrwt>
<pdfrwt beam="2">  1       -2 0.37406133E-02 0.48021389E+03</pdfrwt>
<totfact> 0.21158035E+03</totfact>
</mgrwt>
</event>
<event>
 4    1  0.5531008E-005  0.4021154E+03  0.7818608E-02  0.1043050E+00
          2   -1    0    0  501    0  0.00000000000E+00  0.00000000000E+00  0.42295104414E+03  0.42295104415E+03  0.25500000000E-02 0.  1.
         -2   -1    0    0    0  501 -0.00000000000E+00 -0.00000000000E+00 -0.95576563551E+02  0.95576563585E+02  0.25500000000E-02 0. -1.
    5000001    1    1    2    0    0  0.94878714666E+02 -0.16136521539E+02  0.24459599940E+03  0.31034587277E+03  0.16500000000E+03 0.  0.
   -5000001    1    1    2    0    0 -0.94878714666E+02  0.16136521539E+02  0.82778481193E+02  0.20818173496E+03  0.16500000000E+03 0.  0.
<mgrwt>
<rscale>  0 0.40211544E+03</rscale>
<asrwt>0</asrwt>
<pdfrwt beam="1">  1        2 0.60421578E-01 0.40211544E+03</pdfrwt>
<pdfrwt beam="2">  1       -2 0.13653795E-01 0.40211544E+03</pdfrwt>
<totfact> 0.32820578E+03</totfact>
</mgrwt>
</event>
<event>
 4    1  0.5531008E-005  0.7153982E+03  0.7818608E-02  0.9691256E-01
         -2   -1    0    0    0  501 -0.00000000000E+00  0.00000000000E+00  0.14668839764E+03  0.14668839766E+03  0.25500000000E-02 0.  1.
          2   -1    0    0  501    0  0.00000000000E+00 -0.00000000000E+00 -0.87224777574E+03  0.87224777574E+03  0.25500000000E-02 0. -1.
    5000001    1    1    2    0    0 -0.21483792071E+03 -0.18230198657E+03 -0.15474383798E+03  0.36133087589E+03  0.16500000000E+03 0.  0.
   -5000001    1    1    2    0    0  0.21483792071E+03  0.18230198657E+03 -0.57081554011E+03  0.65760529751E+03  0.16500000000E+03 0.  0.
<mgrwt>
<rscale>  0 0.71539815E+03</rscale>
<asrwt>0</asrwt>
<pdfrwt beam="1">  1        2 0.12460682E+00 0.71539815E+03</pdfrwt>
<pdfrwt beam="2">  1       -2 0.20955486E-01 0.71539815E+03</pdfrwt>
<totfact> 0.66902529E+02</totfact>
</mgrwt>
</event>
<event>
 4    1  0.5531008E-005  0.4620489E+03  0.7818608E-02  0.1024189E+00
          2   -1    0    0  501    0  0.00000000000E+00  0.00000000000E+00  0.23933333914E+04  0.23933333914E+04  0.25500000000E-02 0.  1.
         -2   -1    0    0    0  501 -0.00000000000E+00 -0.00000000000E+00 -0.22300397271E+02  0.22300397417E+02  0.25500000000E-02 0. -1.
    5000001    1    1    2    0    0 -0.25483050804E+01 -0.87807662649E+02  0.18952789293E+04  0.19044747043E+04  0.16500000000E+03 0.  0.
   -5000001    1    1    2    0    0  0.25483050804E+01  0.87807662649E+02  0.47575406479E+03  0.51115908447E+03  0.16500000000E+03 0.  0.
<mgrwt>
<rscale>  0 0.46204885E+03</rscale>
<asrwt>0</asrwt>
<pdfrwt beam="1">  1        2 0.34190489E+00 0.46204885E+03</pdfrwt>
<pdfrwt beam="2">  1       -2 0.31857699E-02 0.46204885E+03</pdfrwt>
<totfact> 0.21658723E+03</totfact>
</mgrwt>
</event>
<event>
 4    1  0.5531008E-005  0.5956588E+03  0.7818608E-02  0.9914454E-01
         -2   -1    0    0    0  501 -0.00000000000E+00  0.00000000000E+00  0.10454698289E+03  0.10454698292E+03  0.25500000000E-02 0. -1.
          2   -1    0    0  501    0  0.00000000000E+00 -0.00000000000E+00 -0.84844481005E+03  0.84844481005E+03  0.25500000000E-02 0.  1.
    5000001    1    1    2    0    0 -0.20020702238E+03  0.12615137791E+03 -0.25350992343E+03  0.38404336114E+03  0.16500000000E+03 0.  0.
   -5000001    1    1    2    0    0  0.20020702238E+03 -0.12615137791E+03 -0.49038790373E+03  0.56894843183E+03  0.16500000000E+03 0.  0.
<mgrwt>
<rscale>  0 0.59565878E+03</rscale>
<asrwt>0</asrwt>
<pdfrwt beam="1">  1        2 0.12120640E+00 0.59565878E+03</pdfrwt>
<pdfrwt beam="2">  1       -2 0.14935284E-01 0.59565878E+03</pdfrwt>
<totfact> 0.12454439E+03</totfact>
</mgrwt>
</event>
<event>
 4    1  0.5531008E-005  0.5397061E+03  0.7818608E-02  0.1003905E+00
         -2   -1    0    0    0  501 -0.00000000000E+00  0.00000000000E+00  0.13169493766E+03  0.13169493768E+03  0.25500000000E-02 0. -1.
          2   -1    0    0  501    0  0.00000000000E+00 -0.00000000000E+00 -0.55294966248E+03  0.55294966248E+03  0.25500000000E-02 0.  1.
    5000001    1    1    2    0    0  0.20413881606E+03  0.48919645174E+02 -0.16100961738E+03  0.31179301595E+03  0.16500000000E+03 0.  0.
   -5000001    1    1    2    0    0 -0.20413881606E+03 -0.48919645174E+02 -0.26024510744E+03  0.37285158422E+03  0.16500000000E+03 0.  0.
<mgrwt>
<rscale>  0 0.53970611E+03</rscale>
<asrwt>0</asrwt>
<pdfrwt beam="1">  1        2 0.78992808E-01 0.53970611E+03</pdfrwt>
<pdfrwt beam="2">  1       -2 0.18813563E-01 0.53970611E+03</pdfrwt>
<totfact> 0.14174706E+03</totfact>
</mgrwt>
</event>
<event>
 4    1  0.5531008E-005  0.4740115E+03  0.7818608E-02  0.1020794E+00
          2   -1    0    0  501    0  0.00000000000E+00  0.00000000000E+00  0.14349653660E+04  0.14349653660E+04  0.25500000000E-02 0. -1.
         -2   -1    0    0    0  501 -0.00000000000E+00 -0.00000000000E+00 -0.39145011383E+02  0.39145011466E+02  0.25500000000E-02 0.  1.
    5000001    1    1    2    0    0 -0.58924578559E+02  0.13222283579E+03  0.97592123416E+03  0.10003010745E+04  0.16500000000E+03 0.  0.
   -5000001    1    1    2    0    0  0.58924578559E+02 -0.13222283579E+03  0.41989912044E+03  0.47380930300E+03  0.16500000000E+03 0.  0.
<mgrwt>
<rscale>  0 0.47401154E+03</rscale>
<asrwt>0</asrwt>
<pdfrwt beam="1">  1        2 0.20499500E+00 0.47401154E+03</pdfrwt>
<pdfrwt beam="2">  1       -2 0.55921460E-02 0.47401154E+03</pdfrwt>
<totfact> 0.27768411E+03</totfact>
</mgrwt>
</event>
<event>
 4    1  0.5531008E-005  0.5209098E+03  0.7818608E-02  0.1008461E+00
          2   -1    0    0  501    0  0.00000000000E+00  0.00000000000E+00  0.26211678278E+04  0.26211678278E+04  0.25500000000E-02 0.  1.
         -2   -1    0    0    0  501 -0.00000000000E+00 -0.00000000000E+00 -0.25880355447E+02  0.25880355572E+02  0.25500000000E-02 0. -1.
    5000001    1    1    2    0    0  0.49077366530E+02 -0.17865428443E+03  0.17005277917E+04  0.17185301021E+04  0.16500000000E+03 0.  0.
   -5000001    1    1    2    0    0 -0.49077366530E+02  0.17865428443E+03  0.89475968059E+03  0.92851808127E+03  0.16500000000E+03 0.  0.
<mgrwt>
<rscale>  0 0.52090980E+03</rscale>
<asrwt>0</asrwt>
<pdfrwt beam="1">  1        2 0.37445248E+00 0.52090980E+03</pdfrwt>
<pdfrwt beam="2">  1       -2 0.36971943E-02 0.52090980E+03</pdfrwt>
<totfact> 0.13165740E+03</totfact>
</mgrwt>
</event>
<event>
 4    1  0.5531008E-005  0.4833143E+03  0.7818608E-02  0.1018228E+00
         -2   -1    0    0    0  501 -0.00000000000E+00  0.00000000000E+00  0.59575615496E+02  0.59575615551E+02  0.25500000000E-02 0. -1.
          2   -1    0    0  501    0  0.00000000000E+00 -0.00000000000E+00 -0.98023612598E+03  0.98023612599E+03  0.25500000000E-02 0.  1.
    5000001    1    1    2    0    0  0.13076989392E+03  0.10941232031E+03 -0.55895235698E+03  0.60722694140E+03  0.16500000000E+03 0.  0.
   -5000001    1    1    2    0    0 -0.13076989392E+03 -0.10941232031E+03 -0.36170815351E+03  0.43258480013E+03  0.16500000000E+03 0.  0.
<mgrwt>
<rscale>  0 0.48331427E+03</rscale>
<asrwt>0</asrwt>
<pdfrwt beam="1">  1        2 0.14003372E+00 0.48331427E+03</pdfrwt>
<pdfrwt beam="2">  1       -2 0.85108028E-02 0.48331427E+03</pdfrwt>
<totfact> 0.25756187E+03</totfact>
</mgrwt>
</event>
<event>
 4    1  0.5531008E-005  0.4238860E+03  0.7818608E-02  0.1035809E+00
         -2   -1    0    0    0  501 -0.00000000000E+00  0.00000000000E+00  0.35388109554E+03  0.35388109555E+03  0.25500000000E-02 0. -1.
          2   -1    0    0  501    0  0.00000000000E+00 -0.00000000000E+00 -0.12693482362E+03  0.12693482365E+03  0.25500000000E-02 0.  1.
    5000001    1    1    2    0    0  0.65751671111E+02  0.81365882327E+02  0.20667369117E+03  0.28439884614E+03  0.16500000000E+03 0.  0.
   -5000001    1    1    2    0    0 -0.65751671111E+02 -0.81365882327E+02  0.20272580746E+02  0.19641707306E+03  0.16500000000E+03 0.  0.
<mgrwt>
<rscale>  0 0.42388600E+03</rscale>
<asrwt>0</asrwt>
<pdfrwt beam="1">  1        2 0.18133546E-01 0.42388600E+03</pdfrwt>
<pdfrwt beam="2">  1       -2 0.50554443E-01 0.42388600E+03</pdfrwt>
<totfact> 0.11790096E+03</totfact>
</mgrwt>
</event>
<event>
 4    1  0.5531008E-005  0.5498740E+03  0.7818608E-02  0.1001523E+00
         -2   -1    0    0    0  501 -0.00000000000E+00  0.00000000000E+00  0.35798165243E+02  0.35798165333E+02  0.25500000000E-02 0. -1.
          2   -1    0    0  501    0  0.00000000000E+00 -0.00000000000E+00 -0.21115707482E+04  0.21115707482E+04  0.25500000000E-02 0.  1.
    5000001    1    1    2    0    0 -0.18656296375E+03  0.94128825791E+02 -0.77017671851E+03  0.81490070132E+03  0.16500000000E+03 0.  0.
   -5000001    1    1    2    0    0  0.18656296375E+03 -0.94128825791E+02 -0.13055958645E+04  0.13324682122E+04  0.16500000000E+03 0.  0.
<mgrwt>
<rscale>  0 0.54987402E+03</rscale>
<asrwt>0</asrwt>
<pdfrwt beam="1">  1        2 0.30165289E+00 0.54987402E+03</pdfrwt>
<pdfrwt beam="2">  1       -2 0.51140249E-02 0.54987402E+03</pdfrwt>
<totfact> 0.14466139E+03</totfact>
</mgrwt>
</event>
<event>
 4    1  0.5531008E-005  0.4975607E+03  0.7818608E-02  0.1014418E+00
         -2   -1    0    0    0  501 -0.00000000000E+00  0.00000000000E+00  0.28747991370E+02  0.28747991483E+02  0.25500000000E-02 0. -1.
          2   -1    0    0  501    0  0.00000000000E+00 -0.00000000000E+00 -0.21529041468E+04  0.21529041468E+04  0.25500000000E-02 0.  1.
    5000001    1    1    2    0    0  0.14932024099E+03 -0.18527045443E+02 -0.58122104497E+03  0.62264170187E+03  0.16500000000E+03 0.  0.
   -5000001    1    1    2    0    0 -0.14932024099E+03  0.18527045443E+02 -0.15429351104E+04  0.15590104364E+04  0.16500000000E+03 0.  0.
<mgrwt>
<rscale>  0 0.49756073E+03</rscale>
<asrwt>0</asrwt>
<pdfrwt beam="1">  1        2 0.30755763E+00 0.49756073E+03</pdfrwt>
<pdfrwt beam="2">  1       -2 0.41068573E-02 0.49756073E+03</pdfrwt>
<totfact> 0.19389181E+03</totfact>
</mgrwt>
</event>
<event>
 4    1  0.5531008E-005  0.4830414E+03  0.7818608E-02  0.1018303E+00
          2   -1    0    0  501    0  0.00000000000E+00  0.00000000000E+00  0.52610444225E+03  0.52610444226E+03  0.25500000000E-02 0.  1.
         -2   -1    0    0    0  501 -0.00000000000E+00 -0.00000000000E+00 -0.11087580435E+03  0.11087580438E+03  0.25500000000E-02 0. -1.
    5000001    1    1    2    0    0 -0.87429460853E+02  0.15040911662E+03  0.24584350124E+03  0.34341059985E+03  0.16500000000E+03 0.  0.
   -5000001    1    1    2    0    0  0.87429460853E+02 -0.15040911662E+03  0.16938513667E+03  0.29356964678E+03  0.16500000000E+03 0.  0.
<mgrwt>
<rscale>  0 0.48304142E+03</rscale>
<asrwt>0</asrwt>
<pdfrwt beam="1">  1        2 0.75157779E-01 0.48304142E+03</pdfrwt>
<pdfrwt beam="2">  1       -2 0.15839400E-01 0.48304142E+03</pdfrwt>
<totfact> 0.20114867E+03</totfact>
</mgrwt>
</event>
<event>
 4    1  0.5531008E-005  0.7459977E+03  0.7818608E-02  0.9641650E-01
         -2   -1    0    0    0  501 -0.00000000000E+00  0.00000000000E+00  0.44851194881E+03  0.44851194882E+03  0.25500000000E-02 0. -1.
          2   -1    0    0  501    0  0.00000000000E+00 -0.00000000000E+00 -0.31019942722E+03  0.31019942723E+03  0.25500000000E-02 0.  1.
    5000001    1    1    2    0    0 -0.29880861910E+03 -0.81476837959E+01 -0.83570114490E+02  0.35151378299E+03  0.16500000000E+03 0.  0.
   -5000001    1    1    2    0    0  0.29880861910E+03  0.81476837959E+01  0.22188263608E+03  0.40719759306E+03  0.16500000000E+03 0.  0.
<mgrwt>
<rscale>  0 0.74599772E+03</rscale>
<asrwt>0</asrwt>
<pdfrwt beam="1">  1        2 0.44314205E-01 0.74599772E+03</pdfrwt>
<pdfrwt beam="2">  1       -2 0.64073134E-01 0.74599772E+03</pdfrwt>
<totfact> 0.26087904E+02</totfact>
</mgrwt>
</event>
<event>
 4    1  0.5531008E-005  0.4655699E+03  0.7818608E-02  0.1023178E+00
          2   -1    0    0  501    0  0.00000000000E+00  0.00000000000E+00  0.74315258729E+03  0.74315258729E+03  0.25500000000E-02 0.  1.
         -2   -1    0    0    0  501 -0.00000000000E+00 -0.00000000000E+00 -0.72917511313E+02  0.72917511358E+02  0.25500000000E-02 0. -1.
    5000001    1    1    2    0    0  0.67151946579E+02  0.14394504298E+03  0.26212106165E+03  0.34808333814E+03  0.16500000000E+03 0.  0.
   -5000001    1    1    2    0    0 -0.67151946579E+02 -0.14394504298E+03  0.40811401433E+03  0.46798676052E+03  0.16500000000E+03 0.  0.
<mgrwt>
<rscale>  0 0.46556992E+03</rscale>
<asrwt>0</asrwt>
<pdfrwt beam="1">  1        2 0.10616466E+00 0.46556992E+03</pdfrwt>
<pdfrwt beam="2">  1       -2 0.10416787E-01 0.46556992E+03</pdfrwt>
<totfact> 0.26692937E+03</totfact>
</mgrwt>
</event>
<event>
 4    1  0.5531008E-005  0.5680893E+03  0.7818608E-02  0.9973916E-01
          2   -1    0    0  501    0  0.00000000000E+00  0.00000000000E+00  0.68151629049E+03  0.68151629049E+03  0.25500000000E-02 0.  1.
         -2   -1    0    0    0  501 -0.00000000000E+00 -0.00000000000E+00 -0.11838506637E+03  0.11838506640E+03  0.25500000000E-02 0. -1.
    5000001    1    1    2    0    0  0.19875779195E+03  0.11718641497E+03  0.26072659703E+03  0.38527999444E+03  0.16500000000E+03 0.  0.
   -5000001    1    1    2    0    0 -0.19875779195E+03 -0.11718641497E+03  0.30240462709E+03  0.41462136245E+03  0.16500000000E+03 0.  0.
<mgrwt>
<rscale>  0 0.56808926E+03</rscale>
<asrwt>0</asrwt>
<pdfrwt beam="1">  1        2 0.97359471E-01 0.56808926E+03</pdfrwt>
<pdfrwt beam="2">  1       -2 0.16912152E-01 0.56808926E+03</pdfrwt>
<totfact> 0.13291041E+03</totfact>
</mgrwt>
</event>
<event>
 4    1  0.5531008E-005  0.6169766E+03  0.7818608E-02  0.9870798E-01
         -2   -1    0    0    0  501 -0.00000000000E+00  0.00000000000E+00  0.39758032821E+02  0.39758032903E+02  0.25500000000E-02 0. -1.
          2   -1    0    0  501    0  0.00000000000E+00 -0.00000000000E+00 -0.23936052702E+04  0.23936052702E+04  0.25500000000E-02 0.  1.
    5000001    1    1    2    0    0 -0.19930855678E+03  0.16372441879E+03 -0.13250448218E+04  0.13599626340E+04  0.16500000000E+03 0.  0.
   -5000001    1    1    2    0    0  0.19930855678E+03 -0.16372441879E+03 -0.10288024155E+04  0.10734006691E+04  0.16500000000E+03 0.  0.
<mgrwt>
<rscale>  0 0.61697662E+03</rscale>
<asrwt>0</asrwt>
<pdfrwt beam="1">  1        2 0.34194352E+00 0.61697662E+03</pdfrwt>
<pdfrwt beam="2">  1       -2 0.56797205E-02 0.61697662E+03</pdfrwt>
<totfact> 0.88162597E+02</totfact>
</mgrwt>
</event>
<event>
 4    1  0.5531008E-005  0.8177750E+03  0.7818608E-02  0.9534639E-01
         -2   -1    0    0    0  501 -0.00000000000E+00  0.00000000000E+00  0.13754920032E+03  0.13754920034E+03  0.25500000000E-02 0. -1.
          2   -1    0    0  501    0  0.00000000000E+00 -0.00000000000E+00 -0.12154850911E+04  0.12154850911E+04  0.25500000000E-02 0.  1.
    5000001    1    1    2    0    0 -0.37153709458E+03  0.14070109609E+02 -0.60771011519E+03  0.73128268456E+03  0.16500000000E+03 0.  0.
   -5000001    1    1    2    0    0  0.37153709458E+03 -0.14070109609E+02 -0.47022577560E+03  0.62175160689E+03  0.16500000000E+03 0.  0.
<mgrwt>
<rscale>  0 0.81777504E+03</rscale>
<asrwt>0</asrwt>
<pdfrwt beam="1">  1        2 0.17364072E+00 0.81777504E+03</pdfrwt>
<pdfrwt beam="2">  1       -2 0.19649886E-01 0.81777504E+03</pdfrwt>
<totfact> 0.46240923E+02</totfact>
</mgrwt>
</event>
<event>
 4    1  0.5531008E-005  0.1115323E+04  0.7818608E-02  0.9190384E-01
         -2   -1    0    0    0  501 -0.00000000000E+00  0.00000000000E+00  0.31653283501E+03  0.31653283502E+03  0.25500000000E-02 0. -1.
          2   -1    0    0  501    0  0.00000000000E+00 -0.00000000000E+00 -0.98247803765E+03  0.98247803765E+03  0.25500000000E-02 0.  1.
    5000001    1    1    2    0    0 -0.41010758650E+03 -0.33561144482E+03 -0.26983924455E+03  0.61713976723E+03  0.16500000000E+03 0.  0.
   -5000001    1    1    2    0    0  0.41010758650E+03  0.33561144482E+03 -0.39610595809E+03  0.68187110544E+03  0.16500000000E+03 0.  0.
<mgrwt>
<rscale>  0 0.11153234E+04</rscale>
<asrwt>0</asrwt>
<pdfrwt beam="1">  1        2 0.14035400E+00 0.11153234E+04</pdfrwt>
<pdfrwt beam="2">  1       -2 0.45218977E-01 0.11153234E+04</pdfrwt>
<totfact> 0.13241153E+02</totfact>
</mgrwt>
</event>
<event>
 4    1  0.5531008E-005  0.5666797E+03  0.7818608E-02  0.9977053E-01
         -2   -1    0    0    0  501 -0.00000000000E+00  0.00000000000E+00  0.78148361677E+02  0.78148361719E+02  0.25500000000E-02 0. -1.
          2   -1    0    0  501    0  0.00000000000E+00 -0.00000000000E+00 -0.10272957158E+04  0.10272957158E+04  0.25500000000E-02 0.  1.
    5000001    1    1    2    0    0  0.94801863366E+02 -0.11975036301E+03 -0.81092161985E+03  0.84151435893E+03  0.16500000000E+03 0.  0.
   -5000001    1    1    2    0    0 -0.94801863366E+02  0.11975036301E+03 -0.13822573425E+03  0.26392971858E+03  0.16500000000E+03 0.  0.
<mgrwt>
<rscale>  0 0.56667972E+03</rscale>
<asrwt>0</asrwt>
<pdfrwt beam="1">  1        2 0.14675652E+00 0.56667972E+03</pdfrwt>
<pdfrwt beam="2">  1       -2 0.11164052E-01 0.56667972E+03</pdfrwt>
<totfact> 0.15561626E+03</totfact>
</mgrwt>
</event>
<event>
 4    1  0.5531008E-005  0.4902243E+03  0.7818608E-02  0.1016362E+00
         -2   -1    0    0    0  501 -0.00000000000E+00  0.00000000000E+00  0.27819850383E+03  0.27819850384E+03  0.25500000000E-02 0. -1.
          2   -1    0    0  501    0  0.00000000000E+00 -0.00000000000E+00 -0.21596075351E+03  0.21596075352E+03  0.25500000000E-02 0.  1.
    5000001    1    1    2    0    0 -0.17866728852E+03  0.30543761212E+02  0.30924497126E+02  0.24705514740E+03  0.16500000000E+03 0.  0.
   -5000001    1    1    2    0    0  0.17866728852E+03 -0.30543761212E+02  0.31313253195E+02  0.24710410996E+03  0.16500000000E+03 0.  0.
<mgrwt>
<rscale>  0 0.49022427E+03</rscale>
<asrwt>0</asrwt>
<pdfrwt beam="1">  1        2 0.30851536E-01 0.49022427E+03</pdfrwt>
<pdfrwt beam="2">  1       -2 0.39742643E-01 0.49022427E+03</pdfrwt>
<totfact> 0.10337327E+03</totfact>
</mgrwt>
</event>
<event>
 4    1  0.5531008E-005  0.8817088E+03  0.7818608E-02  0.9448740E-01
         -2   -1    0    0    0  501 -0.00000000000E+00  0.00000000000E+00  0.23226310074E+04  0.23226310074E+04  0.25500000000E-02 0. -1.
          2   -1    0    0  501    0  0.00000000000E+00 -0.00000000000E+00 -0.83677770886E+02  0.83677770925E+02  0.25500000000E-02 0.  1.
    5000001    1    1    2    0    0 -0.15826477634E+03  0.10505787718E+03  0.13153200929E+03  0.28392000010E+03  0.16500000000E+03 0.  0.
   -5000001    1    1    2    0    0  0.15826477634E+03 -0.10505787718E+03  0.21074212272E+04  0.21223887782E+04  0.16500000000E+03 0.  0.
<mgrwt>
<rscale>  0 0.88170876E+03</rscale>
<asrwt>0</asrwt>
<pdfrwt beam="1">  1        2 0.11953967E-01 0.88170876E+03</pdfrwt>
<pdfrwt beam="2">  1       -2 0.33180445E+00 0.88170876E+03</pdfrwt>
<totfact> 0.11112063E+01</totfact>
</mgrwt>
</event>
<event>
 4    1  0.5531008E-005  0.3923701E+03  0.7818608E-02  0.1046454E+00
          2   -1    0    0  501    0  0.00000000000E+00  0.00000000000E+00  0.40439573633E+04  0.40439573633E+04  0.25500000000E-02 0.  1.
         -2   -1    0    0    0  501 -0.00000000000E+00 -0.00000000000E+00 -0.95175506302E+01  0.95175509718E+01  0.25500000000E-02 0. -1.
    5000001    1    1    2    0    0 -0.86609090654E+02  0.22656327279E+02  0.26060837345E+04  0.26128359831E+04  0.16500000000E+03 0.  0.
   -5000001    1    1    2    0    0  0.86609090654E+02 -0.22656327279E+02  0.14283560782E+04  0.14406389311E+04  0.16500000000E+03 0.  0.
<mgrwt>
<rscale>  0 0.39237008E+03</rscale>
<asrwt>0</asrwt>
<pdfrwt beam="1">  1        2 0.57770941E+00 0.39237008E+03</pdfrwt>
<pdfrwt beam="2">  1       -2 0.13596473E-02 0.39237008E+03</pdfrwt>
<totfact> 0.90251916E+02</totfact>
</mgrwt>
</event>
<event>
 4    1  0.5531008E-005  0.9916196E+03  0.7818608E-02  0.9317784E-01
          2   -1    0    0  501    0  0.00000000000E+00  0.00000000000E+00  0.14377607629E+04  0.14377607629E+04  0.25500000000E-02 0.  1.
         -2   -1    0    0    0  501 -0.00000000000E+00 -0.00000000000E+00 -0.17097932256E+03  0.17097932258E+03  0.25500000000E-02 0. -1.
    5000001    1    1    2    0    0 -0.38627774289E+03  0.19624607552E+03  0.91847601353E+03  0.10288567462E+04  0.16500000000E+03 0.  0.
   -5000001    1    1    2    0    0  0.38627774289E+03 -0.19624607552E+03  0.34830542680E+03  0.57988333926E+03  0.16500000000E+03 0.  0.
<mgrwt>
<rscale>  0 0.99161961E+03</rscale>
<asrwt>0</asrwt>
<pdfrwt beam="1">  1        2 0.20539439E+00 0.99161961E+03</pdfrwt>
<pdfrwt beam="2">  1       -2 0.24425618E-01 0.99161961E+03</pdfrwt>
<totfact> 0.23528872E+02</totfact>
</mgrwt>
</event>
<event>
 4    1  0.5531008E-005  0.4342108E+03  0.7818608E-02  0.1032538E+00
          2   -1    0    0  501    0  0.00000000000E+00  0.00000000000E+00  0.12101167302E+04  0.12101167302E+04  0.25500000000E-02 0.  1.
         -2   -1    0    0    0  501 -0.00000000000E+00 -0.00000000000E+00 -0.38950584066E+02  0.38950584149E+02  0.25500000000E-02 0. -1.
    5000001    1    1    2    0    0 -0.12171065182E+03 -0.64159789235E+02  0.49553960613E+03  0.54010597345E+03  0.16500000000E+03 0.  0.
   -5000001    1    1    2    0    0  0.12171065182E+03  0.64159789235E+02  0.67562653998E+03  0.70896134087E+03  0.16500000000E+03 0.  0.
<mgrwt>
<rscale>  0 0.43421079E+03</rscale>
<asrwt>0</asrwt>
<pdfrwt beam="1">  1        2 0.17287384E+00 0.43421079E+03</pdfrwt>
<pdfrwt beam="2">  1       -2 0.55643684E-02 0.43421079E+03</pdfrwt>
<totfact> 0.36928482E+03</totfact>
</mgrwt>
</event>
<event>
 4    1  0.5531008E-005  0.5633753E+03  0.7818608E-02  0.9984446E-01
          2   -1    0    0  501    0  0.00000000000E+00  0.00000000000E+00  0.13471247729E+03  0.13471247731E+03  0.25500000000E-02 0.  1.
         -2   -1    0    0    0  501 -0.00000000000E+00 -0.00000000000E+00 -0.58901703660E+03  0.58901703660E+03  0.25500000000E-02 0. -1.
    5000001    1    1    2    0    0 -0.10911044200E+02  0.22776856667E+03 -0.21276823495E+03  0.35283550367E+03  0.16500000000E+03 0.  0.
   -5000001    1    1    2    0    0  0.10911044200E+02 -0.22776856667E+03 -0.24153632436E+03  0.37089401024E+03  0.16500000000E+03 0.  0.
<mgrwt>
<rscale>  0 0.56337534E+03</rscale>
<asrwt>0</asrwt>
<pdfrwt beam="1">  1        2 0.19244640E-01 0.56337534E+03</pdfrwt>
<pdfrwt beam="2">  1       -2 0.84145290E-01 0.56337534E+03</pdfrwt>
<totfact> 0.37040354E+02</totfact>
</mgrwt>
</event>
<event>
 4    1  0.5531008E-005  0.1536964E+04  0.7818608E-02  0.8860238E-01
          2   -1    0    0  501    0  0.00000000000E+00  0.00000000000E+00  0.32146440411E+04  0.32146440411E+04  0.25500000000E-02 0.  1.
         -2   -1    0    0    0  501 -0.00000000000E+00 -0.00000000000E+00 -0.18371066999E+03  0.18371067001E+03  0.25500000000E-02 0. -1.
    5000001    1    1    2    0    0  0.51005225146E+03 -0.47908169922E+03  0.91534255856E+03  0.11639371002E+04  0.16500000000E+03 0.  0.
   -5000001    1    1    2    0    0 -0.51005225146E+03  0.47908169922E+03  0.21155908125E+04  0.22344176109E+04  0.16500000000E+03 0.  0.
<mgrwt>
<rscale>  0 0.15369638E+04</rscale>
<asrwt>0</asrwt>
<pdfrwt beam="1">  1        2 0.45923485E+00 0.15369638E+04</pdfrwt>
<pdfrwt beam="2">  1       -2 0.26244382E-01 0.15369638E+04</pdfrwt>
<totfact> 0.22687997E+01</totfact>
</mgrwt>
</event>
<event>
 4    1  0.5531008E-005  0.3588860E+03  0.7818608E-02  0.1059026E+00
          2   -1    0    0  501    0  0.00000000000E+00  0.00000000000E+00  0.75895665842E+03  0.75895665842E+03  0.25500000000E-02 0.  1.
         -2   -1    0    0    0  501 -0.00000000000E+00 -0.00000000000E+00 -0.42426396301E+02  0.42426396377E+02  0.25500000000E-02 0. -1.
    5000001    1    1    2    0    0  0.33677066742E+02 -0.52101498729E+02  0.28333280976E+03  0.33369326046E+03  0.16500000000E+03 0.  0.
   -5000001    1    1    2    0    0 -0.33677066742E+02  0.52101498729E+02  0.43319745236E+03  0.46768979434E+03  0.16500000000E+03 0.  0.
<mgrwt>
<rscale>  0 0.35888603E+03</rscale>
<asrwt>0</asrwt>
<pdfrwt beam="1">  1        2 0.10842237E+00 0.35888603E+03</pdfrwt>
<pdfrwt beam="2">  1       -2 0.60609141E-02 0.35888603E+03</pdfrwt>
<totfact> 0.60947375E+03</totfact>
</mgrwt>
</event>
<event>
 4    1  0.5531008E-005  0.8069520E+03  0.7818608E-02  0.9550009E-01
         -2   -1    0    0    0  501 -0.00000000000E+00  0.00000000000E+00  0.31010492441E+03  0.31010492442E+03  0.25500000000E-02 0.  1.
          2   -1    0    0  501    0  0.00000000000E+00 -0.00000000000E+00 -0.52496067799E+03  0.52496067800E+03  0.25500000000E-02 0. -1.
    5000001    1    1    2    0    0  0.20728384586E+03 -0.30250000337E+03 -0.14167224649E+03  0.42634360581E+03  0.16500000000E+03 0.  0.
   -5000001    1    1    2    0    0 -0.20728384586E+03  0.30250000337E+03 -0.73183507094E+02  0.40872199660E+03  0.16500000000E+03 0.  0.
<mgrwt>
<rscale>  0 0.80695202E+03</rscale>
<asrwt>0</asrwt>
<pdfrwt beam="1">  1        2 0.74994383E-01 0.80695202E+03</pdfrwt>
<pdfrwt beam="2">  1       -2 0.44300703E-01 0.80695202E+03</pdfrwt>
<totfact> 0.30834111E+02</totfact>
</mgrwt>
</event>
<event>
 4    1  0.5531008E-005  0.5605312E+03  0.7818608E-02  0.9990853E-01
          2   -1    0    0  501    0  0.00000000000E+00  0.00000000000E+00  0.19241383757E+04  0.19241383757E+04  0.25500000000E-02 0. -1.
         -2   -1    0    0    0  501 -0.00000000000E+00 -0.00000000000E+00 -0.40822844488E+02  0.40822844568E+02  0.25500000000E-02 0.  1.
    5000001    1    1    2    0    0 -0.20266914893E+03  0.42334769950E+02  0.12640294237E+04  0.12914574715E+04  0.16500000000E+03 0.  0.
   -5000001    1    1    2    0    0  0.20266914893E+03 -0.42334769950E+02  0.61928610755E+03  0.67350374883E+03  0.16500000000E+03 0.  0.
<mgrwt>
<rscale>  0 0.56053118E+03</rscale>
<asrwt>0</asrwt>
<pdfrwt beam="1">  1        2 0.27487704E+00 0.56053118E+03</pdfrwt>
<pdfrwt beam="2">  1       -2 0.58318321E-02 0.56053118E+03</pdfrwt>
<totfact> 0.14631183E+03</totfact>
</mgrwt>
</event>
<event>
 4    1  0.5531008E-005  0.5976588E+03  0.7818608E-02  0.9910275E-01
         -2   -1    0    0    0  501 -0.00000000000E+00  0.00000000000E+00  0.56857642338E+02  0.56857642395E+02  0.25500000000E-02 0. -1.
          2   -1    0    0  501    0  0.00000000000E+00 -0.00000000000E+00 -0.15705718543E+04  0.15705718543E+04  0.25500000000E-02 0.  1.
    5000001    1    1    2    0    0  0.13706265144E+03 -0.28340746342E+01 -0.19036803787E+03  0.28680863349E+03  0.16500000000E+03 0.  0.
   -5000001    1    1    2    0    0 -0.13706265144E+03  0.28340746342E+01 -0.13233461741E+04  0.13406208632E+04  0.16500000000E+03 0.  0.
<mgrwt>
<rscale>  0 0.59765881E+03</rscale>
<asrwt>0</asrwt>
<pdfrwt beam="1">  1        2 0.22436738E+00 0.59765881E+03</pdfrwt>
<pdfrwt beam="2">  1       -2 0.81225213E-02 0.59765881E+03</pdfrwt>
<totfact> 0.13086234E+03</totfact>
</mgrwt>
</event>
<event>
 4    1  0.5531008E-005  0.4273298E+03  0.7818608E-02  0.1034707E+00
         -2   -1    0    0    0  501 -0.00000000000E+00  0.00000000000E+00  0.14302686873E+03  0.14302686875E+03  0.25500000000E-02 0. -1.
          2   -1    0    0  501    0  0.00000000000E+00 -0.00000000000E+00 -0.31918958016E+03  0.31918958017E+03  0.25500000000E-02 0.  1.
    5000001    1    1    2    0    0  0.11439641145E+03 -0.42854693494E+02 -0.24048502453E+02  0.20670363852E+03  0.16500000000E+03 0.  0.
   -5000001    1    1    2    0    0 -0.11439641145E+03  0.42854693494E+02 -0.15211420897E+03  0.25551281040E+03  0.16500000000E+03 0.  0.
<mgrwt>
<rscale>  0 0.42732978E+03</rscale>
<asrwt>0</asrwt>
<pdfrwt beam="1">  1        2 0.45598511E-01 0.42732978E+03</pdfrwt>
<pdfrwt beam="2">  1       -2 0.20432410E-01 0.42732978E+03</pdfrwt>
<totfact> 0.22619372E+03</totfact>
</mgrwt>
</event>
<event>
 4    1  0.5531008E-005  0.6684043E+03  0.7818608E-02  0.9772845E-01
         -2   -1    0    0    0  501 -0.00000000000E+00  0.00000000000E+00  0.83420199967E+02  0.83420200006E+02  0.25500000000E-02 0.  1.
          2   -1    0    0  501    0  0.00000000000E+00 -0.00000000000E+00 -0.13388973370E+04  0.13388973370E+04  0.25500000000E-02 0. -1.
    5000001    1    1    2    0    0 -0.10473998186E+03 -0.21430845063E+03 -0.27442845438E+03  0.39929256490E+03  0.16500000000E+03 0.  0.
   -5000001    1    1    2    0    0  0.10473998186E+03  0.21430845063E+03 -0.98104868264E+03  0.10230249721E+04  0.16500000000E+03 0.  0.
<mgrwt>
<rscale>  0 0.66840432E+03</rscale>
<asrwt>0</asrwt>
<pdfrwt beam="1">  1        2 0.19127104E+00 0.66840432E+03</pdfrwt>
<pdfrwt beam="2">  1       -2 0.11917172E-01 0.66840432E+03</pdfrwt>
<totfact> 0.92864717E+02</totfact>
</mgrwt>
</event>
<event>
 4    1  0.5531008E-005  0.3493465E+03  0.7818608E-02  0.1062884E+00
          2   -1    0    0  501    0  0.00000000000E+00  0.00000000000E+00  0.30586474215E+04  0.30586474215E+04  0.25500000000E-02 0.  1.
         -2   -1    0    0    0  501 -0.00000000000E+00 -0.00000000000E+00 -0.99752384376E+01  0.99752387635E+01  0.25500000000E-02 0. -1.
    5000001    1    1    2    0    0  0.31874321767E+02  0.41822463130E+02  0.17247642930E+04  0.17334364590E+04  0.16500000000E+03 0.  0.
   -5000001    1    1    2    0    0 -0.31874321767E+02 -0.41822463130E+02  0.13239078900E+04  0.13351862013E+04  0.16500000000E+03 0.  0.
<mgrwt>
<rscale>  0 0.34934646E+03</rscale>
<asrwt>0</asrwt>
<pdfrwt beam="1">  1        2 0.43694954E+00 0.34934646E+03</pdfrwt>
<pdfrwt beam="2">  1       -2 0.14250344E-02 0.34934646E+03</pdfrwt>
<totfact> 0.32673535E+03</totfact>
</mgrwt>
</event>
<event>
 4    1  0.5531008E-005  0.4652392E+03  0.7818608E-02  0.1023273E+00
         -2   -1    0    0    0  501 -0.00000000000E+00  0.00000000000E+00  0.89957442921E+02  0.89957442957E+02  0.25500000000E-02 0. -1.
          2   -1    0    0  501    0  0.00000000000E+00 -0.00000000000E+00 -0.60152746619E+03  0.60152746619E+03  0.25500000000E-02 0.  1.
    5000001    1    1    2    0    0 -0.81032791963E+02 -0.10679789551E+03 -0.11545147430E+03  0.24192177822E+03  0.16500000000E+03 0.  0.
   -5000001    1    1    2    0    0  0.81032791963E+02  0.10679789551E+03 -0.39611854897E+03  0.44956313093E+03  0.16500000000E+03 0.  0.
<mgrwt>
<rscale>  0 0.46523918E+03</rscale>
<asrwt>0</asrwt>
<pdfrwt beam="1">  1        2 0.85932492E-01 0.46523918E+03</pdfrwt>
<pdfrwt beam="2">  1       -2 0.12851064E-01 0.46523918E+03</pdfrwt>
<totfact> 0.24413659E+03</totfact>
</mgrwt>
</event>
<event>
 4    1  0.5531008E-005  0.4894532E+03  0.7818608E-02  0.1016569E+00
          2   -1    0    0  501    0  0.00000000000E+00  0.00000000000E+00  0.69004693402E+03  0.69004693402E+03  0.25500000000E-02 0.  1.
         -2   -1    0    0    0  501 -0.00000000000E+00 -0.00000000000E+00 -0.86792805347E+02  0.86792805385E+02  0.25500000000E-02 0. -1.
    5000001    1    1    2    0    0  0.92810327657E+02 -0.81223891343E+02  0.51131844635E+03  0.55125550430E+03  0.16500000000E+03 0.  0.
   -5000001    1    1    2    0    0 -0.92810327657E+02  0.81223891343E+02  0.91935682321E+02  0.22558423511E+03  0.16500000000E+03 0.  0.
<mgrwt>
<rscale>  0 0.48945320E+03</rscale>
<asrwt>0</asrwt>
<pdfrwt beam="1">  1        2 0.98578137E-01 0.48945320E+03</pdfrwt>
<pdfrwt beam="2">  1       -2 0.12398972E-01 0.48945320E+03</pdfrwt>
<totfact> 0.22007934E+03</totfact>
</mgrwt>
</event>
<event>
 4    1  0.5531008E-005  0.3892519E+03  0.7818608E-02  0.1047566E+00
         -2   -1    0    0    0  501 -0.00000000000E+00  0.00000000000E+00  0.20740300808E+03  0.20740300810E+03  0.25500000000E-02 0. -1.
          2   -1    0    0  501    0  0.00000000000E+00 -0.00000000000E+00 -0.18263600797E+03  0.18263600799E+03  0.25500000000E-02 0.  1.
    5000001    1    1    2    0    0 -0.83143537266E+02 -0.88142197067E+01 -0.48267563031E+02  0.19116823978E+03  0.16500000000E+03 0.  0.
   -5000001    1    1    2    0    0  0.83143537266E+02  0.88142197067E+01  0.73034563139E+02  0.19887077631E+03  0.16500000000E+03 0.  0.
<mgrwt>
<rscale>  0 0.38925188E+03</rscale>
<asrwt>0</asrwt>
<pdfrwt beam="1">  1        2 0.26090858E-01 0.38925188E+03</pdfrwt>
<pdfrwt beam="2">  1       -2 0.29629001E-01 0.38925188E+03</pdfrwt>
<totfact> 0.21600571E+03</totfact>
</mgrwt>
</event>
<event>
 4    1  0.5531008E-005  0.7389227E+03  0.7818608E-02  0.9652891E-01
         -2   -1    0    0    0  501 -0.00000000000E+00  0.00000000000E+00  0.99257816897E+02  0.99257816930E+02  0.25500000000E-02 0. -1.
          2   -1    0    0  501    0  0.00000000000E+00 -0.00000000000E+00 -0.13752235129E+04  0.13752235129E+04  0.25500000000E-02 0.  1.
    5000001    1    1    2    0    0 -0.30755682511E+03  0.35753163776E+02 -0.40693111560E+03  0.53729640073E+03  0.16500000000E+03 0.  0.
   -5000001    1    1    2    0    0  0.30755682511E+03 -0.35753163776E+02 -0.86903458036E+03  0.93718492906E+03  0.16500000000E+03 0.  0.
<mgrwt>
<rscale>  0 0.73892269E+03</rscale>
<asrwt>0</asrwt>
<pdfrwt beam="1">  1        2 0.19646049E+00 0.73892269E+03</pdfrwt>
<pdfrwt beam="2">  1       -2 0.14179689E-01 0.73892269E+03</pdfrwt>
<totfact> 0.66275629E+02</totfact>
</mgrwt>
</event>
<event>
 4    1  0.5531008E-005  0.1336158E+04  0.7818608E-02  0.9001373E-01
          2   -1    0    0  501    0  0.00000000000E+00  0.00000000000E+00  0.13534815296E+04  0.13534815296E+04  0.25500000000E-02 0. -1.
         -2   -1    0    0    0  501 -0.00000000000E+00 -0.00000000000E+00 -0.32976393544E+03  0.32976393545E+03  0.25500000000E-02 0.  1.
    5000001    1    1    2    0    0  0.62175536061E+03 -0.99845337142E+02  0.32266073983E+03  0.72655610439E+03  0.16500000000E+03 0.  0.
   -5000001    1    1    2    0    0 -0.62175536061E+03  0.99845337142E+02  0.70105685434E+03  0.95668936067E+03  0.16500000000E+03 0.  0.
<mgrwt>
<rscale>  0 0.13361578E+04</rscale>
<asrwt>0</asrwt>
<pdfrwt beam="1">  1        2 0.19335451E+00 0.13361578E+04</pdfrwt>
<pdfrwt beam="2">  1       -2 0.47109133E-01 0.13361578E+04</pdfrwt>
<totfact> 0.73274011E+01</totfact>
</mgrwt>
</event>
<event>
 4    1  0.5531008E-005  0.8977989E+03  0.7818608E-02  0.9428337E-01
         -2   -1    0    0    0  501 -0.00000000000E+00  0.00000000000E+00  0.15473354901E+03  0.15473354903E+03  0.25500000000E-02 0. -1.
          2   -1    0    0  501    0  0.00000000000E+00 -0.00000000000E+00 -0.13023077510E+04  0.13023077510E+04  0.25500000000E-02 0.  1.
    5000001    1    1    2    0    0  0.63153575520E+02 -0.40873780148E+03 -0.48154195332E+03  0.65586783521E+03  0.16500000000E+03 0.  0.
   -5000001    1    1    2    0    0 -0.63153575520E+02  0.40873780148E+03 -0.66603224865E+03  0.80117346480E+03  0.16500000000E+03 0.  0.
<mgrwt>
<rscale>  0 0.89779886E+03</rscale>
<asrwt>0</asrwt>
<pdfrwt beam="1">  1        2 0.18604396E+00 0.89779886E+03</pdfrwt>
<pdfrwt beam="2">  1       -2 0.22104793E-01 0.89779886E+03</pdfrwt>
<totfact> 0.33490441E+02</totfact>
</mgrwt>
</event>
<event>
 4    1  0.5531008E-005  0.4818883E+03  0.7818608E-02  0.1018618E+00
         -2   -1    0    0    0  501 -0.00000000000E+00  0.00000000000E+00  0.55316381133E+03  0.55316381134E+03  0.25500000000E-02 0. -1.
          2   -1    0    0  501    0  0.00000000000E+00 -0.00000000000E+00 -0.10494915521E+03  0.10494915524E+03  0.25500000000E-02 0.  1.
    5000001    1    1    2    0    0  0.24679336346E+02  0.17287041672E+03  0.24913439855E+03  0.34610142901E+03  0.16500000000E+03 0.  0.
   -5000001    1    1    2    0    0 -0.24679336346E+02 -0.17287041672E+03  0.19908025757E+03  0.31201153757E+03  0.16500000000E+03 0.  0.
<mgrwt>
<rscale>  0 0.48188826E+03</rscale>
<asrwt>0</asrwt>
<pdfrwt beam="1">  1        2 0.14992737E-01 0.48188826E+03</pdfrwt>
<pdfrwt beam="2">  1       -2 0.79023400E-01 0.48188826E+03</pdfrwt>
<totfact> 0.57447167E+02</totfact>
</mgrwt>
</event>
<event>
 4    1  0.5531008E-005  0.5662362E+03  0.7818608E-02  0.9978042E-01
         -2   -1    0    0    0  501 -0.00000000000E+00  0.00000000000E+00  0.24317582571E+02  0.24317582705E+02  0.25500000000E-02 0. -1.
          2   -1    0    0  501    0  0.00000000000E+00 -0.00000000000E+00 -0.32962101823E+04  0.32962101823E+04  0.25500000000E-02 0.  1.
    5000001    1    1    2    0    0 -0.21533503302E+03  0.77384788433E+02 -0.17763548205E+04  0.17986158651E+04  0.16500000000E+03 0.  0.
   -5000001    1    1    2    0    0  0.21533503302E+03 -0.77384788433E+02 -0.14955377792E+04  0.15219118999E+04  0.16500000000E+03 0.  0.
<mgrwt>
<rscale>  0 0.56623622E+03</rscale>
<asrwt>0</asrwt>
<pdfrwt beam="1">  1        2 0.47088689E+00 0.56623622E+03</pdfrwt>
<pdfrwt beam="2">  1       -2 0.34739424E-02 0.56623622E+03</pdfrwt>
<totfact> 0.62235524E+02</totfact>
</mgrwt>
</event>
<event>
 4    1  0.5531008E-005  0.3460061E+03  0.7818608E-02  0.1064266E+00
         -2   -1    0    0    0  501 -0.00000000000E+00  0.00000000000E+00  0.23231779345E+02  0.23231779485E+02  0.25500000000E-02 0. -1.
          2   -1    0    0  501    0  0.00000000000E+00 -0.00000000000E+00 -0.12883236597E+04  0.12883236597E+04  0.25500000000E-02 0.  1.
    5000001    1    1    2    0    0 -0.89800202240E+00 -0.37911469300E+02 -0.76746871550E+03  0.78592067996E+03  0.16500000000E+03 0.  0.
   -5000001    1    1    2    0    0  0.89800202240E+00  0.37911469300E+02 -0.49762316486E+03  0.52563475924E+03  0.16500000000E+03 0.  0.
<mgrwt>
<rscale>  0 0.34600608E+03</rscale>
<asrwt>0</asrwt>
<pdfrwt beam="1">  1        2 0.18404619E+00 0.34600608E+03</pdfrwt>
<pdfrwt beam="2">  1       -2 0.33188264E-02 0.34600608E+03</pdfrwt>
<totfact> 0.73453597E+03</totfact>
</mgrwt>
</event>
<event>
 4    1  0.5531008E-005  0.4475457E+03  0.7818608E-02  0.1028456E+00
          2   -1    0    0  501    0  0.00000000000E+00  0.00000000000E+00  0.10213587016E+04  0.10213587016E+04  0.25500000000E-02 0. -1.
         -2   -1    0    0    0  501 -0.00000000000E+00 -0.00000000000E+00 -0.49027138461E+02  0.49027138527E+02  0.25500000000E-02 0.  1.
    5000001    1    1    2    0    0 -0.13826756937E+03 -0.57222682420E+02  0.43504096455E+03  0.48875146747E+03  0.16500000000E+03 0.  0.
   -5000001    1    1    2    0    0  0.13826756937E+03  0.57222682420E+02  0.53729059861E+03  0.58163437267E+03  0.16500000000E+03 0.  0.
<mgrwt>
<rscale>  0 0.44754573E+03</rscale>
<asrwt>0</asrwt>
<pdfrwt beam="1">  1        2 0.14590839E+00 0.44754573E+03</pdfrwt>
<pdfrwt beam="2">  1       -2 0.70038766E-02 0.44754573E+03</pdfrwt>
<totfact> 0.33092242E+03</totfact>
</mgrwt>
</event>
<event>
 4    1  0.5531008E-005  0.7531072E+03  0.7818608E-02  0.9630488E-01
         -2   -1    0    0    0  501 -0.00000000000E+00  0.00000000000E+00  0.26288332769E+03  0.26288332770E+03  0.25500000000E-02 0. -1.
          2   -1    0    0  501    0  0.00000000000E+00 -0.00000000000E+00 -0.53937462386E+03  0.53937462386E+03  0.25500000000E-02 0.  1.
    5000001    1    1    2    0    0 -0.15773954917E+03 -0.25983568014E+03 -0.29686360322E+03  0.45579528844E+03  0.16500000000E+03 0.  0.
   -5000001    1    1    2    0    0  0.15773954917E+03  0.25983568014E+03  0.20372307052E+02  0.34646266312E+03  0.16500000000E+03 0.  0.
<mgrwt>
<rscale>  0 0.75310715E+03</rscale>
<asrwt>0</asrwt>
<pdfrwt beam="1">  1        2 0.77053517E-01 0.75310715E+03</pdfrwt>
<pdfrwt beam="2">  1       -2 0.37554761E-01 0.75310715E+03</pdfrwt>
<totfact> 0.41357052E+02</totfact>
</mgrwt>
</event>
<event>
 4    1  0.5531008E-005  0.5567852E+03  0.7818608E-02  0.9999355E-01
          2   -1    0    0  501    0  0.00000000000E+00  0.00000000000E+00  0.59062762827E+03  0.59062762828E+03  0.25500000000E-02 0.  1.
         -2   -1    0    0    0  501 -0.00000000000E+00 -0.00000000000E+00 -0.13122045796E+03  0.13122045799E+03  0.25500000000E-02 0. -1.
    5000001    1    1    2    0    0 -0.17670875541E+03  0.88560000419E+02  0.36696019360E+03  0.44827853127E+03  0.16500000000E+03 0.  0.
   -5000001    1    1    2    0    0  0.17670875541E+03 -0.88560000419E+02  0.92446976709E+02  0.27356955499E+03  0.16500000000E+03 0.  0.
<mgrwt>
<rscale>  0 0.55678516E+03</rscale>
<asrwt>0</asrwt>
<pdfrwt beam="1">  1        2 0.84375377E-01 0.55678516E+03</pdfrwt>
<pdfrwt beam="2">  1       -2 0.18745779E-01 0.55678516E+03</pdfrwt>
<totfact> 0.13211248E+03</totfact>
</mgrwt>
</event>
<event>
 4    1  0.5531008E-005  0.6142678E+03  0.7818608E-02  0.9876239E-01
          2   -1    0    0  501    0  0.00000000000E+00  0.00000000000E+00  0.22714519373E+04  0.22714519373E+04  0.25500000000E-02 0.  1.
         -2   -1    0    0    0  501 -0.00000000000E+00 -0.00000000000E+00 -0.41529040257E+02  0.41529040335E+02  0.25500000000E-02 0. -1.
    5000001    1    1    2    0    0 -0.14889679659E+03  0.18527790397E+03  0.15027833687E+04  0.15303859026E+04  0.16500000000E+03 0.  0.
   -5000001    1    1    2    0    0  0.14889679659E+03 -0.18527790397E+03  0.72713952830E+03  0.78259507496E+03  0.16500000000E+03 0.  0.
<mgrwt>
<rscale>  0 0.61426776E+03</rscale>
<asrwt>0</asrwt>
<pdfrwt beam="1">  1        2 0.32449323E+00 0.61426776E+03</pdfrwt>
<pdfrwt beam="2">  1       -2 0.59327183E-02 0.61426776E+03</pdfrwt>
<totfact> 0.95006663E+02</totfact>
</mgrwt>
</event>
<event>
 4    1  0.5531008E-005  0.4091137E+03  0.7818608E-02  0.1040669E+00
          2   -1    0    0  501    0  0.00000000000E+00  0.00000000000E+00  0.37070753101E+03  0.37070753102E+03  0.25500000000E-02 0.  1.
         -2   -1    0    0    0  501 -0.00000000000E+00 -0.00000000000E+00 -0.11287470936E+03  0.11287470939E+03  0.25500000000E-02 0. -1.
    5000001    1    1    2    0    0  0.11801507048E+03 -0.32353046041E+01  0.98082099704E+02  0.22535110902E+03  0.16500000000E+03 0.  0.
   -5000001    1    1    2    0    0 -0.11801507048E+03  0.32353046041E+01  0.15975072195E+03  0.25823113139E+03  0.16500000000E+03 0.  0.
<mgrwt>
<rscale>  0 0.40911370E+03</rscale>
<asrwt>0</asrwt>
<pdfrwt beam="1">  1        2 0.52958220E-01 0.40911370E+03</pdfrwt>
<pdfrwt beam="2">  1       -2 0.16124958E-01 0.40911370E+03</pdfrwt>
<totfact> 0.28755046E+03</totfact>
</mgrwt>
</event>
<event>
 4    1  0.5531008E-005  0.3682289E+03  0.7818608E-02  0.1055372E+00
         -2   -1    0    0    0  501 -0.00000000000E+00  0.00000000000E+00  0.28758388532E+02  0.28758388645E+02  0.25500000000E-02 0. -1.
          2   -1    0    0  501    0  0.00000000000E+00 -0.00000000000E+00 -0.11787214104E+04  0.11787214104E+04  0.25500000000E-02 0.  1.
    5000001    1    1    2    0    0  0.72009802352E+01  0.73286679730E+02 -0.45903023601E+03  0.49331181733E+03  0.16500000000E+03 0.  0.
   -5000001    1    1    2    0    0 -0.72009802352E+01 -0.73286679730E+02 -0.69093278585E+03  0.71416798171E+03  0.16500000000E+03 0.  0.
<mgrwt>
<rscale>  0 0.36822889E+03</rscale>
<asrwt>0</asrwt>
<pdfrwt beam="1">  1        2 0.16838874E+00 0.36822889E+03</pdfrwt>
<pdfrwt beam="2">  1       -2 0.41083420E-02 0.36822889E+03</pdfrwt>
<totfact> 0.61086678E+03</totfact>
</mgrwt>
</event>
<event>
 4    1  0.5531008E-005  0.4764193E+03  0.7818608E-02  0.1020124E+00
          2   -1    0    0  501    0  0.00000000000E+00  0.00000000000E+00  0.27913461450E+04  0.27913461450E+04  0.25500000000E-02 0.  1.
         -2   -1    0    0    0  501 -0.00000000000E+00 -0.00000000000E+00 -0.20328481781E+02  0.20328481941E+02  0.25500000000E-02 0. -1.
    5000001    1    1    2    0    0 -0.38007015800E+02 -0.15978340625E+03  0.10878651414E+04  0.11124975667E+04  0.16500000000E+03 0.  0.
   -5000001    1    1    2    0    0  0.38007015800E+02  0.15978340625E+03  0.16831525219E+04  0.16991770603E+04  0.16500000000E+03 0.  0.
<mgrwt>
<rscale>  0 0.47641927E+03</rscale>
<asrwt>0</asrwt>
<pdfrwt beam="1">  1        2 0.39876379E+00 0.47641927E+03</pdfrwt>
<pdfrwt beam="2">  1       -2 0.29040684E-02 0.47641927E+03</pdfrwt>
<totfact> 0.15542709E+03</totfact>
</mgrwt>
</event>
<event>
 4    1  0.5531008E-005  0.3796833E+03  0.7818608E-02  0.1051051E+00
         -2   -1    0    0    0  501 -0.00000000000E+00  0.00000000000E+00  0.20927239409E+02  0.20927239564E+02  0.25500000000E-02 0. -1.
          2   -1    0    0  501    0  0.00000000000E+00 -0.00000000000E+00 -0.17221505681E+04  0.17221505681E+04  0.25500000000E-02 0.  1.
    5000001    1    1    2    0    0 -0.83948798934E+02  0.41998867427E+02 -0.84195976763E+03  0.86309475495E+03  0.16500000000E+03 0.  0.
   -5000001    1    1    2    0    0  0.83948798934E+02 -0.41998867427E+02 -0.85926356109E+03  0.87998305275E+03  0.16500000000E+03 0.  0.
<mgrwt>
<rscale>  0 0.37968333E+03</rscale>
<asrwt>0</asrwt>
<pdfrwt beam="1">  1        2 0.24602142E+00 0.37968333E+03</pdfrwt>
<pdfrwt beam="2">  1       -2 0.29896067E-02 0.37968333E+03</pdfrwt>
<totfact> 0.51554842E+03</totfact>
</mgrwt>
</event>
<event>
 4    1  0.5531008E-005  0.4756274E+03  0.7818608E-02  0.1020344E+00
         -2   -1    0    0    0  501 -0.00000000000E+00  0.00000000000E+00  0.53354649658E+03  0.53354649659E+03  0.25500000000E-02 0. -1.
          2   -1    0    0  501    0  0.00000000000E+00 -0.00000000000E+00 -0.10599893849E+03  0.10599893852E+03  0.25500000000E-02 0.  1.
    5000001    1    1    2    0    0  0.10899643824E+03 -0.93257004528E+02  0.87971163130E+02  0.23567141954E+03  0.16500000000E+03 0.  0.
   -5000001    1    1    2    0    0 -0.10899643824E+03  0.93257004528E+02  0.33957639496E+03  0.40387401557E+03  0.16500000000E+03 0.  0.
<mgrwt>
<rscale>  0 0.47562743E+03</rscale>
<asrwt>0</asrwt>
<pdfrwt beam="1">  1        2 0.15142705E-01 0.47562743E+03</pdfrwt>
<pdfrwt beam="2">  1       -2 0.76220929E-01 0.47562743E+03</pdfrwt>
<totfact> 0.61489050E+02</totfact>
</mgrwt>
</event>
<event>
 4    1  0.5531008E-005  0.6819324E+03  0.7818608E-02  0.9748639E-01
         -2   -1    0    0    0  501 -0.00000000000E+00  0.00000000000E+00  0.80365537668E+03  0.80365537668E+03  0.25500000000E-02 0. -1.
          2   -1    0    0  501    0  0.00000000000E+00 -0.00000000000E+00 -0.14466144055E+03  0.14466144057E+03  0.25500000000E-02 0.  1.
    5000001    1    1    2    0    0  0.54747620525E+02  0.27999774459E+03  0.45102342801E+03  0.55860824514E+03  0.16500000000E+03 0.  0.
   -5000001    1    1    2    0    0 -0.54747620525E+02 -0.27999774459E+03  0.20797050812E+03  0.38970857211E+03  0.16500000000E+03 0.  0.
<mgrwt>
<rscale>  0 0.68193239E+03</rscale>
<asrwt>0</asrwt>
<pdfrwt beam="1">  1        2 0.20665920E-01 0.68193239E+03</pdfrwt>
<pdfrwt beam="2">  1       -2 0.11480791E+00 0.68193239E+03</pdfrwt>
<totfact> 0.16368935E+02</totfact>
</mgrwt>
</event>
<event>
 4    1  0.5531008E-005  0.5743523E+03  0.7818608E-02  0.9960094E-01
         -2   -1    0    0    0  501 -0.00000000000E+00  0.00000000000E+00  0.15174762974E+03  0.15174762976E+03  0.25500000000E-02 0. -1.
          2   -1    0    0  501    0  0.00000000000E+00 -0.00000000000E+00 -0.54346897833E+03  0.54346897833E+03  0.25500000000E-02 0.  1.
    5000001    1    1    2    0    0 -0.19240157114E+03  0.36032993412E+02 -0.35334945069E+03  0.43634570640E+03  0.16500000000E+03 0.  0.
   -5000001    1    1    2    0    0  0.19240157114E+03 -0.36032993412E+02 -0.38371897897E+02  0.25887090169E+03  0.16500000000E+03 0.  0.
<mgrwt>
<rscale>  0 0.57435226E+03</rscale>
<asrwt>0</asrwt>
<pdfrwt beam="1">  1        2 0.77638424E-01 0.57435226E+03</pdfrwt>
<pdfrwt beam="2">  1       -2 0.21678233E-01 0.57435226E+03</pdfrwt>
<totfact> 0.11295831E+03</totfact>
</mgrwt>
</event>
<event>
 4    1  0.5531008E-005  0.5134649E+03  0.7818608E-02  0.1010323E+00
         -2   -1    0    0    0  501 -0.00000000000E+00  0.00000000000E+00  0.49022422896E+03  0.49022422897E+03  0.25500000000E-02 0. -1.
          2   -1    0    0  501    0  0.00000000000E+00 -0.00000000000E+00 -0.13445186059E+03  0.13445186061E+03  0.25500000000E-02 0.  1.
    5000001    1    1    2    0    0 -0.18033640880E+02  0.17681249614E+03  0.75383990764E+02  0.25395987293E+03  0.16500000000E+03 0.  0.
   -5000001    1    1    2    0    0  0.18033640880E+02 -0.17681249614E+03  0.28038837761E+03  0.37071621666E+03  0.16500000000E+03 0.  0.
<mgrwt>
<rscale>  0 0.51346493E+03</rscale>
<asrwt>0</asrwt>
<pdfrwt beam="1">  1        2 0.19207408E-01 0.51346493E+03</pdfrwt>
<pdfrwt beam="2">  1       -2 0.70032034E-01 0.51346493E+03</pdfrwt>
<totfact> 0.55780164E+02</totfact>
</mgrwt>
</event>
<event>
 4    1  0.5531008E-005  0.9550187E+03  0.7818608E-02  0.9359304E-01
         -2   -1    0    0    0  501 -0.00000000000E+00  0.00000000000E+00  0.10610362018E+04  0.10610362018E+04  0.25500000000E-02 0. -1.
          2   -1    0    0  501    0  0.00000000000E+00 -0.00000000000E+00 -0.21489859726E+03  0.21489859727E+03  0.25500000000E-02 0.  1.
    5000001    1    1    2    0    0  0.23080625664E+03  0.75001853603E+02  0.92633489427E+03  0.97170887744E+03  0.16500000000E+03 0.  0.
   -5000001    1    1    2    0    0 -0.23080625664E+03 -0.75001853603E+02 -0.80197289687E+02  0.30422592168E+03  0.16500000000E+03 0.  0.
<mgrwt>
<rscale>  0 0.95501873E+03</rscale>
<asrwt>0</asrwt>
<pdfrwt beam="1">  1        2 0.30699800E-01 0.95501873E+03</pdfrwt>
<pdfrwt beam="2">  1       -2 0.15157660E+00 0.95501873E+03</pdfrwt>
<totfact> 0.50566478E+01</totfact>
</mgrwt>
</event>
<event>
 4    1  0.5531008E-005  0.4693597E+03  0.7818608E-02  0.1022101E+00
         -2   -1    0    0    0  501 -0.00000000000E+00  0.00000000000E+00  0.22426998927E+02  0.22426999072E+02  0.25500000000E-02 0. -1.
          2   -1    0    0  501    0  0.00000000000E+00 -0.00000000000E+00 -0.24557286101E+04  0.24557286101E+04  0.25500000000E-02 0.  1.
    5000001    1    1    2    0    0  0.67063351059E+02 -0.13543921953E+03 -0.84299644676E+03  0.87218649639E+03  0.16500000000E+03 0.  0.
   -5000001    1    1    2    0    0 -0.67063351059E+02  0.13543921953E+03 -0.15903051644E+04  0.16059691127E+04  0.16500000000E+03 0.  0.
<mgrwt>
<rscale>  0 0.46935966E+03</rscale>
<asrwt>0</asrwt>
<pdfrwt beam="1">  1        2 0.35081820E+00 0.46935966E+03</pdfrwt>
<pdfrwt beam="2">  1       -2 0.32038585E-02 0.46935966E+03</pdfrwt>
<totfact> 0.19960516E+03</totfact>
</mgrwt>
</event>
<event>
 4    1  0.5531008E-005  0.3824422E+03  0.7818608E-02  0.1050035E+00
          2   -1    0    0  501    0  0.00000000000E+00  0.00000000000E+00  0.39035171186E+04  0.39035171186E+04  0.25500000000E-02 0.  1.
         -2   -1    0    0    0  501 -0.00000000000E+00 -0.00000000000E+00 -0.93673244710E+01  0.93673248181E+01  0.25500000000E-02 0. -1.
    5000001    1    1    2    0    0 -0.49256594122E+02  0.82434741945E+02  0.20585977432E+04  0.20674311033E+04  0.16500000000E+03 0.  0.
   -5000001    1    1    2    0    0  0.49256594122E+02 -0.82434741945E+02  0.18355520510E+04  0.18454533401E+04  0.16500000000E+03 0.  0.
<mgrwt>
<rscale>  0 0.38244222E+03</rscale>
<asrwt>0</asrwt>
<pdfrwt beam="1">  1        2 0.55764717E+00 0.38244222E+03</pdfrwt>
<pdfrwt beam="2">  1       -2 0.13381848E-02 0.38244222E+03</pdfrwt>
<totfact> 0.11434358E+03</totfact>
</mgrwt>
</event>
<event>
 4    1  0.5531008E-005  0.5339690E+03  0.7818608E-02  0.1005274E+00
          2   -1    0    0  501    0  0.00000000000E+00  0.00000000000E+00  0.34294782751E+03  0.34294782751E+03  0.25500000000E-02 0.  1.
         -2   -1    0    0    0  501 -0.00000000000E+00 -0.00000000000E+00 -0.20784709782E+03  0.20784709784E+03  0.25500000000E-02 0. -1.
    5000001    1    1    2    0    0 -0.14694270733E+03  0.14905558140E+03  0.51372235536E+02  0.27142923971E+03  0.16500000000E+03 0.  0.
   -5000001    1    1    2    0    0  0.14694270733E+03 -0.14905558140E+03  0.83728494149E+02  0.27936568564E+03  0.16500000000E+03 0.  0.
<mgrwt>
<rscale>  0 0.53396895E+03</rscale>
<asrwt>0</asrwt>
<pdfrwt beam="1">  1        2 0.48992547E-01 0.53396895E+03</pdfrwt>
<pdfrwt beam="2">  1       -2 0.29692442E-01 0.53396895E+03</pdfrwt>
<totfact> 0.10745305E+03</totfact>
</mgrwt>
</event>
<event>
 4    1  0.5531008E-005  0.6683486E+03  0.7818608E-02  0.9772946E-01
          2   -1    0    0  501    0  0.00000000000E+00  0.00000000000E+00  0.25014878357E+04  0.25014878357E+04  0.25500000000E-02 0.  1.
         -2   -1    0    0    0  501 -0.00000000000E+00 -0.00000000000E+00 -0.44642418693E+02  0.44642418766E+02  0.25500000000E-02 0. -1.
    5000001    1    1    2    0    0  0.10126346989E+03 -0.22146631399E+03  0.62432009293E+03  0.69014650401E+03  0.16500000000E+03 0.  0.
   -5000001    1    1    2    0    0 -0.10126346989E+03  0.22146631399E+03  0.18325253241E+04  0.18559837504E+04  0.16500000000E+03 0.  0.
<mgrwt>
<rscale>  0 0.66834861E+03</rscale>
<asrwt>0</asrwt>
<pdfrwt beam="1">  1        2 0.35735546E+00 0.66834861E+03</pdfrwt>
<pdfrwt beam="2">  1       -2 0.63774874E-02 0.66834861E+03</pdfrwt>
<totfact> 0.64484632E+02</totfact>
</mgrwt>
</event>
<event>
 4    1  0.5531008E-005  0.5903285E+03  0.7818608E-02  0.9925677E-01
         -2   -1    0    0    0  501 -0.00000000000E+00  0.00000000000E+00  0.10569211811E+03  0.10569211814E+03  0.25500000000E-02 0. -1.
          2   -1    0    0  501    0  0.00000000000E+00 -0.00000000000E+00 -0.82429919237E+03  0.82429919237E+03  0.25500000000E-02 0.  1.
    5000001    1    1    2    0    0 -0.20888323444E+03  0.12750342635E+03 -0.35496101548E+03  0.46164017576E+03  0.16500000000E+03 0.  0.
   -5000001    1    1    2    0    0  0.20888323444E+03 -0.12750342635E+03 -0.36364605878E+03  0.46835113475E+03  0.16500000000E+03 0.  0.
<mgrwt>
<rscale>  0 0.59032848E+03</rscale>
<asrwt>0</asrwt>
<pdfrwt beam="1">  1        2 0.11775702E+00 0.59032848E+03</pdfrwt>
<pdfrwt beam="2">  1       -2 0.15098874E-01 0.59032848E+03</pdfrwt>
<totfact> 0.12696258E+03</totfact>
</mgrwt>
</event>
<event>
 4    1  0.5531008E-005  0.4565803E+03  0.7818608E-02  0.1025778E+00
         -2   -1    0    0    0  501 -0.00000000000E+00  0.00000000000E+00  0.99875954171E+02  0.99875954203E+02  0.25500000000E-02 0. -1.
          2   -1    0    0  501    0  0.00000000000E+00 -0.00000000000E+00 -0.52181124977E+03  0.52181124978E+03  0.25500000000E-02 0.  1.
    5000001    1    1    2    0    0 -0.33631179050E+02 -0.34930419223E+02 -0.41539249623E+03  0.44958549389E+03  0.16500000000E+03 0.  0.
   -5000001    1    1    2    0    0  0.33631179050E+02  0.34930419223E+02 -0.65427993658E+01  0.17210171009E+03  0.16500000000E+03 0.  0.
<mgrwt>
<rscale>  0 0.45658032E+03</rscale>
<asrwt>0</asrwt>
<pdfrwt beam="1">  1        2 0.74544462E-01 0.45658032E+03</pdfrwt>
<pdfrwt beam="2">  1       -2 0.14267994E-01 0.45658032E+03</pdfrwt>
<totfact> 0.24174122E+03</totfact>
</mgrwt>
</event>
<event>
 4    1  0.5531008E-005  0.6313593E+03  0.7818608E-02  0.9842400E-01
         -2   -1    0    0    0  501 -0.00000000000E+00  0.00000000000E+00  0.54841745083E+03  0.54841745083E+03  0.25500000000E-02 0. -1.
          2   -1    0    0  501    0  0.00000000000E+00 -0.00000000000E+00 -0.18171126741E+03  0.18171126743E+03  0.25500000000E-02 0.  1.
    5000001    1    1    2    0    0  0.20556473735E+03 -0.52261550578E+02 -0.82131050973E+01  0.26885049006E+03  0.16500000000E+03 0.  0.
   -5000001    1    1    2    0    0 -0.20556473735E+03  0.52261550578E+02  0.37491928852E+03  0.46127822820E+03  0.16500000000E+03 0.  0.
<mgrwt>
<rscale>  0 0.63135926E+03</rscale>
<asrwt>0</asrwt>
<pdfrwt beam="1">  1        2 0.25958753E-01 0.63135926E+03</pdfrwt>
<pdfrwt beam="2">  1       -2 0.78345349E-01 0.63135926E+03</pdfrwt>
<totfact> 0.30712470E+02</totfact>
</mgrwt>
</event>
<event>
 4    1  0.5531008E-005  0.4138063E+03  0.7818608E-02  0.1039101E+00
         -2   -1    0    0    0  501 -0.00000000000E+00  0.00000000000E+00  0.10212315300E+03  0.10212315303E+03  0.25500000000E-02 0. -1.
          2   -1    0    0  501    0  0.00000000000E+00 -0.00000000000E+00 -0.41918916532E+03  0.41918916532E+03  0.25500000000E-02 0.  1.
    5000001    1    1    2    0    0 -0.16245537739E+02 -0.12257683774E+03 -0.13689817868E+03  0.24749769690E+03  0.16500000000E+03 0.  0.
   -5000001    1    1    2    0    0  0.16245537739E+02  0.12257683774E+03 -0.18016783363E+03  0.27381462145E+03  0.16500000000E+03 0.  0.
<mgrwt>
<rscale>  0 0.41380633E+03</rscale>
<asrwt>0</asrwt>
<pdfrwt beam="1">  1        2 0.59884166E-01 0.41380633E+03</pdfrwt>
<pdfrwt beam="2">  1       -2 0.14589022E-01 0.41380633E+03</pdfrwt>
<totfact> 0.29711491E+03</totfact>
</mgrwt>
</event>
<event>
 4    1  0.5531008E-005  0.5218911E+03  0.7818608E-02  0.1008218E+00
         -2   -1    0    0    0  501 -0.00000000000E+00  0.00000000000E+00  0.62411349588E+02  0.62411349640E+02  0.25500000000E-02 0.  1.
          2   -1    0    0  501    0  0.00000000000E+00 -0.00000000000E+00 -0.10910286598E+04  0.10910286598E+04  0.25500000000E-02 0. -1.
    5000001    1    1    2    0    0 -0.12836987882E+03  0.25833393459E+02 -0.85470519362E+03  0.88027959082E+03  0.16500000000E+03 0.  0.
   -5000001    1    1    2    0    0  0.12836987882E+03 -0.25833393459E+02 -0.17391211659E+03  0.27316041863E+03  0.16500000000E+03 0.  0.
<mgrwt>
<rscale>  0 0.52189107E+03</rscale>
<asrwt>0</asrwt>
<pdfrwt beam="1">  1        2 0.15586123E+00 0.52189107E+03</pdfrwt>
<pdfrwt beam="2">  1       -2 0.89159078E-02 0.52189107E+03</pdfrwt>
<totfact> 0.20541547E+03</totfact>
</mgrwt>
</event>
<event>
 4    1  0.5531008E-005  0.3576118E+03  0.7818608E-02  0.1059533E+00
          2   -1    0    0  501    0  0.00000000000E+00  0.00000000000E+00  0.32923169601E+03  0.32923169602E+03  0.25500000000E-02 0.  1.
         -2   -1    0    0    0  501 -0.00000000000E+00 -0.00000000000E+00 -0.97109595049E+02  0.97109595082E+02  0.25500000000E-02 0. -1.
    5000001    1    1    2    0    0  0.33281938453E+02  0.88799865214E+01  0.44928000714E+02  0.17444215900E+03  0.16500000000E+03 0.  0.
   -5000001    1    1    2    0    0 -0.33281938453E+02 -0.88799865214E+01  0.18719410025E+03  0.25189913211E+03  0.16500000000E+03 0.  0.
<mgrwt>
<rscale>  0 0.35761184E+03</rscale>
<asrwt>0</asrwt>
<pdfrwt beam="1">  1        2 0.47033100E-01 0.35761184E+03</pdfrwt>
<pdfrwt beam="2">  1       -2 0.13872799E-01 0.35761184E+03</pdfrwt>
<totfact> 0.41925382E+03</totfact>
</mgrwt>
</event>
<event>
 4    1  0.5531008E-005  0.3907622E+03  0.7818608E-02  0.1047026E+00
         -2   -1    0    0    0  501 -0.00000000000E+00  0.00000000000E+00  0.12891640931E+02  0.12891641183E+02  0.25500000000E-02 0. -1.
          2   -1    0    0  501    0  0.00000000000E+00 -0.00000000000E+00 -0.29611259016E+04  0.29611259016E+04  0.25500000000E-02 0.  1.
    5000001    1    1    2    0    0  0.28031834613E+02 -0.88250631496E+02 -0.11032265182E+04  0.11193336000E+04  0.16500000000E+03 0.  0.
   -5000001    1    1    2    0    0 -0.28031834613E+02  0.88250631496E+02 -0.18450077425E+04  0.18546839428E+04  0.16500000000E+03 0.  0.
<mgrwt>
<rscale>  0 0.39076219E+03</rscale>
<asrwt>0</asrwt>
<pdfrwt beam="1">  1        2 0.42301755E+00 0.39076219E+03</pdfrwt>
<pdfrwt beam="2">  1       -2 0.18416649E-02 0.39076219E+03</pdfrwt>
<totfact> 0.25153792E+03</totfact>
</mgrwt>
</event>
<event>
 4    1  0.5531008E-005  0.4012298E+03  0.7818608E-02  0.1043355E+00
          2   -1    0    0  501    0  0.00000000000E+00  0.00000000000E+00  0.12793800038E+04  0.12793800038E+04  0.25500000000E-02 0.  1.
         -2   -1    0    0    0  501 -0.00000000000E+00 -0.00000000000E+00 -0.31457684032E+02  0.31457684136E+02  0.25500000000E-02 0. -1.
    5000001    1    1    2    0    0  0.84310604106E+02 -0.25336929953E+02  0.86115649945E+03  0.88122968319E+03  0.16500000000E+03 0.  0.
   -5000001    1    1    2    0    0 -0.84310604106E+02  0.25336929953E+02  0.38676582036E+03  0.42960800479E+03  0.16500000000E+03 0.  0.
<mgrwt>
<rscale>  0 0.40122977E+03</rscale>
<asrwt>0</asrwt>
<pdfrwt beam="1">  1        2 0.18276853E+00 0.40122977E+03</pdfrwt>
<pdfrwt beam="2">  1       -2 0.44939558E-02 0.40122977E+03</pdfrwt>
<totfact> 0.47000019E+03</totfact>
</mgrwt>
</event>
<event>
 4    1  0.5531008E-005  0.7122976E+03  0.7818608E-02  0.9696430E-01
         -2   -1    0    0    0  501 -0.00000000000E+00  0.00000000000E+00  0.23777060036E+03  0.23777060037E+03  0.25500000000E-02 0. -1.
          2   -1    0    0  501    0  0.00000000000E+00 -0.00000000000E+00 -0.53346365713E+03  0.53346365714E+03  0.25500000000E-02 0.  1.
    5000001    1    1    2    0    0 -0.31231141071E+03 -0.22014676122E+01 -0.19715242544E+03  0.40452112747E+03  0.16500000000E+03 0.  0.
   -5000001    1    1    2    0    0  0.31231141071E+03  0.22014676122E+01 -0.98540631330E+02  0.36671313003E+03  0.16500000000E+03 0.  0.
<mgrwt>
<rscale>  0 0.71229762E+03</rscale>
<asrwt>0</asrwt>
<pdfrwt beam="1">  1        2 0.76209094E-01 0.71229762E+03</pdfrwt>
<pdfrwt beam="2">  1       -2 0.33967229E-01 0.71229762E+03</pdfrwt>
<totfact> 0.50795450E+02</totfact>
</mgrwt>
</event>
<event>
 4    1  0.5531008E-005  0.3542310E+03  0.7818608E-02  0.1060892E+00
         -2   -1    0    0    0  501 -0.00000000000E+00  0.00000000000E+00  0.55513784046E+02  0.55513784105E+02  0.25500000000E-02 0. -1.
          2   -1    0    0  501    0  0.00000000000E+00 -0.00000000000E+00 -0.56508308085E+03  0.56508308086E+03  0.25500000000E-02 0.  1.
    5000001    1    1    2    0    0 -0.59023151145E+02  0.35545431987E+01 -0.29940048595E+03  0.34693229618E+03  0.16500000000E+03 0.  0.
   -5000001    1    1    2    0    0  0.59023151145E+02 -0.35545431987E+01 -0.21016881086E+03  0.27366456878E+03  0.16500000000E+03 0.  0.
<mgrwt>
<rscale>  0 0.35423100E+03</rscale>
<asrwt>0</asrwt>
<pdfrwt beam="1">  1        2 0.80726151E-01 0.35423100E+03</pdfrwt>
<pdfrwt beam="2">  1       -2 0.79305409E-02 0.35423100E+03</pdfrwt>
<totfact> 0.56755993E+03</totfact>
</mgrwt>
</event>
<event>
 4    1  0.5531008E-005  0.6245990E+03  0.7818608E-02  0.9855646E-01
          2   -1    0    0  501    0  0.00000000000E+00  0.00000000000E+00  0.94682586401E+03  0.94682586401E+03  0.25500000000E-02 0.  1.
         -2   -1    0    0    0  501 -0.00000000000E+00 -0.00000000000E+00 -0.10300834978E+03  0.10300834981E+03  0.25500000000E-02 0. -1.
    5000001    1    1    2    0    0 -0.75743415080E+02  0.25306275159E+03  0.46053634001E+03  0.55596451473E+03  0.16500000000E+03 0.  0.
   -5000001    1    1    2    0    0  0.75743415080E+02 -0.25306275159E+03  0.38328117422E+03  0.49386969909E+03  0.16500000000E+03 0.  0.
<mgrwt>
<rscale>  0 0.62459897E+03</rscale>
<asrwt>0</asrwt>
<pdfrwt beam="1">  1        2 0.13526083E+00 0.62459897E+03</pdfrwt>
<pdfrwt beam="2">  1       -2 0.14715479E-01 0.62459897E+03</pdfrwt>
<totfact> 0.11020633E+03</totfact>
</mgrwt>
</event>
<event>
 4    1  0.5531008E-005  0.9139578E+03  0.7818608E-02  0.9408300E-01
         -2   -1    0    0    0  501 -0.00000000000E+00  0.00000000000E+00  0.10930979492E+03  0.10930979495E+03  0.25500000000E-02 0. -1.
          2   -1    0    0  501    0  0.00000000000E+00 -0.00000000000E+00 -0.19104390996E+04  0.19104390996E+04  0.25500000000E-02 0.  1.
    5000001    1    1    2    0    0 -0.12573376370E+03  0.14027902001E+03 -0.55825942504E+02  0.25657107913E+03  0.16500000000E+03 0.  0.
   -5000001    1    1    2    0    0  0.12573376370E+03 -0.14027902001E+03 -0.17453033621E+04  0.17631778154E+04  0.16500000000E+03 0.  0.
<mgrwt>
<rscale>  0 0.91395778E+03</rscale>
<asrwt>0</asrwt>
<pdfrwt beam="1">  1        2 0.27291985E+00 0.91395778E+03</pdfrwt>
<pdfrwt beam="2">  1       -2 0.15615686E-01 0.91395778E+03</pdfrwt>
<totfact> 0.29401527E+02</totfact>
</mgrwt>
</event>
<event>
 4    1  0.5531008E-005  0.6473544E+03  0.7818608E-02  0.9811756E-01
         -2   -1    0    0    0  501 -0.00000000000E+00  0.00000000000E+00  0.74414896988E+02  0.74414897032E+02  0.25500000000E-02 0. -1.
          2   -1    0    0  501    0  0.00000000000E+00 -0.00000000000E+00 -0.14078757648E+04  0.14078757648E+04  0.25500000000E-02 0.  1.
    5000001    1    1    2    0    0  0.14484044620E+03  0.23649731909E+03 -0.60915778702E+03  0.68935328118E+03  0.16500000000E+03 0.  0.
   -5000001    1    1    2    0    0 -0.14484044620E+03 -0.23649731909E+03 -0.72430308083E+03  0.79293738069E+03  0.16500000000E+03 0.  0.
<mgrwt>
<rscale>  0 0.64735440E+03</rscale>
<asrwt>0</asrwt>
<pdfrwt beam="1">  1        2 0.20112509E+00 0.64735440E+03</pdfrwt>
<pdfrwt beam="2">  1       -2 0.10630700E-01 0.64735440E+03</pdfrwt>
<totfact> 0.10294211E+03</totfact>
</mgrwt>
</event>
<event>
 4    1  0.5531008E-005  0.6310668E+03  0.7818608E-02  0.9842969E-01
          2   -1    0    0  501    0  0.00000000000E+00  0.00000000000E+00  0.54374757799E+03  0.54374757800E+03  0.25500000000E-02 0.  1.
         -2   -1    0    0    0  501 -0.00000000000E+00 -0.00000000000E+00 -0.18310209279E+03  0.18310209281E+03  0.25500000000E-02 0. -1.
    5000001    1    1    2    0    0 -0.14904199563E+03 -0.22387037794E+03  0.18286107925E+03  0.36468429756E+03  0.16500000000E+03 0.  0.
   -5000001    1    1    2    0    0  0.14904199563E+03  0.22387037794E+03  0.17778440595E+03  0.36216537325E+03  0.16500000000E+03 0.  0.
<mgrwt>
<rscale>  0 0.63106678E+03</rscale>
<asrwt>0</asrwt>
<pdfrwt beam="1">  1        2 0.77678225E-01 0.63106678E+03</pdfrwt>
<pdfrwt beam="2">  1       -2 0.26157442E-01 0.63106678E+03</pdfrwt>
<totfact> 0.80698659E+02</totfact>
</mgrwt>
</event>
<event>
 4    1  0.5531008E-005  0.5771586E+03  0.7818608E-02  0.9953962E-01
         -2   -1    0    0    0  501 -0.00000000000E+00  0.00000000000E+00  0.73185574043E+02  0.73185574087E+02  0.25500000000E-02 0. -1.
          2   -1    0    0  501    0  0.00000000000E+00 -0.00000000000E+00 -0.11379021123E+04  0.11379021123E+04  0.25500000000E-02 0.  1.
    5000001    1    1    2    0    0  0.15986564734E+03  0.15912586178E+03 -0.38140808198E+03  0.47283738228E+03  0.16500000000E+03 0.  0.
   -5000001    1    1    2    0    0 -0.15986564734E+03 -0.15912586178E+03 -0.68330845625E+03  0.73825030407E+03  0.16500000000E+03 0.  0.
<mgrwt>
<rscale>  0 0.57715862E+03</rscale>
<asrwt>0</asrwt>
<pdfrwt beam="1">  1        2 0.16255743E+00 0.57715862E+03</pdfrwt>
<pdfrwt beam="2">  1       -2 0.10455083E-01 0.57715862E+03</pdfrwt>
<totfact> 0.14916096E+03</totfact>
</mgrwt>
</event>
<event>
 4    1  0.5531008E-005  0.4042087E+03  0.7818608E-02  0.1042332E+00
          2   -1    0    0  501    0  0.00000000000E+00  0.00000000000E+00  0.57158487582E+03  0.57158487583E+03  0.25500000000E-02 0.  1.
         -2   -1    0    0    0  501 -0.00000000000E+00 -0.00000000000E+00 -0.71461241286E+02  0.71461241331E+02  0.25500000000E-02 0. -1.
    5000001    1    1    2    0    0  0.88695319493E+02 -0.24864284174E+02  0.36407420772E+03  0.41019522310E+03  0.16500000000E+03 0.  0.
   -5000001    1    1    2    0    0 -0.88695319493E+02  0.24864284174E+02  0.13604942682E+03  0.23285089406E+03  0.16500000000E+03 0.  0.
<mgrwt>
<rscale>  0 0.40420868E+03</rscale>
<asrwt>0</asrwt>
<pdfrwt beam="1">  1        2 0.81654984E-01 0.40420868E+03</pdfrwt>
<pdfrwt beam="2">  1       -2 0.10208749E-01 0.40420868E+03</pdfrwt>
<totfact> 0.37601767E+03</totfact>
</mgrwt>
</event>
<event>
 4    1  0.5531008E-005  0.7128046E+03  0.7818608E-02  0.9695582E-01
          2   -1    0    0  501    0  0.00000000000E+00  0.00000000000E+00  0.68810949299E+03  0.68810949299E+03  0.25500000000E-02 0.  1.
         -2   -1    0    0    0  501 -0.00000000000E+00 -0.00000000000E+00 -0.18459648950E+03  0.18459648952E+03  0.25500000000E-02 0. -1.
    5000001    1    1    2    0    0  0.22807864683E+03 -0.17479294584E+03  0.41244286346E+03  0.52906196109E+03  0.16500000000E+03 0.  0.
   -5000001    1    1    2    0    0 -0.22807864683E+03  0.17479294584E+03  0.91070140032E+02  0.34364402142E+03  0.16500000000E+03 0.  0.
<mgrwt>
<rscale>  0 0.71280459E+03</rscale>
<asrwt>0</asrwt>
<pdfrwt beam="1">  1        2 0.98301356E-01 0.71280459E+03</pdfrwt>
<pdfrwt beam="2">  1       -2 0.26370927E-01 0.71280459E+03</pdfrwt>
<totfact> 0.60013704E+02</totfact>
</mgrwt>
</event>
<event>
 4    1  0.5531008E-005  0.5534650E+03  0.7818608E-02  0.1000695E+00
          2   -1    0    0  501    0  0.00000000000E+00  0.00000000000E+00  0.28171815991E+03  0.28171815992E+03  0.25500000000E-02 0.  1.
         -2   -1    0    0    0  501 -0.00000000000E+00 -0.00000000000E+00 -0.27183508043E+03  0.27183508044E+03  0.25500000000E-02 0. -1.
    5000001    1    1    2    0    0 -0.13367977309E+03 -0.15418560738E+03  0.92775784811E+02  0.27834480326E+03  0.16500000000E+03 0.  0.
   -5000001    1    1    2    0    0  0.13367977309E+03  0.15418560738E+03 -0.82892705326E+02  0.27520843710E+03  0.16500000000E+03 0.  0.
<mgrwt>
<rscale>  0 0.55346501E+03</rscale>
<asrwt>0</asrwt>
<pdfrwt beam="1">  1        2 0.40245452E-01 0.55346501E+03</pdfrwt>
<pdfrwt beam="2">  1       -2 0.38833583E-01 0.55346501E+03</pdfrwt>
<totfact> 0.80495930E+02</totfact>
</mgrwt>
</event>
<event>
 4    1  0.5531008E-005  0.5920633E+03  0.7818608E-02  0.9922010E-01
          2   -1    0    0  501    0  0.00000000000E+00  0.00000000000E+00  0.15749397337E+04  0.15749397337E+04  0.25500000000E-02 0.  1.
         -2   -1    0    0    0  501 -0.00000000000E+00 -0.00000000000E+00 -0.55643235571E+02  0.55643235629E+02  0.25500000000E-02 0. -1.
    5000001    1    1    2    0    0 -0.20391022566E+03 -0.10335037635E+03  0.10082639578E+04  0.10469392957E+04  0.16500000000E+03 0.  0.
   -5000001    1    1    2    0    0  0.20391022566E+03  0.10335037635E+03  0.51103254036E+03  0.58364367359E+03  0.16500000000E+03 0.  0.
<mgrwt>
<rscale>  0 0.59206332E+03</rscale>
<asrwt>0</asrwt>
<pdfrwt beam="1">  1        2 0.22499137E+00 0.59206332E+03</pdfrwt>
<pdfrwt beam="2">  1       -2 0.79490343E-02 0.59206332E+03</pdfrwt>
<totfact> 0.13477264E+03</totfact>
</mgrwt>
</event>
<event>
 4    1  0.5531008E-005  0.9068401E+03  0.7818608E-02  0.9417071E-01
         -2   -1    0    0    0  501 -0.00000000000E+00  0.00000000000E+00  0.14746741089E+03  0.14746741091E+03  0.25500000000E-02 0. -1.
          2   -1    0    0  501    0  0.00000000000E+00 -0.00000000000E+00 -0.13941367184E+04  0.13941367184E+04  0.25500000000E-02 0.  1.
    5000001    1    1    2    0    0  0.38466668272E+03  0.14837011058E+03 -0.77897821613E+03  0.89666839339E+03  0.16500000000E+03 0.  0.
   -5000001    1    1    2    0    0 -0.38466668272E+03 -0.14837011058E+03 -0.46769109136E+03  0.64493573591E+03  0.16500000000E+03 0.  0.
<mgrwt>
<rscale>  0 0.90684008E+03</rscale>
<asrwt>0</asrwt>
<pdfrwt beam="1">  1        2 0.19916238E+00 0.90684008E+03</pdfrwt>
<pdfrwt beam="2">  1       -2 0.21066774E-01 0.90684008E+03</pdfrwt>
<totfact> 0.32486203E+02</totfact>
</mgrwt>
</event>
<event>
 4    1  0.5531008E-005  0.4498876E+03  0.7818608E-02  0.1027756E+00
          2   -1    0    0  501    0  0.00000000000E+00  0.00000000000E+00  0.87920037985E+03  0.87920037986E+03  0.25500000000E-02 0.  1.
         -2   -1    0    0    0  501 -0.00000000000E+00 -0.00000000000E+00 -0.57551972676E+02  0.57551972732E+02  0.25500000000E-02 0. -1.
    5000001    1    1    2    0    0 -0.52022629436E+01  0.14875410413E+03  0.48354814273E+03  0.53216412259E+03  0.16500000000E+03 0.  0.
   -5000001    1    1    2    0    0  0.52022629436E+01 -0.14875410413E+03  0.33810026445E+03  0.40458823000E+03  0.16500000000E+03 0.  0.
<mgrwt>
<rscale>  0 0.44988761E+03</rscale>
<asrwt>0</asrwt>
<pdfrwt beam="1">  1        2 0.12560005E+00 0.44988761E+03</pdfrwt>
<pdfrwt beam="2">  1       -2 0.82217105E-02 0.44988761E+03</pdfrwt>
<totfact> 0.31481777E+03</totfact>
</mgrwt>
</event>
<event>
 4    1  0.5531008E-005  0.5486917E+03  0.7818608E-02  0.1001797E+00
         -2   -1    0    0    0  501 -0.00000000000E+00  0.00000000000E+00  0.44444587322E+02  0.44444587395E+02  0.25500000000E-02 0. -1.
          2   -1    0    0  501    0  0.00000000000E+00 -0.00000000000E+00 -0.16934714915E+04  0.16934714915E+04  0.25500000000E-02 0.  1.
    5000001    1    1    2    0    0  0.15526146268E+03 -0.85530736646E+02 -0.41619121282E+03  0.48152025330E+03  0.16500000000E+03 0.  0.
   -5000001    1    1    2    0    0 -0.15526146268E+03  0.85530736646E+02 -0.12328356913E+04  0.12563958256E+04  0.16500000000E+03 0.  0.
<mgrwt>
<rscale>  0 0.54869169E+03</rscale>
<asrwt>0</asrwt>
<pdfrwt beam="1">  1        2 0.24192446E+00 0.54869169E+03</pdfrwt>
<pdfrwt beam="2">  1       -2 0.63492278E-02 0.54869169E+03</pdfrwt>
<totfact> 0.16746793E+03</totfact>
</mgrwt>
</event>
<event>
 4    1  0.5531008E-005  0.6632744E+03  0.7818608E-02  0.9782185E-01
          2   -1    0    0  501    0  0.00000000000E+00  0.00000000000E+00  0.73183343497E+03  0.73183343498E+03  0.25500000000E-02 0.  1.
         -2   -1    0    0    0  501 -0.00000000000E+00 -0.00000000000E+00 -0.15028450298E+03  0.15028450300E+03  0.25500000000E-02 0. -1.
    5000001    1    1    2    0    0 -0.20325574338E+03  0.53418147914E+02  0.55203939243E+03  0.61330162770E+03  0.16500000000E+03 0.  0.
   -5000001    1    1    2    0    0  0.20325574338E+03 -0.53418147914E+02  0.29509539566E+02  0.26881631028E+03  0.16500000000E+03 0.  0.
<mgrwt>
<rscale>  0 0.66327437E+03</rscale>
<asrwt>0</asrwt>
<pdfrwt beam="1">  1        2 0.10454763E+00 0.66327437E+03</pdfrwt>
<pdfrwt beam="2">  1       -2 0.21469215E-01 0.66327437E+03</pdfrwt>
<totfact> 0.80431772E+02</totfact>
</mgrwt>
</event>
<event>
 4    1  0.5531008E-005  0.4353445E+03  0.7818608E-02  0.1032185E+00
         -2   -1    0    0    0  501 -0.00000000000E+00  0.00000000000E+00  0.44055795261E+02  0.44055795335E+02  0.25500000000E-02 0. -1.
          2   -1    0    0  501    0  0.00000000000E+00 -0.00000000000E+00 -0.10754820108E+04  0.10754820108E+04  0.25500000000E-02 0.  1.
    5000001    1    1    2    0    0 -0.13834019194E+03  0.30463710491E+02 -0.54013246253E+03  0.58226636812E+03  0.16500000000E+03 0.  0.
   -5000001    1    1    2    0    0  0.13834019194E+03 -0.30463710491E+02 -0.49129375297E+03  0.53727143798E+03  0.16500000000E+03 0.  0.
<mgrwt>
<rscale>  0 0.43534453E+03</rscale>
<asrwt>0</asrwt>
<pdfrwt beam="1">  1        2 0.15364027E+00 0.43534453E+03</pdfrwt>
<pdfrwt beam="2">  1       -2 0.62936858E-02 0.43534453E+03</pdfrwt>
<totfact> 0.36343634E+03</totfact>
</mgrwt>
</event>
<event>
 4    1  0.5531008E-005  0.4658811E+03  0.7818608E-02  0.1023089E+00
         -2   -1    0    0    0  501 -0.00000000000E+00  0.00000000000E+00  0.18223420445E+02  0.18223420624E+02  0.25500000000E-02 0. -1.
          2   -1    0    0  501    0  0.00000000000E+00 -0.00000000000E+00 -0.29775586679E+04  0.29775586679E+04  0.25500000000E-02 0.  1.
    5000001    1    1    2    0    0  0.15118412213E+03 -0.87984625360E+01 -0.18915244629E+04  0.19047372117E+04  0.16500000000E+03 0.  0.
   -5000001    1    1    2    0    0 -0.15118412213E+03  0.87984625360E+01 -0.10678107845E+04  0.10910448768E+04  0.16500000000E+03 0.  0.
<mgrwt>
<rscale>  0 0.46588112E+03</rscale>
<asrwt>0</asrwt>
<pdfrwt beam="1">  1        2 0.42536521E+00 0.46588112E+03</pdfrwt>
<pdfrwt beam="2">  1       -2 0.26033477E-02 0.46588112E+03</pdfrwt>
<totfact> 0.14606231E+03</totfact>
</mgrwt>
</event>
<event>
 4    1  0.5531008E-005  0.5355760E+03  0.7818608E-02  0.1004889E+00
          2   -1    0    0  501    0  0.00000000000E+00  0.00000000000E+00  0.63582080268E+03  0.63582080268E+03  0.25500000000E-02 0.  1.
         -2   -1    0    0    0  501 -0.00000000000E+00 -0.00000000000E+00 -0.11278398497E+03  0.11278398500E+03  0.25500000000E-02 0. -1.
    5000001    1    1    2    0    0 -0.17478091798E+03 -0.11013027102E+03  0.20207910369E+03  0.33277321111E+03  0.16500000000E+03 0.  0.
   -5000001    1    1    2    0    0  0.17478091798E+03  0.11013027102E+03  0.32095771401E+03  0.41583157657E+03  0.16500000000E+03 0.  0.
<mgrwt>
<rscale>  0 0.53557597E+03</rscale>
<asrwt>0</asrwt>
<pdfrwt beam="1">  1        2 0.90831541E-01 0.53557597E+03</pdfrwt>
<pdfrwt beam="2">  1       -2 0.16111998E-01 0.53557597E+03</pdfrwt>
<totfact> 0.15686958E+03</totfact>
</mgrwt>
</event>
<event>
 4    1  0.5531008E-005  0.4079490E+03  0.7818608E-02  0.1041061E+00
          2   -1    0    0  501    0  0.00000000000E+00  0.00000000000E+00  0.11122027681E+04  0.11122027681E+04  0.25500000000E-02 0.  1.
         -2   -1    0    0    0  501 -0.00000000000E+00 -0.00000000000E+00 -0.37408275813E+02  0.37408275900E+02  0.25500000000E-02 0. -1.
    5000001    1    1    2    0    0  0.25140634999E+02 -0.86203043846E+02  0.31341159981E+03  0.36539683523E+03  0.16500000000E+03 0.  0.
   -5000001    1    1    2    0    0 -0.25140634999E+02  0.86203043846E+02  0.76138289250E+03  0.78421420880E+03  0.16500000000E+03 0.  0.
<mgrwt>
<rscale>  0 0.40794896E+03</rscale>
<asrwt>0</asrwt>
<pdfrwt beam="1">  1        2 0.15888609E+00 0.40794896E+03</pdfrwt>
<pdfrwt beam="2">  1       -2 0.53440401E-02 0.40794896E+03</pdfrwt>
<totfact> 0.44581836E+03</totfact>
</mgrwt>
</event>
<event>
 4    1  0.5531008E-005  0.3934244E+03  0.7818608E-02  0.1046081E+00
         -2   -1    0    0    0  501 -0.00000000000E+00  0.00000000000E+00  0.70083945527E+02  0.70083945573E+02  0.25500000000E-02 0. -1.
          2   -1    0    0  501    0  0.00000000000E+00 -0.00000000000E+00 -0.55213357297E+03  0.55213357297E+03  0.25500000000E-02 0.  1.
    5000001    1    1    2    0    0  0.87060643953E+02 -0.41689038901E+02 -0.16763770040E+03  0.25425367310E+03  0.16500000000E+03 0.  0.
   -5000001    1    1    2    0    0 -0.87060643953E+02  0.41689038901E+02 -0.31441192704E+03  0.36796384544E+03  0.16500000000E+03 0.  0.
<mgrwt>
<rscale>  0 0.39342445E+03</rscale>
<asrwt>0</asrwt>
<pdfrwt beam="1">  1        2 0.78876222E-01 0.39342445E+03</pdfrwt>
<pdfrwt beam="2">  1       -2 0.10011993E-01 0.39342445E+03</pdfrwt>
<totfact> 0.40343346E+03</totfact>
</mgrwt>
</event>
<event>
 4    1  0.5531008E-005  0.9776454E+03  0.7818608E-02  0.9333409E-01
         -2   -1    0    0    0  501 -0.00000000000E+00  0.00000000000E+00  0.21394059641E+03  0.21394059642E+03  0.25500000000E-02 0. -1.
          2   -1    0    0  501    0  0.00000000000E+00 -0.00000000000E+00 -0.11168877133E+04  0.11168877133E+04  0.25500000000E-02 0.  1.
    5000001    1    1    2    0    0 -0.36886562508E+03  0.23555112087E+03 -0.25811518401E+03  0.53422338785E+03  0.16500000000E+03 0.  0.
   -5000001    1    1    2    0    0  0.36886562508E+03 -0.23555112087E+03 -0.64483193289E+03  0.79660492189E+03  0.16500000000E+03 0.  0.
<mgrwt>
<rscale>  0 0.97764538E+03</rscale>
<asrwt>0</asrwt>
<pdfrwt beam="1">  1        2 0.15955538E+00 0.97764538E+03</pdfrwt>
<pdfrwt beam="2">  1       -2 0.30562943E-01 0.97764538E+03</pdfrwt>
<totfact> 0.23566976E+02</totfact>
</mgrwt>
</event>
<event>
 4    1  0.5531008E-005  0.5206963E+03  0.7818608E-02  0.1008514E+00
         -2   -1    0    0    0  501 -0.00000000000E+00  0.00000000000E+00  0.34836954170E+02  0.34836954263E+02  0.25500000000E-02 0. -1.
          2   -1    0    0  501    0  0.00000000000E+00 -0.00000000000E+00 -0.19456683702E+04  0.19456683702E+04  0.25500000000E-02 0.  1.
    5000001    1    1    2    0    0 -0.94466131098E+02  0.10153082829E+03 -0.39999274625E+03  0.45436940486E+03  0.16500000000E+03 0.  0.
   -5000001    1    1    2    0    0  0.94466131098E+02 -0.10153082829E+03 -0.15108386698E+04  0.15261359196E+04  0.16500000000E+03 0.  0.
<mgrwt>
<rscale>  0 0.52069630E+03</rscale>
<asrwt>0</asrwt>
<pdfrwt beam="1">  1        2 0.27795256E+00 0.52069630E+03</pdfrwt>
<pdfrwt beam="2">  1       -2 0.49767090E-02 0.52069630E+03</pdfrwt>
<totfact> 0.18291610E+03</totfact>
</mgrwt>
</event>
<event>
 4    1  0.5531008E-005  0.4036960E+03  0.7818608E-02  0.1042507E+00
          2   -1    0    0  501    0  0.00000000000E+00  0.00000000000E+00  0.15370365085E+04  0.15370365085E+04  0.25500000000E-02 0.  1.
         -2   -1    0    0    0  501 -0.00000000000E+00 -0.00000000000E+00 -0.26507250962E+02  0.26507251084E+02  0.25500000000E-02 0. -1.
    5000001    1    1    2    0    0 -0.51799524127E+02 -0.17469103044E+02  0.11526888885E+04  0.11657208217E+04  0.16500000000E+03 0.  0.
   -5000001    1    1    2    0    0  0.51799524127E+02  0.17469103044E+02  0.35784036895E+03  0.39782293789E+03  0.16500000000E+03 0.  0.
<mgrwt>
<rscale>  0 0.40369599E+03</rscale>
<asrwt>0</asrwt>
<pdfrwt beam="1">  1        2 0.21957663E+00 0.40369599E+03</pdfrwt>
<pdfrwt beam="2">  1       -2 0.37867503E-02 0.40369599E+03</pdfrwt>
<totfact> 0.44736143E+03</totfact>
</mgrwt>
</event>
<event>
 4    1  0.5531008E-005  0.1219223E+04  0.7818608E-02  0.9096195E-01
         -2   -1    0    0    0  501 -0.00000000000E+00  0.00000000000E+00  0.38584433207E+03  0.38584433208E+03  0.25500000000E-02 0. -1.
          2   -1    0    0  501    0  0.00000000000E+00 -0.00000000000E+00 -0.96315041268E+03  0.96315041269E+03  0.25500000000E-02 0.  1.
    5000001    1    1    2    0    0  0.58352548098E+03 -0.62302409643E+02 -0.29328827287E+03  0.67648103315E+03  0.16500000000E+03 0.  0.
   -5000001    1    1    2    0    0 -0.58352548098E+03  0.62302409643E+02 -0.28401780774E+03  0.67251371162E+03  0.16500000000E+03 0.  0.
<mgrwt>
<rscale>  0 0.12192229E+04</rscale>
<asrwt>0</asrwt>
<pdfrwt beam="1">  1        2 0.13759292E+00 0.12192229E+04</pdfrwt>
<pdfrwt beam="2">  1       -2 0.55120619E-01 0.12192229E+04</pdfrwt>
<totfact> 0.90370079E+01</totfact>
</mgrwt>
</event>
<event>
 4    1  0.5531008E-005  0.4755556E+03  0.7818608E-02  0.1020364E+00
         -2   -1    0    0    0  501 -0.00000000000E+00  0.00000000000E+00  0.53901867839E+02  0.53901867899E+02  0.25500000000E-02 0. -1.
          2   -1    0    0  501    0  0.00000000000E+00 -0.00000000000E+00 -0.10489115099E+04  0.10489115099E+04  0.25500000000E-02 0.  1.
    5000001    1    1    2    0    0 -0.13054054114E+03 -0.95119673822E+02 -0.36581698805E+03  0.43259178676E+03  0.16500000000E+03 0.  0.
   -5000001    1    1    2    0    0  0.13054054114E+03  0.95119673822E+02 -0.62919265398E+03  0.67022159101E+03  0.16500000000E+03 0.  0.
<mgrwt>
<rscale>  0 0.47555563E+03</rscale>
<asrwt>0</asrwt>
<pdfrwt beam="1">  1        2 0.14984449E+00 0.47555563E+03</pdfrwt>
<pdfrwt beam="2">  1       -2 0.77002675E-02 0.47555563E+03</pdfrwt>
<totfact> 0.27456153E+03</totfact>
</mgrwt>
</event>
<event>
 4    1  0.5531008E-005  0.1715121E+04  0.7818608E-02  0.8752787E-01
         -2   -1    0    0    0  501 -0.00000000000E+00  0.00000000000E+00  0.18317141052E+04  0.18317141052E+04  0.25500000000E-02 0.  1.
          2   -1    0    0  501    0  0.00000000000E+00 -0.00000000000E+00 -0.40148721147E+03  0.40148721148E+03  0.25500000000E-02 0. -1.
    5000001    1    1    2    0    0 -0.43121202163E+03 -0.35170811514E+03 -0.10688393236E+03  0.59016233432E+03  0.16500000000E+03 0.  0.
   -5000001    1    1    2    0    0  0.43121202163E+03  0.35170811514E+03  0.15371108261E+04  0.16430389824E+04  0.16500000000E+03 0.  0.
<mgrwt>
<rscale>  0 0.17151207E+04</rscale>
<asrwt>0</asrwt>
<pdfrwt beam="1">  1        2 0.57355315E-01 0.17151207E+04</pdfrwt>
<pdfrwt beam="2">  1       -2 0.26167345E+00 0.17151207E+04</pdfrwt>
<totfact> 0.44738145E+00</totfact>
</mgrwt>
</event>
<event>
 4    1  0.5531008E-005  0.4700913E+03  0.7818608E-02  0.1021894E+00
         -2   -1    0    0    0  501 -0.00000000000E+00  0.00000000000E+00  0.36240726011E+03  0.36240726012E+03  0.25500000000E-02 0. -1.
          2   -1    0    0  501    0  0.00000000000E+00 -0.00000000000E+00 -0.15244303938E+03  0.15244303940E+03  0.25500000000E-02 0.  1.
    5000001    1    1    2    0    0  0.14810218349E+03  0.34545683355E+02  0.28365668004E+02  0.22617973409E+03  0.16500000000E+03 0.  0.
   -5000001    1    1    2    0    0 -0.14810218349E+03 -0.34545683355E+02  0.18159855273E+03  0.28867056543E+03  0.16500000000E+03 0.  0.
<mgrwt>
<rscale>  0 0.47009133E+03</rscale>
<asrwt>0</asrwt>
<pdfrwt beam="1">  1        2 0.21777577E-01 0.47009133E+03</pdfrwt>
<pdfrwt beam="2">  1       -2 0.51772466E-01 0.47009133E+03</pdfrwt>
<totfact> 0.90851010E+02</totfact>
</mgrwt>
</event>
<event>
 4    1  0.5531008E-005  0.5822428E+03  0.7818608E-02  0.9942947E-01
          2   -1    0    0  501    0  0.00000000000E+00  0.00000000000E+00  0.64219470327E+03  0.64219470328E+03  0.25500000000E-02 0.  1.
         -2   -1    0    0    0  501 -0.00000000000E+00 -0.00000000000E+00 -0.13197193620E+03  0.13197193622E+03  0.25500000000E-02 0. -1.
    5000001    1    1    2    0    0  0.89316342808E+02  0.18411470545E+03  0.88769365029E+02  0.27745384125E+03  0.16500000000E+03 0.  0.
   -5000001    1    1    2    0    0 -0.89316342808E+02 -0.18411470545E+03  0.42145340205E+03  0.49671279826E+03  0.16500000000E+03 0.  0.
<mgrwt>
<rscale>  0 0.58224283E+03</rscale>
<asrwt>0</asrwt>
<pdfrwt beam="1">  1        2 0.91742100E-01 0.58224283E+03</pdfrwt>
<pdfrwt beam="2">  1       -2 0.18853134E-01 0.58224283E+03</pdfrwt>
<totfact> 0.11847453E+03</totfact>
</mgrwt>
</event>
<event>
 4    1  0.5531008E-005  0.5212757E+03  0.7818608E-02  0.1008370E+00
         -2   -1    0    0    0  501 -0.00000000000E+00  0.00000000000E+00  0.15154791001E+03  0.15154791003E+03  0.25500000000E-02 0. -1.
          2   -1    0    0  501    0  0.00000000000E+00 -0.00000000000E+00 -0.44825485014E+03  0.44825485015E+03  0.25500000000E-02 0.  1.
    5000001    1    1    2    0    0  0.77098708617E+02 -0.29542529844E+02 -0.36017861061E+03  0.40468580835E+03  0.16500000000E+03 0.  0.
   -5000001    1    1    2    0    0 -0.77098708617E+02  0.29542529844E+02  0.63471670474E+02  0.19511695183E+03  0.16500000000E+03 0.  0.
<mgrwt>
<rscale>  0 0.52127569E+03</rscale>
<asrwt>0</asrwt>
<pdfrwt beam="1">  1        2 0.64036407E-01 0.52127569E+03</pdfrwt>
<pdfrwt beam="2">  1       -2 0.21649702E-01 0.52127569E+03</pdfrwt>
<totfact> 0.14086085E+03</totfact>
</mgrwt>
</event>
<event>
 4    1  0.5531008E-005  0.8239234E+03  0.7818608E-02  0.9526020E-01
          2   -1    0    0  501    0  0.00000000000E+00  0.00000000000E+00  0.11599271443E+04  0.11599271443E+04  0.25500000000E-02 0.  1.
         -2   -1    0    0    0  501 -0.00000000000E+00 -0.00000000000E+00 -0.14631300382E+03  0.14631300384E+03  0.25500000000E-02 0. -1.
    5000001    1    1    2    0    0  0.36369272760E+03 -0.10100519608E+03  0.51251777058E+03  0.65755145419E+03  0.16500000000E+03 0.  0.
   -5000001    1    1    2    0    0 -0.36369272760E+03  0.10100519608E+03  0.50109636991E+03  0.64868869397E+03  0.16500000000E+03 0.  0.
<mgrwt>
<rscale>  0 0.82392336E+03</rscale>
<asrwt>0</asrwt>
<pdfrwt beam="1">  1        2 0.16570388E+00 0.82392336E+03</pdfrwt>
<pdfrwt beam="2">  1       -2 0.20901857E-01 0.82392336E+03</pdfrwt>
<totfact> 0.44611415E+02</totfact>
</mgrwt>
</event>
<event>
 4    1  0.5531008E-005  0.5829974E+03  0.7818608E-02  0.9941323E-01
          2   -1    0    0  501    0  0.00000000000E+00  0.00000000000E+00  0.10905337833E+04  0.10905337833E+04  0.25500000000E-02 0.  1.
         -2   -1    0    0    0  501 -0.00000000000E+00 -0.00000000000E+00 -0.77917347870E+02  0.77917347911E+02  0.25500000000E-02 0. -1.
    5000001    1    1    2    0    0  0.21393821212E+03  0.42781708677E+02  0.30442248973E+03  0.40926505526E+03  0.16500000000E+03 0.  0.
   -5000001    1    1    2    0    0 -0.21393821212E+03 -0.42781708677E+02  0.70819394573E+03  0.75918607598E+03  0.16500000000E+03 0.  0.
<mgrwt>
<rscale>  0 0.58299743E+03</rscale>
<asrwt>0</asrwt>
<pdfrwt beam="1">  1        2 0.15579053E+00 0.58299743E+03</pdfrwt>
<pdfrwt beam="2">  1       -2 0.11131050E-01 0.58299743E+03</pdfrwt>
<totfact> 0.14342518E+03</totfact>
</mgrwt>
</event>
<event>
 4    1  0.5531008E-005  0.6493672E+03  0.7818608E-02  0.9807967E-01
         -2   -1    0    0    0  501 -0.00000000000E+00  0.00000000000E+00  0.49713438099E+02  0.49713438164E+02  0.25500000000E-02 0. -1.
          2   -1    0    0  501    0  0.00000000000E+00 -0.00000000000E+00 -0.21205424024E+04  0.21205424024E+04  0.25500000000E-02 0.  1.
    5000001    1    1    2    0    0  0.49043793264E+02 -0.25680222083E+03 -0.13669708455E+04  0.14014945476E+04  0.16500000000E+03 0.  0.
   -5000001    1    1    2    0    0 -0.49043793264E+02  0.25680222083E+03 -0.70385811874E+03  0.76876129299E+03  0.16500000000E+03 0.  0.
<mgrwt>
<rscale>  0 0.64936724E+03</rscale>
<asrwt>0</asrwt>
<pdfrwt beam="1">  1        2 0.30293457E+00 0.64936724E+03</pdfrwt>
<pdfrwt beam="2">  1       -2 0.71019211E-02 0.64936724E+03</pdfrwt>
<totfact> 0.85095444E+02</totfact>
</mgrwt>
</event>
<event>
 4    1  0.5531008E-005  0.4438040E+03  0.7818608E-02  0.1029586E+00
          2   -1    0    0  501    0  0.00000000000E+00  0.00000000000E+00  0.17049615114E+03  0.17049615116E+03  0.25500000000E-02 0.  1.
         -2   -1    0    0    0  501 -0.00000000000E+00 -0.00000000000E+00 -0.28880706153E+03  0.28880706155E+03  0.25500000000E-02 0. -1.
    5000001    1    1    2    0    0 -0.14350216190E+03  0.34692551661E+02 -0.74472632616E+02  0.23359712460E+03  0.16500000000E+03 0.  0.
   -5000001    1    1    2    0    0  0.14350216190E+03 -0.34692551661E+02 -0.43838277779E+02  0.22570608811E+03  0.16500000000E+03 0.  0.
<mgrwt>
<rscale>  0 0.44380398E+03</rscale>
<asrwt>0</asrwt>
<pdfrwt beam="1">  1        2 0.24356593E-01 0.44380398E+03</pdfrwt>
<pdfrwt beam="2">  1       -2 0.41258152E-01 0.44380398E+03</pdfrwt>
<totfact> 0.12539563E+03</totfact>
</mgrwt>
</event>
<event>
 4    1  0.5531008E-005  0.5173275E+03  0.7818608E-02  0.1009353E+00
          2   -1    0    0  501    0  0.00000000000E+00  0.00000000000E+00  0.63800077626E+03  0.63800077627E+03  0.25500000000E-02 0.  1.
         -2   -1    0    0    0  501 -0.00000000000E+00 -0.00000000000E+00 -0.10486965996E+03  0.10486966000E+03  0.25500000000E-02 0. -1.
    5000001    1    1    2    0    0 -0.57927751394E+02  0.18951700813E+03  0.29562782562E+03  0.39229215138E+03  0.16500000000E+03 0.  0.
   -5000001    1    1    2    0    0  0.57927751394E+02 -0.18951700813E+03  0.23750329067E+03  0.35057828488E+03  0.16500000000E+03 0.  0.
<mgrwt>
<rscale>  0 0.51732746E+03</rscale>
<asrwt>0</asrwt>
<pdfrwt beam="1">  1        2 0.91142968E-01 0.51732746E+03</pdfrwt>
<pdfrwt beam="2">  1       -2 0.14981380E-01 0.51732746E+03</pdfrwt>
<totfact> 0.17661036E+03</totfact>
</mgrwt>
</event>
<event>
 4    1  0.5531008E-005  0.3919946E+03  0.7818608E-02  0.1046587E+00
         -2   -1    0    0    0  501 -0.00000000000E+00  0.00000000000E+00  0.55108751444E+02  0.55108751503E+02  0.25500000000E-02 0. -1.
          2   -1    0    0  501    0  0.00000000000E+00 -0.00000000000E+00 -0.69707521224E+03  0.69707521225E+03  0.25500000000E-02 0.  1.
    5000001    1    1    2    0    0  0.80254417631E+02  0.17613773728E+02 -0.19313844396E+03  0.26698028974E+03  0.16500000000E+03 0.  0.
   -5000001    1    1    2    0    0 -0.80254417631E+02 -0.17613773728E+02 -0.44882801684E+03  0.48520367401E+03  0.16500000000E+03 0.  0.
<mgrwt>
<rscale>  0 0.39199462E+03</rscale>
<asrwt>0</asrwt>
<pdfrwt beam="1">  1        2 0.99582168E-01 0.39199462E+03</pdfrwt>
<pdfrwt beam="2">  1       -2 0.78726792E-02 0.39199462E+03</pdfrwt>
<totfact> 0.45018109E+03</totfact>
</mgrwt>
</event>
<event>
 4    1  0.5531008E-005  0.4622148E+03  0.7818608E-02  0.1024141E+00
          2   -1    0    0  501    0  0.00000000000E+00  0.00000000000E+00  0.88730613963E+03  0.88730613963E+03  0.25500000000E-02 0.  1.
         -2   -1    0    0    0  501 -0.00000000000E+00 -0.00000000000E+00 -0.60194131907E+02  0.60194131961E+02  0.25500000000E-02 0. -1.
    5000001    1    1    2    0    0  0.13006049955E+03 -0.61557753768E+02  0.26179964603E+03  0.34127576130E+03  0.16500000000E+03 0.  0.
   -5000001    1    1    2    0    0 -0.13006049955E+03  0.61557753768E+02  0.56531236170E+03  0.60622451029E+03  0.16500000000E+03 0.  0.
<mgrwt>
<rscale>  0 0.46221477E+03</rscale>
<asrwt>0</asrwt>
<pdfrwt beam="1">  1        2 0.12675802E+00 0.46221477E+03</pdfrwt>
<pdfrwt beam="2">  1       -2 0.85991619E-02 0.46221477E+03</pdfrwt>
<totfact> 0.28968367E+03</totfact>
</mgrwt>
</event>
<event>
 4    1  0.5531008E-005  0.3850800E+03  0.7818608E-02  0.1049072E+00
          2   -1    0    0  501    0  0.00000000000E+00  0.00000000000E+00  0.38863879910E+03  0.38863879911E+03  0.25500000000E-02 0.  1.
         -2   -1    0    0    0  501 -0.00000000000E+00 -0.00000000000E+00 -0.95388440403E+02  0.95388440437E+02  0.25500000000E-02 0. -1.
    5000001    1    1    2    0    0 -0.14870246032E+02  0.95603848427E+02  0.11893143599E+03  0.22523522486E+03  0.16500000000E+03 0.  0.
   -5000001    1    1    2    0    0  0.14870246032E+02 -0.95603848427E+02  0.17431892271E+03  0.25879201469E+03  0.16500000000E+03 0.  0.
<mgrwt>
<rscale>  0 0.38507999E+03</rscale>
<asrwt>0</asrwt>
<pdfrwt beam="1">  1        2 0.55519828E-01 0.38507999E+03</pdfrwt>
<pdfrwt beam="2">  1       -2 0.13626920E-01 0.38507999E+03</pdfrwt>
<totfact> 0.36100479E+03</totfact>
</mgrwt>
</event>
<event>
 4    1  0.5531008E-005  0.7258972E+03  0.7818608E-02  0.9673942E-01
         -2   -1    0    0    0  501 -0.00000000000E+00  0.00000000000E+00  0.10853260523E+03  0.10853260526E+03  0.25500000000E-02 0.  1.
          2   -1    0    0  501    0  0.00000000000E+00 -0.00000000000E+00 -0.12137520268E+04  0.12137520268E+04  0.25500000000E-02 0. -1.
    5000001    1    1    2    0    0  0.20170165813E+03 -0.24799778863E+03 -0.64035287118E+03  0.73448162787E+03  0.16500000000E+03 0.  0.
   -5000001    1    1    2    0    0 -0.20170165813E+03  0.24799778863E+03 -0.46486655044E+03  0.58780300422E+03  0.16500000000E+03 0.  0.
<mgrwt>
<rscale>  0 0.72589715E+03</rscale>
<asrwt>0</asrwt>
<pdfrwt beam="1">  1        2 0.17339314E+00 0.72589715E+03</pdfrwt>
<pdfrwt beam="2">  1       -2 0.15504659E-01 0.72589715E+03</pdfrwt>
<totfact> 0.69942268E+02</totfact>
</mgrwt>
</event>
<event>
 4    1  0.5531008E-005  0.4611476E+03  0.7818608E-02  0.1024449E+00
         -2   -1    0    0    0  501 -0.00000000000E+00  0.00000000000E+00  0.64574770837E+02  0.64574770888E+02  0.25500000000E-02 0. -1.
          2   -1    0    0  501    0  0.00000000000E+00 -0.00000000000E+00 -0.82329812174E+03  0.82329812175E+03  0.25500000000E-02 0.  1.
    5000001    1    1    2    0    0  0.48520713957E+02 -0.12284197570E+03 -0.20190622350E+03  0.29229357462E+03  0.16500000000E+03 0.  0.
   -5000001    1    1    2    0    0 -0.48520713957E+02  0.12284197570E+03 -0.55681712740E+03  0.59557931801E+03  0.16500000000E+03 0.  0.
<mgrwt>
<rscale>  0 0.46114764E+03</rscale>
<asrwt>0</asrwt>
<pdfrwt beam="1">  1        2 0.11761401E+00 0.46114764E+03</pdfrwt>
<pdfrwt beam="2">  1       -2 0.92249678E-02 0.46114764E+03</pdfrwt>
<totfact> 0.28536256E+03</totfact>
</mgrwt>
</event>
<event>
 4    1  0.5531008E-005  0.3946382E+03  0.7818608E-02  0.1045652E+00
         -2   -1    0    0    0  501 -0.00000000000E+00  0.00000000000E+00  0.36301604062E+02  0.36301604151E+02  0.25500000000E-02 0. -1.
          2   -1    0    0  501    0  0.00000000000E+00 -0.00000000000E+00 -0.10725373693E+04  0.10725373693E+04  0.25500000000E-02 0.  1.
    5000001    1    1    2    0    0 -0.77883100973E+02 -0.35474195937E+02 -0.33204400637E+03  0.38052912919E+03  0.16500000000E+03 0.  0.
   -5000001    1    1    2    0    0  0.77883100973E+02  0.35474195937E+02 -0.70419175883E+03  0.72830984423E+03  0.16500000000E+03 0.  0.
<mgrwt>
<rscale>  0 0.39463820E+03</rscale>
<asrwt>0</asrwt>
<pdfrwt beam="1">  1        2 0.15321960E+00 0.39463820E+03</pdfrwt>
<pdfrwt beam="2">  1       -2 0.51859441E-02 0.39463820E+03</pdfrwt>
<totfact> 0.49188015E+03</totfact>
</mgrwt>
</event>
<event>
 4    1  0.5531008E-005  0.9506265E+03  0.7818608E-02  0.9364419E-01
         -2   -1    0    0    0  501 -0.00000000000E+00  0.00000000000E+00  0.73167038971E+02  0.73167039015E+02  0.25500000000E-02 0. -1.
          2   -1    0    0  501    0  0.00000000000E+00 -0.00000000000E+00 -0.30877658550E+04  0.30877658550E+04  0.25500000000E-02 0.  1.
    5000001    1    1    2    0    0  0.18774153622E+03 -0.20343578970E+03 -0.34558234504E+03  0.47253059388E+03  0.16500000000E+03 0.  0.
   -5000001    1    1    2    0    0 -0.18774153622E+03  0.20343578970E+03 -0.26690164710E+04  0.26884023002E+04  0.16500000000E+03 0.  0.
<mgrwt>
<rscale>  0 0.95062650E+03</rscale>
<asrwt>0</asrwt>
<pdfrwt beam="1">  1        2 0.44110933E+00 0.95062650E+03</pdfrwt>
<pdfrwt beam="2">  1       -2 0.10452436E-01 0.95062650E+03</pdfrwt>
<totfact> 0.13822687E+02</totfact>
</mgrwt>
</event>
<event>
 4    1  0.5531008E-005  0.8256007E+03  0.7818608E-02  0.9523683E-01
          2   -1    0    0  501    0  0.00000000000E+00  0.00000000000E+00  0.14862206890E+04  0.14862206890E+04  0.25500000000E-02 0.  1.
         -2   -1    0    0    0  501 -0.00000000000E+00 -0.00000000000E+00 -0.11465599741E+03  0.11465599744E+03  0.25500000000E-02 0. -1.
    5000001    1    1    2    0    0 -0.26654326042E+03  0.23388079156E+03  0.42975806869E+03  0.58108737032E+03  0.16500000000E+03 0.  0.
   -5000001    1    1    2    0    0  0.26654326042E+03 -0.23388079156E+03  0.94180662286E+03  0.10197893161E+04  0.16500000000E+03 0.  0.
<mgrwt>
<rscale>  0 0.82560067E+03</rscale>
<asrwt>0</asrwt>
<pdfrwt beam="1">  1        2 0.21231725E+00 0.82560067E+03</pdfrwt>
<pdfrwt beam="2">  1       -2 0.16379428E-01 0.82560067E+03</pdfrwt>
<totfact> 0.45108383E+02</totfact>
</mgrwt>
</event>
<event>
 4    1  0.5531008E-005  0.7043671E+03  0.7818608E-02  0.9709793E-01
          2   -1    0    0  501    0  0.00000000000E+00  0.00000000000E+00  0.34578472172E+04  0.34578472172E+04  0.25500000000E-02 0.  1.
         -2   -1    0    0    0  501 -0.00000000000E+00 -0.00000000000E+00 -0.35870076707E+02  0.35870076798E+02  0.25500000000E-02 0. -1.
    5000001    1    1    2    0    0 -0.30458052453E+03  0.61360321444E+02  0.17930715478E+04  0.18272561289E+04  0.16500000000E+03 0.  0.
   -5000001    1    1    2    0    0  0.30458052453E+03 -0.61360321444E+02  0.16289055927E+04  0.16664611651E+04  0.16500000000E+03 0.  0.
<mgrwt>
<rscale>  0 0.70436708E+03</rscale>
<asrwt>0</asrwt>
<pdfrwt beam="1">  1        2 0.49397770E+00 0.70436708E+03</pdfrwt>
<pdfrwt beam="2">  1       -2 0.51243016E-02 0.70436708E+03</pdfrwt>
<totfact> 0.27115063E+02</totfact>
</mgrwt>
</event>
<event>
 4    1  0.5531008E-005  0.4185919E+03  0.7818608E-02  0.1037526E+00
         -2   -1    0    0    0  501 -0.00000000000E+00  0.00000000000E+00  0.15608013517E+02  0.15608013725E+02  0.25500000000E-02 0. -1.
          2   -1    0    0  501    0  0.00000000000E+00 -0.00000000000E+00 -0.28065582219E+04  0.28065582219E+04  0.25500000000E-02 0.  1.
    5000001    1    1    2    0    0  0.29259099435E+02 -0.65785348063E+02 -0.21152021433E+04  0.21228492443E+04  0.16500000000E+03 0.  0.
   -5000001    1    1    2    0    0 -0.29259099435E+02  0.65785348063E+02 -0.67574806503E+03  0.69931699130E+03  0.16500000000E+03 0.  0.
<mgrwt>
<rscale>  0 0.41859192E+03</rscale>
<asrwt>0</asrwt>
<pdfrwt beam="1">  1        2 0.40093657E+00 0.41859192E+03</pdfrwt>
<pdfrwt beam="2">  1       -2 0.22297180E-02 0.41859192E+03</pdfrwt>
<totfact> 0.22791388E+03</totfact>
</mgrwt>
</event>
<event>
 4    1  0.5531008E-005  0.7463080E+03  0.7818608E-02  0.9641160E-01
         -2   -1    0    0    0  501 -0.00000000000E+00  0.00000000000E+00  0.56853118167E+02  0.56853118224E+02  0.25500000000E-02 0. -1.
          2   -1    0    0  501    0  0.00000000000E+00 -0.00000000000E+00 -0.24491871025E+04  0.24491871025E+04  0.25500000000E-02 0.  1.
    5000001    1    1    2    0    0  0.16936991514E+03  0.27636661087E+03 -0.14761909109E+04  0.15203385403E+04  0.16500000000E+03 0.  0.
   -5000001    1    1    2    0    0 -0.16936991514E+03 -0.27636661087E+03 -0.91614307347E+03  0.98570168045E+03  0.16500000000E+03 0.  0.
<mgrwt>
<rscale>  0 0.74630804E+03</rscale>
<asrwt>0</asrwt>
<pdfrwt beam="1">  1        2 0.34988381E+00 0.74630804E+03</pdfrwt>
<pdfrwt beam="2">  1       -2 0.81218755E-02 0.74630804E+03</pdfrwt>
<totfact> 0.46447917E+02</totfact>
</mgrwt>
</event>
<event>
 4    1  0.5531008E-005  0.6134756E+03  0.7818608E-02  0.9877836E-01
         -2   -1    0    0    0  501 -0.00000000000E+00  0.00000000000E+00  0.21101845833E+03  0.21101845834E+03  0.25500000000E-02 0. -1.
          2   -1    0    0  501    0  0.00000000000E+00 -0.00000000000E+00 -0.44587605823E+03  0.44587605823E+03  0.25500000000E-02 0.  1.
    5000001    1    1    2    0    0 -0.15933537927E+03  0.15024091393E+03  0.29790081820E+02  0.27581251654E+03  0.16500000000E+03 0.  0.
   -5000001    1    1    2    0    0  0.15933537927E+03 -0.15024091393E+03 -0.26464768172E+03  0.38108200003E+03  0.16500000000E+03 0.  0.
<mgrwt>
<rscale>  0 0.61347560E+03</rscale>
<asrwt>0</asrwt>
<pdfrwt beam="1">  1        2 0.63696580E-01 0.61347560E+03</pdfrwt>
<pdfrwt beam="2">  1       -2 0.30145494E-01 0.61347560E+03</pdfrwt>
<totfact> 0.78037206E+02</totfact>
</mgrwt>
</event>
<event>
 4    1  0.5531008E-005  0.5469404E+03  0.7818608E-02  0.1002205E+00
         -2   -1    0    0    0  501 -0.00000000000E+00  0.00000000000E+00  0.23592072975E+02  0.23592073113E+02  0.25500000000E-02 0. -1.
          2   -1    0    0  501    0  0.00000000000E+00 -0.00000000000E+00 -0.31699606642E+04  0.31699606642E+04  0.25500000000E-02 0.  1.
    5000001    1    1    2    0    0 -0.20785802172E+03 -0.37173856215E+02 -0.18916122721E+04  0.19104996311E+04  0.16500000000E+03 0.  0.
   -5000001    1    1    2    0    0  0.20785802172E+03  0.37173856215E+02 -0.12547563192E+04  0.12830531062E+04  0.16500000000E+03 0.  0.
<mgrwt>
<rscale>  0 0.54694038E+03</rscale>
<asrwt>0</asrwt>
<pdfrwt beam="1">  1        2 0.45285125E+00 0.54694038E+03</pdfrwt>
<pdfrwt beam="2">  1       -2 0.33702982E-02 0.54694038E+03</pdfrwt>
<totfact> 0.76936172E+02</totfact>
</mgrwt>
</event>
<event>
 4    1  0.5531008E-005  0.6538657E+03  0.7818608E-02  0.9799552E-01
          2   -1    0    0  501    0  0.00000000000E+00  0.00000000000E+00  0.13903894530E+04  0.13903894530E+04  0.25500000000E-02 0.  1.
         -2   -1    0    0    0  501 -0.00000000000E+00 -0.00000000000E+00 -0.76874206592E+02  0.76874206635E+02  0.25500000000E-02 0. -1.
    5000001    1    1    2    0    0 -0.24870963297E+03 -0.10916252617E+03  0.82893340600E+03  0.88776603349E+03  0.16500000000E+03 0.  0.
   -5000001    1    1    2    0    0  0.24870963297E+03  0.10916252617E+03  0.48458184043E+03  0.57949762616E+03  0.16500000000E+03 0.  0.
<mgrwt>
<rscale>  0 0.65386569E+03</rscale>
<asrwt>0</asrwt>
<pdfrwt beam="1">  1        2 0.19862707E+00 0.65386569E+03</pdfrwt>
<pdfrwt beam="2">  1       -2 0.10982029E-01 0.65386569E+03</pdfrwt>
<totfact> 0.99707497E+02</totfact>
</mgrwt>
</event>
<event>
 4    1  0.5531008E-005  0.5737878E+03  0.7818608E-02  0.9961332E-01
         -2   -1    0    0    0  501 -0.00000000000E+00  0.00000000000E+00  0.96366323481E+03  0.96366323482E+03  0.25500000000E-02 0. -1.
          2   -1    0    0  501    0  0.00000000000E+00 -0.00000000000E+00 -0.85411695942E+02  0.85411695980E+02  0.25500000000E-02 0.  1.
    5000001    1    1    2    0    0 -0.10292959551E+03  0.99618235622E+02  0.77904233077E+03  0.80910459623E+03  0.16500000000E+03 0.  0.
   -5000001    1    1    2    0    0  0.10292959551E+03 -0.99618235622E+02  0.99209208098E+02  0.23997033457E+03  0.16500000000E+03 0.  0.
<mgrwt>
<rscale>  0 0.57378780E+03</rscale>
<asrwt>0</asrwt>
<pdfrwt beam="1">  1        2 0.12201672E-01 0.57378780E+03</pdfrwt>
<pdfrwt beam="2">  1       -2 0.13766617E+00 0.57378780E+03</pdfrwt>
<totfact> 0.19696960E+02</totfact>
</mgrwt>
</event>
<event>
 4    1  0.5531008E-005  0.5178705E+03  0.7818608E-02  0.1009217E+00
         -2   -1    0    0    0  501 -0.00000000000E+00  0.00000000000E+00  0.10829951013E+03  0.10829951016E+03  0.25500000000E-02 0. -1.
          2   -1    0    0  501    0  0.00000000000E+00 -0.00000000000E+00 -0.61909288095E+03  0.61909288096E+03  0.25500000000E-02 0.  1.
    5000001    1    1    2    0    0  0.14582382998E+03  0.77892614000E+02 -0.41237489799E+03  0.47393027461E+03  0.16500000000E+03 0.  0.
   -5000001    1    1    2    0    0 -0.14582382998E+03 -0.77892614000E+02 -0.98418472842E+02  0.25346211650E+03  0.16500000000E+03 0.  0.
<mgrwt>
<rscale>  0 0.51787047E+03</rscale>
<asrwt>0</asrwt>
<pdfrwt beam="1">  1        2 0.88441838E-01 0.51787047E+03</pdfrwt>
<pdfrwt beam="2">  1       -2 0.15471359E-01 0.51787047E+03</pdfrwt>
<totfact> 0.17337446E+03</totfact>
</mgrwt>
</event>
<event>
 4    1  0.5531008E-005  0.8702738E+03  0.7818608E-02  0.9463523E-01
         -2   -1    0    0    0  501 -0.00000000000E+00  0.00000000000E+00  0.39529110246E+02  0.39529110328E+02  0.25500000000E-02 0. -1.
          2   -1    0    0  501    0  0.00000000000E+00 -0.00000000000E+00 -0.47899925265E+04  0.47899925265E+04  0.25500000000E-02 0.  1.
    5000001    1    1    2    0    0 -0.28329231306E+03  0.27365275497E+03 -0.28388257780E+04  0.28707659540E+04  0.16500000000E+03 0.  0.
   -5000001    1    1    2    0    0  0.28329231306E+03 -0.27365275497E+03 -0.19116376383E+04  0.19587556829E+04  0.16500000000E+03 0.  0.
<mgrwt>
<rscale>  0 0.87027385E+03</rscale>
<asrwt>0</asrwt>
<pdfrwt beam="1">  1        2 0.68428428E+00 0.87027385E+03</pdfrwt>
<pdfrwt beam="2">  1       -2 0.56470188E-02 0.87027385E+03</pdfrwt>
<totfact> 0.26092450E+01</totfact>
</mgrwt>
</event>
<event>
 4    1  0.5531008E-005  0.5986158E+03  0.7818608E-02  0.9908282E-01
         -2   -1    0    0    0  501 -0.00000000000E+00  0.00000000000E+00  0.10728804703E+04  0.10728804703E+04  0.25500000000E-02 0. -1.
          2   -1    0    0  501    0  0.00000000000E+00 -0.00000000000E+00 -0.83499721336E+02  0.83499721375E+02  0.25500000000E-02 0.  1.
    5000001    1    1    2    0    0  0.12504478178E+03 -0.62789032328E+02  0.95131505680E+02  0.23633379657E+03  0.16500000000E+03 0.  0.
   -5000001    1    1    2    0    0 -0.12504478178E+03  0.62789032328E+02  0.89424924324E+03  0.92004639507E+03  0.16500000000E+03 0.  0.
<mgrwt>
<rscale>  0 0.59861580E+03</rscale>
<asrwt>0</asrwt>
<pdfrwt beam="1">  1        2 0.11928533E-01 0.59861580E+03</pdfrwt>
<pdfrwt beam="2">  1       -2 0.15326862E+00 0.59861580E+03</pdfrwt>
<totfact> 0.15303879E+02</totfact>
</mgrwt>
</event>
<event>
 4    1  0.5531008E-005  0.8375075E+03  0.7818608E-02  0.9507259E-01
          2   -1    0    0  501    0  0.00000000000E+00  0.00000000000E+00  0.15316868368E+04  0.15316868368E+04  0.25500000000E-02 0.  1.
         -2   -1    0    0    0  501 -0.00000000000E+00 -0.00000000000E+00 -0.11448470304E+03  0.11448470307E+03  0.25500000000E-02 0. -1.
    5000001    1    1    2    0    0 -0.69627846815E+02 -0.35933982434E+03  0.47473601027E+03  0.62174948802E+03  0.16500000000E+03 0.  0.
   -5000001    1    1    2    0    0  0.69627846815E+02  0.35933982434E+03  0.94246612350E+03  0.10244220519E+04  0.16500000000E+03 0.  0.
<mgrwt>
<rscale>  0 0.83750752E+03</rscale>
<asrwt>0</asrwt>
<pdfrwt beam="1">  1        2 0.21881240E+00 0.83750752E+03</pdfrwt>
<pdfrwt beam="2">  1       -2 0.16354958E-01 0.83750752E+03</pdfrwt>
<totfact> 0.42772622E+02</totfact>
</mgrwt>
</event>
<event>
 4    1  0.5531008E-005  0.5161223E+03  0.7818608E-02  0.1009654E+00
         -2   -1    0    0    0  501 -0.00000000000E+00  0.00000000000E+00  0.58859172781E+02  0.58859172837E+02  0.25500000000E-02 0. -1.
          2   -1    0    0  501    0  0.00000000000E+00 -0.00000000000E+00 -0.11314388591E+04  0.11314388591E+04  0.25500000000E-02 0.  1.
    5000001    1    1    2    0    0  0.13731750120E+03 -0.14262867377E+03 -0.50608606577E+03  0.56793233812E+03  0.16500000000E+03 0.  0.
   -5000001    1    1    2    0    0 -0.13731750120E+03  0.14262867377E+03 -0.56649362054E+03  0.62236569381E+03  0.16500000000E+03 0.  0.
<mgrwt>
<rscale>  0 0.51612229E+03</rscale>
<asrwt>0</asrwt>
<pdfrwt beam="1">  1        2 0.16163411E+00 0.51612229E+03</pdfrwt>
<pdfrwt beam="2">  1       -2 0.84084539E-02 0.51612229E+03</pdfrwt>
<totfact> 0.21381435E+03</totfact>
</mgrwt>
</event>
<event>
 4    1  0.5531008E-005  0.4209499E+03  0.7818608E-02  0.1036758E+00
         -2   -1    0    0    0  501 -0.00000000000E+00  0.00000000000E+00  0.57049003028E+02  0.57049003085E+02  0.25500000000E-02 0. -1.
          2   -1    0    0  501    0  0.00000000000E+00 -0.00000000000E+00 -0.77652028800E+03  0.77652028801E+03  0.25500000000E-02 0.  1.
    5000001    1    1    2    0    0  0.12703384504E+03  0.28641836865E+02 -0.38113251451E+03  0.43525273833E+03  0.16500000000E+03 0.  0.
   -5000001    1    1    2    0    0 -0.12703384504E+03 -0.28641836865E+02 -0.33833877047E+03  0.39831655276E+03  0.16500000000E+03 0.  0.
<mgrwt>
<rscale>  0 0.42094992E+03</rscale>
<asrwt>0</asrwt>
<pdfrwt beam="1">  1        2 0.11093146E+00 0.42094992E+03</pdfrwt>
<pdfrwt beam="2">  1       -2 0.81498581E-02 0.42094992E+03</pdfrwt>
<totfact> 0.37388545E+03</totfact>
</mgrwt>
</event>
<event>
 4    1  0.5531008E-005  0.5469368E+03  0.7818608E-02  0.1002205E+00
          2   -1    0    0  501    0  0.00000000000E+00  0.00000000000E+00  0.10040922354E+04  0.10040922354E+04  0.25500000000E-02 0.  1.
         -2   -1    0    0    0  501 -0.00000000000E+00 -0.00000000000E+00 -0.74480184153E+02  0.74480184196E+02  0.25500000000E-02 0. -1.
    5000001    1    1    2    0    0  0.12032912478E+03 -0.18005401966E+03  0.41408910373E+03  0.49557374234E+03  0.16500000000E+03 0.  0.
   -5000001    1    1    2    0    0 -0.12032912478E+03  0.18005401966E+03  0.51552294748E+03  0.58299867723E+03  0.16500000000E+03 0.  0.
<mgrwt>
<rscale>  0 0.54693683E+03</rscale>
<asrwt>0</asrwt>
<pdfrwt beam="1">  1        2 0.14344176E+00 0.54693683E+03</pdfrwt>
<pdfrwt beam="2">  1       -2 0.10640026E-01 0.54693683E+03</pdfrwt>
<totfact> 0.17385692E+03</totfact>
</mgrwt>
</event>
<event>
 4    1  0.5531008E-005  0.3916819E+03  0.7818608E-02  0.1046699E+00
          2   -1    0    0  501    0  0.00000000000E+00  0.00000000000E+00  0.84807011475E+02  0.84807011514E+02  0.25500000000E-02 0.  1.
         -2   -1    0    0    0  501 -0.00000000000E+00 -0.00000000000E+00 -0.45224655369E+03  0.45224655370E+03  0.25500000000E-02 0. -1.
    5000001    1    1    2    0    0  0.25959024627E+02 -0.10182262867E+03 -0.19650604166E+03  0.27727485115E+03  0.16500000000E+03 0.  0.
   -5000001    1    1    2    0    0 -0.25959024627E+02  0.10182262867E+03 -0.17093350056E+03  0.25977871407E+03  0.16500000000E+03 0.  0.
<mgrwt>
<rscale>  0 0.39168191E+03</rscale>
<asrwt>0</asrwt>
<pdfrwt beam="1">  1        2 0.12115288E-01 0.39168191E+03</pdfrwt>
<pdfrwt beam="2">  1       -2 0.64606649E-01 0.39168191E+03</pdfrwt>
<totfact> 0.11518887E+03</totfact>
</mgrwt>
</event>
<event>
 4    1  0.5531008E-005  0.7096065E+03  0.7818608E-02  0.9700943E-01
          2   -1    0    0  501    0  0.00000000000E+00  0.00000000000E+00  0.12432500845E+04  0.12432500845E+04  0.25500000000E-02 0.  1.
         -2   -1    0    0    0  501 -0.00000000000E+00 -0.00000000000E+00 -0.10125504035E+03  0.10125504038E+03  0.25500000000E-02 0. -1.
    5000001    1    1    2    0    0 -0.11069996743E+03  0.27127672813E+03  0.35651067562E+03  0.49007183948E+03  0.16500000000E+03 0.  0.
   -5000001    1    1    2    0    0  0.11069996743E+03 -0.27127672813E+03  0.78548436850E+03  0.85443328538E+03  0.16500000000E+03 0.  0.
<mgrwt>
<rscale>  0 0.70960648E+03</rscale>
<asrwt>0</asrwt>
<pdfrwt beam="1">  1        2 0.17760716E+00 0.70960648E+03</pdfrwt>
<pdfrwt beam="2">  1       -2 0.14465005E-01 0.70960648E+03</pdfrwt>
<totfact> 0.75761427E+02</totfact>
</mgrwt>
</event>
<event>
 4    1  0.5531008E-005  0.3879212E+03  0.7818608E-02  0.1048044E+00
         -2   -1    0    0    0  501 -0.00000000000E+00  0.00000000000E+00  0.20579116679E+02  0.20579116837E+02  0.25500000000E-02 0. -1.
          2   -1    0    0  501    0  0.00000000000E+00 -0.00000000000E+00 -0.18281013240E+04  0.18281013240E+04  0.25500000000E-02 0.  1.
    5000001    1    1    2    0    0 -0.90400428820E+02 -0.23910404438E+02 -0.10974445773E+04  0.11137116077E+04  0.16500000000E+03 0.  0.
   -5000001    1    1    2    0    0  0.90400428820E+02  0.23910404438E+02 -0.71007763008E+03  0.73496883316E+03  0.16500000000E+03 0.  0.
<mgrwt>
<rscale>  0 0.38792118E+03</rscale>
<asrwt>0</asrwt>
<pdfrwt beam="1">  1        2 0.26115723E+00 0.38792118E+03</pdfrwt>
<pdfrwt beam="2">  1       -2 0.29398750E-02 0.38792118E+03</pdfrwt>
<totfact> 0.46830468E+03</totfact>
</mgrwt>
</event>
<event>
 4    1  0.5531008E-005  0.4565141E+03  0.7818608E-02  0.1025797E+00
          2   -1    0    0  501    0  0.00000000000E+00  0.00000000000E+00  0.36464473830E+03  0.36464473831E+03  0.25500000000E-02 0.  1.
         -2   -1    0    0    0  501 -0.00000000000E+00 -0.00000000000E+00 -0.14288230448E+03  0.14288230451E+03  0.25500000000E-02 0. -1.
    5000001    1    1    2    0    0 -0.94250582583E+02  0.12818810213E+00 -0.29714214406E+02  0.19233076532E+03  0.16500000000E+03 0.  0.
   -5000001    1    1    2    0    0  0.94250582583E+02 -0.12818810213E+00  0.25147664822E+03  0.31519627750E+03  0.16500000000E+03 0.  0.
<mgrwt>
<rscale>  0 0.45651410E+03</rscale>
<asrwt>0</asrwt>
<pdfrwt beam="1">  1        2 0.52092105E-01 0.45651410E+03</pdfrwt>
<pdfrwt beam="2">  1       -2 0.20411758E-01 0.45651410E+03</pdfrwt>
<totfact> 0.19600732E+03</totfact>
</mgrwt>
</event>
<event>
 4    1  0.5531008E-005  0.5341732E+03  0.7818608E-02  0.1005225E+00
         -2   -1    0    0    0  501 -0.00000000000E+00  0.00000000000E+00  0.11704878381E+03  0.11704878384E+03  0.25500000000E-02 0. -1.
          2   -1    0    0  501    0  0.00000000000E+00 -0.00000000000E+00 -0.60944896418E+03  0.60944896418E+03  0.25500000000E-02 0.  1.
    5000001    1    1    2    0    0 -0.16329325432E+03 -0.12064723526E+03 -0.31931187430E+03  0.41280202925E+03  0.16500000000E+03 0.  0.
   -5000001    1    1    2    0    0  0.16329325432E+03  0.12064723526E+03 -0.17308830606E+03  0.31369571877E+03  0.16500000000E+03 0.  0.
<mgrwt>
<rscale>  0 0.53417323E+03</rscale>
<asrwt>0</asrwt>
<pdfrwt beam="1">  1        2 0.87064136E-01 0.53417323E+03</pdfrwt>
<pdfrwt beam="2">  1       -2 0.16721255E-01 0.53417323E+03</pdfrwt>
<totfact> 0.15486287E+03</totfact>
</mgrwt>
</event>
<event>
 4    1  0.5531008E-005  0.5999527E+03  0.7818608E-02  0.9905504E-01
         -2   -1    0    0    0  501 -0.00000000000E+00  0.00000000000E+00  0.12938537416E+03  0.12938537419E+03  0.25500000000E-02 0. -1.
          2   -1    0    0  501    0  0.00000000000E+00 -0.00000000000E+00 -0.69548673665E+03  0.69548673665E+03  0.25500000000E-02 0.  1.
    5000001    1    1    2    0    0 -0.39357765154E+02  0.24649952517E+03 -0.31220890210E+03  0.43244704663E+03  0.16500000000E+03 0.  0.
   -5000001    1    1    2    0    0  0.39357765154E+02 -0.24649952517E+03 -0.25389246038E+03  0.39242506421E+03  0.16500000000E+03 0.  0.
<mgrwt>
<rscale>  0 0.59995270E+03</rscale>
<asrwt>0</asrwt>
<pdfrwt beam="1">  1        2 0.99355246E-01 0.59995270E+03</pdfrwt>
<pdfrwt beam="2">  1       -2 0.18483625E-01 0.59995270E+03</pdfrwt>
<totfact> 0.11131580E+03</totfact>
</mgrwt>
</event>
<event>
 4    1  0.5531008E-005  0.7961461E+03  0.7818608E-02  0.9565612E-01
          2   -1    0    0  501    0  0.00000000000E+00  0.00000000000E+00  0.87979864804E+03  0.87979864804E+03  0.25500000000E-02 0.  1.
         -2   -1    0    0    0  501 -0.00000000000E+00 -0.00000000000E+00 -0.18011182274E+03  0.18011182276E+03  0.25500000000E-02 0. -1.
    5000001    1    1    2    0    0 -0.35936255751E+03  0.32454655761E+02  0.39282581247E+03  0.55832953653E+03  0.16500000000E+03 0.  0.
   -5000001    1    1    2    0    0  0.35936255751E+03 -0.32454655761E+02  0.30686101283E+03  0.50158093426E+03  0.16500000000E+03 0.  0.
<mgrwt>
<rscale>  0 0.79614606E+03</rscale>
<asrwt>0</asrwt>
<pdfrwt beam="1">  1        2 0.12568552E+00 0.79614606E+03</pdfrwt>
<pdfrwt beam="2">  1       -2 0.25730260E-01 0.79614606E+03</pdfrwt>
<totfact> 0.45726018E+02</totfact>
</mgrwt>
</event>
<event>
 4    1  0.5531008E-005  0.5324852E+03  0.7818608E-02  0.1005631E+00
          2   -1    0    0  501    0  0.00000000000E+00  0.00000000000E+00  0.86574342535E+03  0.86574342535E+03  0.25500000000E-02 0.  1.
         -2   -1    0    0    0  501 -0.00000000000E+00 -0.00000000000E+00 -0.81877759833E+02  0.81877759873E+02  0.25500000000E-02 0. -1.
    5000001    1    1    2    0    0 -0.13705959219E+03 -0.15027114965E+03  0.47715751546E+03  0.54430785847E+03  0.16500000000E+03 0.  0.
   -5000001    1    1    2    0    0  0.13705959219E+03  0.15027114965E+03  0.30670815006E+03  0.40331332676E+03  0.16500000000E+03 0.  0.
<mgrwt>
<rscale>  0 0.53248524E+03</rscale>
<asrwt>0</asrwt>
<pdfrwt beam="1">  1        2 0.12367763E+00 0.53248524E+03</pdfrwt>
<pdfrwt beam="2">  1       -2 0.11696823E-01 0.53248524E+03</pdfrwt>
<totfact> 0.18210492E+03</totfact>
</mgrwt>
</event>
<event>
 4    1  0.5531008E-005  0.4260771E+03  0.7818608E-02  0.1035106E+00
          2   -1    0    0  501    0  0.00000000000E+00  0.00000000000E+00  0.10335779152E+04  0.10335779152E+04  0.25500000000E-02 0.  1.
         -2   -1    0    0    0  501 -0.00000000000E+00 -0.00000000000E+00 -0.43910977050E+02  0.43910977124E+02  0.25500000000E-02 0. -1.
    5000001    1    1    2    0    0 -0.91446069682E+02 -0.65401986956E+02  0.68272979200E+03  0.71132606620E+03  0.16500000000E+03 0.  0.
   -5000001    1    1    2    0    0  0.91446069682E+02  0.65401986956E+02  0.30693714616E+03  0.36616282614E+03  0.16500000000E+03 0.  0.
<mgrwt>
<rscale>  0 0.42607706E+03</rscale>
<asrwt>0</asrwt>
<pdfrwt beam="1">  1        2 0.14765399E+00 0.42607706E+03</pdfrwt>
<pdfrwt beam="2">  1       -2 0.62729968E-02 0.42607706E+03</pdfrwt>
<totfact> 0.38649284E+03</totfact>
</mgrwt>
</event>
<event>
 4    1  0.5531008E-005  0.9082894E+03  0.7818608E-02  0.9415278E-01
         -2   -1    0    0    0  501 -0.00000000000E+00  0.00000000000E+00  0.59837295358E+02  0.59837295412E+02  0.25500000000E-02 0. -1.
          2   -1    0    0  501    0  0.00000000000E+00 -0.00000000000E+00 -0.34468034728E+04  0.34468034728E+04  0.25500000000E-02 0.  1.
    5000001    1    1    2    0    0  0.40784944911E+03  0.11237741698E+03 -0.17214673827E+04  0.17803496305E+04  0.16500000000E+03 0.  0.
   -5000001    1    1    2    0    0 -0.40784944911E+03 -0.11237741698E+03 -0.16654987947E+04  0.17262911377E+04  0.16500000000E+03 0.  0.
<mgrwt>
<rscale>  0 0.90828938E+03</rscale>
<asrwt>0</asrwt>
<pdfrwt beam="1">  1        2 0.49240037E+00 0.90828938E+03</pdfrwt>
<pdfrwt beam="2">  1       -2 0.85481873E-02 0.90828938E+03</pdfrwt>
<totfact> 0.11964144E+02</totfact>
</mgrwt>
</event>
<event>
 4    1  0.5531008E-005  0.6408587E+03  0.7818608E-02  0.9824085E-01
         -2   -1    0    0    0  501 -0.00000000000E+00  0.00000000000E+00  0.98685731819E+02  0.98685731852E+02  0.25500000000E-02 0. -1.
          2   -1    0    0  501    0  0.00000000000E+00 -0.00000000000E+00 -0.10404235466E+04  0.10404235466E+04  0.25500000000E-02 0.  1.
    5000001    1    1    2    0    0 -0.10794266032E+03  0.23137921526E+03 -0.29080812687E+03  0.42069267384E+03  0.16500000000E+03 0.  0.
   -5000001    1    1    2    0    0  0.10794266032E+03 -0.23137921526E+03 -0.65092968787E+03  0.71841660457E+03  0.16500000000E+03 0.  0.
<mgrwt>
<rscale>  0 0.64085867E+03</rscale>
<asrwt>0</asrwt>
<pdfrwt beam="1">  1        2 0.14863193E+00 0.64085867E+03</pdfrwt>
<pdfrwt beam="2">  1       -2 0.14097962E-01 0.64085867E+03</pdfrwt>
<totfact> 0.10373053E+03</totfact>
</mgrwt>
</event>
<event>
 4    1  0.5531008E-005  0.4237556E+03  0.7818608E-02  0.1035851E+00
          2   -1    0    0  501    0  0.00000000000E+00  0.00000000000E+00  0.10424476738E+04  0.10424476738E+04  0.25500000000E-02 0.  1.
         -2   -1    0    0    0  501 -0.00000000000E+00 -0.00000000000E+00 -0.43064216611E+02  0.43064216687E+02  0.25500000000E-02 0. -1.
    5000001    1    1    2    0    0 -0.43935453603E+02 -0.48233631121E+02  0.20304483297E+03  0.26964608554E+03  0.16500000000E+03 0.  0.
   -5000001    1    1    2    0    0  0.43935453603E+02  0.48233631121E+02  0.79633862424E+03  0.81586580497E+03  0.16500000000E+03 0.  0.
<mgrwt>
<rscale>  0 0.42375555E+03</rscale>
<asrwt>0</asrwt>
<pdfrwt beam="1">  1        2 0.14892110E+00 0.42375555E+03</pdfrwt>
<pdfrwt beam="2">  1       -2 0.61520309E-02 0.42375555E+03</pdfrwt>
<totfact> 0.39359300E+03</totfact>
</mgrwt>
</event>
<event>
 4    1  0.5531008E-005  0.5645649E+03  0.7818608E-02  0.9981778E-01
         -2   -1    0    0    0  501 -0.00000000000E+00  0.00000000000E+00  0.22595857760E+03  0.22595857761E+03  0.25500000000E-02 0.  1.
          2   -1    0    0  501    0  0.00000000000E+00 -0.00000000000E+00 -0.35264594239E+03  0.35264594240E+03  0.25500000000E-02 0. -1.
    5000001    1    1    2    0    0  0.14234562940E+03  0.16075093096E+03  0.18358524946E+02  0.27141329269E+03  0.16500000000E+03 0.  0.
   -5000001    1    1    2    0    0 -0.14234562940E+03 -0.16075093096E+03 -0.14504588973E+03  0.30719122732E+03  0.16500000000E+03 0.  0.
<mgrwt>
<rscale>  0 0.56456488E+03</rscale>
<asrwt>0</asrwt>
<pdfrwt beam="1">  1        2 0.50377992E-01 0.56456488E+03</pdfrwt>
<pdfrwt beam="2">  1       -2 0.32279797E-01 0.56456488E+03</pdfrwt>
<totfact> 0.89238992E+02</totfact>
</mgrwt>
</event>
<event>
 4    1  0.5531008E-005  0.6511830E+03  0.7818608E-02  0.9804562E-01
          2   -1    0    0  501    0  0.00000000000E+00  0.00000000000E+00  0.14628402322E+04  0.14628402322E+04  0.25500000000E-02 0.  1.
         -2   -1    0    0    0  501 -0.00000000000E+00 -0.00000000000E+00 -0.72468496123E+02  0.72468496167E+02  0.25500000000E-02 0. -1.
    5000001    1    1    2    0    0 -0.25553370041E+03 -0.96838249865E+02  0.54403926182E+03  0.63077637645E+03  0.16500000000E+03 0.  0.
   -5000001    1    1    2    0    0  0.25553370041E+03  0.96838249865E+02  0.84633247421E+03  0.90453235187E+03  0.16500000000E+03 0.  0.
<mgrwt>
<rscale>  0 0.65118302E+03</rscale>
<asrwt>0</asrwt>
<pdfrwt beam="1">  1        2 0.20897717E+00 0.65118302E+03</pdfrwt>
<pdfrwt beam="2">  1       -2 0.10352643E-01 0.65118302E+03</pdfrwt>
<totfact> 0.10051300E+03</totfact>
</mgrwt>
</event>
<event>
 4    1  0.5531008E-005  0.1271771E+04  0.7818608E-02  0.9052256E-01
         -2   -1    0    0    0  501 -0.00000000000E+00  0.00000000000E+00  0.84210368846E+03  0.84210368846E+03  0.25500000000E-02 0. -1.
          2   -1    0    0  501    0  0.00000000000E+00 -0.00000000000E+00 -0.48016682101E+03  0.48016682101E+03  0.25500000000E-02 0.  1.
    5000001    1    1    2    0    0 -0.20785209142E+03 -0.57724889474E+03  0.15333345460E+03  0.65357090410E+03  0.16500000000E+03 0.  0.
   -5000001    1    1    2    0    0  0.20785209142E+03  0.57724889474E+03  0.20860341285E+03  0.66869960538E+03  0.16500000000E+03 0.  0.
<mgrwt>
<rscale>  0 0.12717708E+04</rscale>
<asrwt>0</asrwt>
<pdfrwt beam="1">  1        2 0.68595260E-01 0.12717708E+04</pdfrwt>
<pdfrwt beam="2">  1       -2 0.12030053E+00 0.12717708E+04</pdfrwt>
<totfact> 0.36485144E+01</totfact>
</mgrwt>
</event>
<event>
 4    1  0.5531008E-005  0.3672162E+03  0.7818608E-02  0.1055763E+00
         -2   -1    0    0    0  501 -0.00000000000E+00  0.00000000000E+00  0.41633537609E+02  0.41633537687E+02  0.25500000000E-02 0. -1.
          2   -1    0    0  501    0  0.00000000000E+00 -0.00000000000E+00 -0.80973035361E+03  0.80973035362E+03  0.25500000000E-02 0.  1.
    5000001    1    1    2    0    0 -0.63508447052E+02  0.42397267044E+02 -0.44343308962E+03  0.47925854825E+03  0.16500000000E+03 0.  0.
   -5000001    1    1    2    0    0  0.63508447052E+02 -0.42397267044E+02 -0.32466372638E+03  0.37210534305E+03  0.16500000000E+03 0.  0.
<mgrwt>
<rscale>  0 0.36721623E+03</rscale>
<asrwt>0</asrwt>
<pdfrwt beam="1">  1        2 0.11567576E+00 0.36721623E+03</pdfrwt>
<pdfrwt beam="2">  1       -2 0.59476487E-02 0.36721623E+03</pdfrwt>
<totfact> 0.57922297E+03</totfact>
</mgrwt>
</event>
<event>
 4    1  0.5531008E-005  0.3640587E+03  0.7818608E-02  0.1056988E+00
         -2   -1    0    0    0  501 -0.00000000000E+00  0.00000000000E+00  0.26954241153E+02  0.26954241274E+02  0.25500000000E-02 0. -1.
          2   -1    0    0  501    0  0.00000000000E+00 -0.00000000000E+00 -0.12292939236E+04  0.12292939236E+04  0.25500000000E-02 0.  1.
    5000001    1    1    2    0    0 -0.18555387566E+02 -0.74052215217E+02 -0.56998903654E+03  0.59828131741E+03  0.16500000000E+03 0.  0.
   -5000001    1    1    2    0    0  0.18555387566E+02  0.74052215217E+02 -0.63235064592E+03  0.65796684748E+03  0.16500000000E+03 0.  0.
<mgrwt>
<rscale>  0 0.36405870E+03</rscale>
<asrwt>0</asrwt>
<pdfrwt beam="1">  1        2 0.17561338E+00 0.36405870E+03</pdfrwt>
<pdfrwt beam="2">  1       -2 0.38506067E-02 0.36405870E+03</pdfrwt>
<totfact> 0.63209549E+03</totfact>
</mgrwt>
</event>
<event>
 4    1  0.5531008E-005  0.3661473E+03  0.7818608E-02  0.1056176E+00
          2   -1    0    0  501    0  0.00000000000E+00  0.00000000000E+00  0.31059923506E+04  0.31059923506E+04  0.25500000000E-02 0.  1.
         -2   -1    0    0    0  501 -0.00000000000E+00 -0.00000000000E+00 -0.10790740051E+02  0.10790740353E+02  0.25500000000E-02 0. -1.
    5000001    1    1    2    0    0  0.44629475817E+02  0.40407547924E+02  0.11080458925E+04  0.11218802342E+04  0.16500000000E+03 0.  0.
   -5000001    1    1    2    0    0 -0.44629475817E+02 -0.40407547924E+02  0.19871557180E+04  0.19949028567E+04  0.16500000000E+03 0.  0.
<mgrwt>
<rscale>  0 0.36614727E+03</rscale>
<asrwt>0</asrwt>
<pdfrwt beam="1">  1        2 0.44371340E+00 0.36614727E+03</pdfrwt>
<pdfrwt beam="2">  1       -2 0.15415336E-02 0.36614727E+03</pdfrwt>
<totfact> 0.27397363E+03</totfact>
</mgrwt>
</event>
<event>
 4    1  0.5531008E-005  0.7153853E+03  0.7818608E-02  0.9691277E-01
         -2   -1    0    0    0  501 -0.00000000000E+00  0.00000000000E+00  0.12183655403E+03  0.12183655406E+03  0.25500000000E-02 0. -1.
          2   -1    0    0  501    0  0.00000000000E+00 -0.00000000000E+00 -0.10501283966E+04  0.10501283966E+04  0.25500000000E-02 0.  1.
    5000001    1    1    2    0    0 -0.28075414046E+03 -0.55357474114E+02 -0.68895779544E+03  0.76405181842E+03  0.16500000000E+03 0.  0.
   -5000001    1    1    2    0    0  0.28075414046E+03  0.55357474114E+02 -0.23933404709E+03  0.40791313221E+03  0.16500000000E+03 0.  0.
<mgrwt>
<rscale>  0 0.71538528E+03</rscale>
<asrwt>0</asrwt>
<pdfrwt beam="1">  1        2 0.15001834E+00 0.71538528E+03</pdfrwt>
<pdfrwt beam="2">  1       -2 0.17405223E-01 0.71538528E+03</pdfrwt>
<totfact> 0.71435201E+02</totfact>
</mgrwt>
</event>
<event>
 4    1  0.5531008E-005  0.7439989E+03  0.7818608E-02  0.9644812E-01
         -2   -1    0    0    0  501 -0.00000000000E+00  0.00000000000E+00  0.45787580424E+02  0.45787580495E+02  0.25500000000E-02 0. -1.
          2   -1    0    0  501    0  0.00000000000E+00 -0.00000000000E+00 -0.30222956769E+04  0.30222956769E+04  0.25500000000E-02 0.  1.
    5000001    1    1    2    0    0 -0.28690134644E+03 -0.11000796558E+03 -0.95463595858E+03  0.10163507999E+04  0.16500000000E+03 0.  0.
   -5000001    1    1    2    0    0  0.28690134644E+03  0.11000796558E+03 -0.20218721379E+04  0.20517324575E+04  0.16500000000E+03 0.  0.
<mgrwt>
<rscale>  0 0.74399894E+03</rscale>
<asrwt>0</asrwt>
<pdfrwt beam="1">  1        2 0.43175640E+00 0.74399894E+03</pdfrwt>
<pdfrwt beam="2">  1       -2 0.65410848E-02 0.74399894E+03</pdfrwt>
<totfact> 0.32579118E+02</totfact>
</mgrwt>
</event>
<event>
 4    1  0.5531008E-005  0.3813897E+03  0.7818608E-02  0.1050421E+00
          2   -1    0    0  501    0  0.00000000000E+00  0.00000000000E+00  0.46543484909E+02  0.46543484978E+02  0.25500000000E-02 0.  1.
         -2   -1    0    0    0  501 -0.00000000000E+00 -0.00000000000E+00 -0.78130212427E+03  0.78130212427E+03  0.25500000000E-02 0. -1.
    5000001    1    1    2    0    0 -0.10200113698E+02  0.90803641595E+02 -0.42839527606E+03  0.46807783135E+03  0.16500000000E+03 0.  0.
   -5000001    1    1    2    0    0  0.10200113698E+02 -0.90803641595E+02 -0.30636336329E+03  0.35976777790E+03  0.16500000000E+03 0.  0.
<mgrwt>
<rscale>  0 0.38138969E+03</rscale>
<asrwt>0</asrwt>
<pdfrwt beam="1">  1        2 0.66490698E-02 0.38138969E+03</pdfrwt>
<pdfrwt beam="2">  1       -2 0.11161458E+00 0.38138969E+03</pdfrwt>
<totfact> 0.71912077E+02</totfact>
</mgrwt>
</event>
<event>
 4    1  0.5531008E-005  0.5294078E+03  0.7818608E-02  0.1006376E+00
         -2   -1    0    0    0  501 -0.00000000000E+00  0.00000000000E+00  0.10035983677E+03  0.10035983681E+03  0.25500000000E-02 0. -1.
          2   -1    0    0  501    0  0.00000000000E+00 -0.00000000000E+00 -0.69816938789E+03  0.69816938790E+03  0.25500000000E-02 0.  1.
    5000001    1    1    2    0    0 -0.12864441715E+03 -0.98523732177E+02 -0.49316436000E+03  0.54469477494E+03  0.16500000000E+03 0.  0.
   -5000001    1    1    2    0    0  0.12864441715E+03  0.98523732177E+02 -0.10464519112E+03  0.25383444977E+03  0.16500000000E+03 0.  0.
<mgrwt>
<rscale>  0 0.52940784E+03</rscale>
<asrwt>0</asrwt>
<pdfrwt beam="1">  1        2 0.99738482E-01 0.52940784E+03</pdfrwt>
<pdfrwt beam="2">  1       -2 0.14337120E-01 0.52940784E+03</pdfrwt>
<totfact> 0.17058131E+03</totfact>
</mgrwt>
</event>
<event>
 4    1  0.5531008E-005  0.6341243E+03  0.7818608E-02  0.9837034E-01
          2   -1    0    0  501    0  0.00000000000E+00  0.00000000000E+00  0.36843281784E+04  0.36843281784E+04  0.25500000000E-02 0.  1.
         -2   -1    0    0    0  501 -0.00000000000E+00 -0.00000000000E+00 -0.27285406778E+02  0.27285406897E+02  0.25500000000E-02 0. -1.
    5000001    1    1    2    0    0 -0.26131646178E+03  0.99510022632E+01  0.22389957882E+04  0.22602461050E+04  0.16500000000E+03 0.  0.
   -5000001    1    1    2    0    0  0.26131646178E+03 -0.99510022632E+01  0.14180469834E+04  0.14513674803E+04  0.16500000000E+03 0.  0.
<mgrwt>
<rscale>  0 0.63412426E+03</rscale>
<asrwt>0</asrwt>
<pdfrwt beam="1">  1        2 0.52633193E+00 0.63412426E+03</pdfrwt>
<pdfrwt beam="2">  1       -2 0.38979202E-02 0.63412426E+03</pdfrwt>
<totfact> 0.30461910E+02</totfact>
</mgrwt>
</event>
<event>
 4    1  0.5531008E-005  0.3666910E+03  0.7818608E-02  0.1055965E+00
          2   -1    0    0  501    0  0.00000000000E+00  0.00000000000E+00  0.11683004643E+03  0.11683004646E+03  0.25500000000E-02 0.  1.
         -2   -1    0    0    0  501 -0.00000000000E+00 -0.00000000000E+00 -0.28773052031E+03  0.28773052032E+03  0.25500000000E-02 0. -1.
    5000001    1    1    2    0    0  0.68933593534E+02 -0.23214225035E+02 -0.12203885395E+03  0.21773658956E+03  0.16500000000E+03 0.  0.
   -5000001    1    1    2    0    0 -0.68933593534E+02  0.23214225035E+02 -0.48861619925E+02  0.18682397722E+03  0.16500000000E+03 0.  0.
<mgrwt>
<rscale>  0 0.36669099E+03</rscale>
<asrwt>0</asrwt>
<pdfrwt beam="1">  1        2 0.16690007E-01 0.36669099E+03</pdfrwt>
<pdfrwt beam="2">  1       -2 0.41104360E-01 0.36669099E+03</pdfrwt>
<totfact> 0.19522995E+03</totfact>
</mgrwt>
</event>
<event>
 4    1  0.5531008E-005  0.4198978E+03  0.7818608E-02  0.1037100E+00
          2   -1    0    0  501    0  0.00000000000E+00  0.00000000000E+00  0.69387137861E+03  0.69387137862E+03  0.25500000000E-02 0. -1.
         -2   -1    0    0    0  501 -0.00000000000E+00 -0.00000000000E+00 -0.63525520350E+02  0.63525520401E+02  0.25500000000E-02 0.  1.
    5000001    1    1    2    0    0  0.50968815744E+02  0.90374159059E+02  0.45591550879E+03  0.49583188679E+03  0.16500000000E+03 0.  0.
   -5000001    1    1    2    0    0 -0.50968815744E+02 -0.90374159059E+02  0.17443034947E+03  0.26156501223E+03  0.16500000000E+03 0.  0.
<mgrwt>
<rscale>  0 0.41989780E+03</rscale>
<asrwt>0</asrwt>
<pdfrwt beam="1">  1        2 0.99124480E-01 0.41989780E+03</pdfrwt>
<pdfrwt beam="2">  1       -2 0.90750745E-02 0.41989780E+03</pdfrwt>
<totfact> 0.36177501E+03</totfact>
</mgrwt>
</event>
<event>
 4    1  0.5531008E-005  0.4544993E+03  0.7818608E-02  0.1026389E+00
         -2   -1    0    0    0  501 -0.00000000000E+00  0.00000000000E+00  0.34847576033E+02  0.34847576126E+02  0.25500000000E-02 0. -1.
          2   -1    0    0  501    0  0.00000000000E+00 -0.00000000000E+00 -0.14819508229E+04  0.14819508229E+04  0.25500000000E-02 0.  1.
    5000001    1    1    2    0    0 -0.34274902998E+02  0.13435259441E+03 -0.96402237028E+03  0.98782059049E+03  0.16500000000E+03 0.  0.
   -5000001    1    1    2    0    0  0.34274902998E+02 -0.13435259441E+03 -0.48308087659E+03  0.52897780854E+03  0.16500000000E+03 0.  0.
<mgrwt>
<rscale>  0 0.45449926E+03</rscale>
<asrwt>0</asrwt>
<pdfrwt beam="1">  1        2 0.21170722E+00 0.45449926E+03</pdfrwt>
<pdfrwt beam="2">  1       -2 0.49782261E-02 0.45449926E+03</pdfrwt>
<totfact> 0.31425413E+03</totfact>
</mgrwt>
</event>
<event>
 4    1  0.5531008E-005  0.9640043E+03  0.7818608E-02  0.9348930E-01
          2   -1    0    0  501    0  0.00000000000E+00  0.00000000000E+00  0.80823929716E+03  0.80823929716E+03  0.25500000000E-02 0.  1.
         -2   -1    0    0    0  501 -0.00000000000E+00 -0.00000000000E+00 -0.28744716371E+03  0.28744716372E+03  0.25500000000E-02 0. -1.
    5000001    1    1    2    0    0  0.34889515703E+03 -0.24543952598E+03  0.43326640695E+03  0.63001045301E+03  0.16500000000E+03 0.  0.
   -5000001    1    1    2    0    0 -0.34889515703E+03  0.24543952598E+03  0.87525726498E+02  0.46567600788E+03  0.16500000000E+03 0.  0.
<mgrwt>
<rscale>  0 0.96400434E+03</rscale>
<asrwt>0</asrwt>
<pdfrwt beam="1">  1        2 0.11546275E+00 0.96400434E+03</pdfrwt>
<pdfrwt beam="2">  1       -2 0.41063881E-01 0.96400434E+03</pdfrwt>
<totfact> 0.21041525E+02</totfact>
</mgrwt>
</event>
<event>
 4    1  0.5531008E-005  0.3886137E+03  0.7818608E-02  0.1047795E+00
         -2   -1    0    0    0  501 -0.00000000000E+00  0.00000000000E+00  0.22983839270E+02  0.22983839411E+02  0.25500000000E-02 0. -1.
          2   -1    0    0  501    0  0.00000000000E+00 -0.00000000000E+00 -0.16426822345E+04  0.16426822345E+04  0.25500000000E-02 0.  1.
    5000001    1    1    2    0    0  0.10029539517E+03  0.21528895994E+02 -0.79812283518E+03  0.82143028901E+03  0.16500000000E+03 0.  0.
   -5000001    1    1    2    0    0 -0.10029539517E+03 -0.21528895994E+02 -0.82157556007E+03  0.84423578493E+03  0.16500000000E+03 0.  0.
<mgrwt>
<rscale>  0 0.38861366E+03</rscale>
<asrwt>0</asrwt>
<pdfrwt beam="1">  1        2 0.23466882E+00 0.38861366E+03</pdfrwt>
<pdfrwt beam="2">  1       -2 0.32834067E-02 0.38861366E+03</pdfrwt>
<totfact> 0.49069709E+03</totfact>
</mgrwt>
</event>
<event>
 4    1  0.5531008E-005  0.6541075E+03  0.7818608E-02  0.9799102E-01
          2   -1    0    0  501    0  0.00000000000E+00  0.00000000000E+00  0.87672168871E+03  0.87672168871E+03  0.25500000000E-02 0.  1.
         -2   -1    0    0    0  501 -0.00000000000E+00 -0.00000000000E+00 -0.12200468889E+03  0.12200468892E+03  0.25500000000E-02 0. -1.
    5000001    1    1    2    0    0  0.47528805860E+02  0.25776075516E+03  0.21693302934E+03  0.37813295744E+03  0.16500000000E+03 0.  0.
   -5000001    1    1    2    0    0 -0.47528805860E+02 -0.25776075516E+03  0.53778397047E+03  0.62059342019E+03  0.16500000000E+03 0.  0.
<mgrwt>
<rscale>  0 0.65410750E+03</rscale>
<asrwt>0</asrwt>
<pdfrwt beam="1">  1        2 0.12524596E+00 0.65410750E+03</pdfrwt>
<pdfrwt beam="2">  1       -2 0.17429241E-01 0.65410750E+03</pdfrwt>
<totfact> 0.91652920E+02</totfact>
</mgrwt>
</event>
<event>
 4    1  0.5531008E-005  0.4020856E+03  0.7818608E-02  0.1043060E+00
          2   -1    0    0  501    0  0.00000000000E+00  0.00000000000E+00  0.22267504883E+03  0.22267504884E+03  0.25500000000E-02 0.  1.
         -2   -1    0    0    0  501 -0.00000000000E+00 -0.00000000000E+00 -0.18151210189E+03  0.18151210190E+03  0.25500000000E-02 0. -1.
    5000001    1    1    2    0    0 -0.11251553306E+03  0.51509937745E-01 -0.26361762204E+01  0.19972905963E+03  0.16500000000E+03 0.  0.
   -5000001    1    1    2    0    0  0.11251553306E+03 -0.51509937745E-01  0.43799123160E+02  0.20445809112E+03  0.16500000000E+03 0.  0.
<mgrwt>
<rscale>  0 0.40208564E+03</rscale>
<asrwt>0</asrwt>
<pdfrwt beam="1">  1        2 0.31810721E-01 0.40208564E+03</pdfrwt>
<pdfrwt beam="2">  1       -2 0.25930300E-01 0.40208564E+03</pdfrwt>
<totfact> 0.22051252E+03</totfact>
</mgrwt>
</event>
<event>
 4    1  0.5531008E-005  0.5035338E+03  0.7818608E-02  0.1012861E+00
          2   -1    0    0  501    0  0.00000000000E+00  0.00000000000E+00  0.23167657635E+03  0.23167657636E+03  0.25500000000E-02 0.  1.
         -2   -1    0    0    0  501 -0.00000000000E+00 -0.00000000000E+00 -0.27359940896E+03  0.27359940897E+03  0.25500000000E-02 0. -1.
    5000001    1    1    2    0    0  0.42298850766E+02 -0.17505789387E+03 -0.82222748946E+02  0.25772085563E+03  0.16500000000E+03 0.  0.
   -5000001    1    1    2    0    0 -0.42298850766E+02  0.17505789387E+03  0.40299916336E+02  0.24755512970E+03  0.16500000000E+03 0.  0.
<mgrwt>
<rscale>  0 0.50353381E+03</rscale>
<asrwt>0</asrwt>
<pdfrwt beam="1">  1        2 0.33096654E-01 0.50353381E+03</pdfrwt>
<pdfrwt beam="2">  1       -2 0.39085630E-01 0.50353381E+03</pdfrwt>
<totfact> 0.98725389E+02</totfact>
</mgrwt>
</event>
<event>
 4    1  0.5531008E-005  0.4308237E+03  0.7818608E-02  0.1033600E+00
         -2   -1    0    0    0  501 -0.00000000000E+00  0.00000000000E+00  0.46530450580E+02  0.46530450649E+02  0.25500000000E-02 0. -1.
          2   -1    0    0  501    0  0.00000000000E+00 -0.00000000000E+00 -0.99724512494E+03  0.99724512495E+03  0.25500000000E-02 0.  1.
    5000001    1    1    2    0    0 -0.10567864978E+03  0.83886317175E+02 -0.55090554586E+03  0.59070027229E+03  0.16500000000E+03 0.  0.
   -5000001    1    1    2    0    0  0.10567864978E+03 -0.83886317175E+02 -0.39980912851E+03  0.45307530330E+03  0.16500000000E+03 0.  0.
<mgrwt>
<rscale>  0 0.43082370E+03</rscale>
<asrwt>0</asrwt>
<pdfrwt beam="1">  1        2 0.14246358E+00 0.43082370E+03</pdfrwt>
<pdfrwt beam="2">  1       -2 0.66472079E-02 0.43082370E+03</pdfrwt>
<totfact> 0.37120386E+03</totfact>
</mgrwt>
</event>
<event>
 4    1  0.5531008E-005  0.4283205E+03  0.7818608E-02  0.1034392E+00
          2   -1    0    0  501    0  0.00000000000E+00  0.00000000000E+00  0.14368416382E+04  0.14368416382E+04  0.25500000000E-02 0.  1.
         -2   -1    0    0    0  501 -0.00000000000E+00 -0.00000000000E+00 -0.31920432810E+02  0.31920432912E+02  0.25500000000E-02 0. -1.
    5000001    1    1    2    0    0  0.11778162217E+03 -0.66980278885E+02  0.64500481175E+03  0.67942260447E+03  0.16500000000E+03 0.  0.
   -5000001    1    1    2    0    0 -0.11778162217E+03  0.66980278885E+02  0.75991639359E+03  0.78933946660E+03  0.16500000000E+03 0.  0.
<mgrwt>
<rscale>  0 0.42832047E+03</rscale>
<asrwt>0</asrwt>
<pdfrwt beam="1">  1        2 0.20526306E+00 0.42832047E+03</pdfrwt>
<pdfrwt beam="2">  1       -2 0.45600625E-02 0.42832047E+03</pdfrwt>
<totfact> 0.37954718E+03</totfact>
</mgrwt>
</event>
<event>
 4    1  0.5531008E-005  0.6241758E+03  0.7818608E-02  0.9856481E-01
          2   -1    0    0  501    0  0.00000000000E+00  0.00000000000E+00  0.24359417216E+04  0.24359417216E+04  0.25500000000E-02 0.  1.
         -2   -1    0    0    0  501 -0.00000000000E+00 -0.00000000000E+00 -0.39984072898E+02  0.39984072980E+02  0.25500000000E-02 0. -1.
    5000001    1    1    2    0    0  0.13977840092E+03 -0.23200406141E+02  0.31012969010E+03  0.37878976345E+03  0.16500000000E+03 0.  0.
   -5000001    1    1    2    0    0 -0.13977840092E+03  0.23200406141E+02  0.20858279586E+04  0.20971360311E+04  0.16500000000E+03 0.  0.
<mgrwt>
<rscale>  0 0.62417585E+03</rscale>
<asrwt>0</asrwt>
<pdfrwt beam="1">  1        2 0.34799166E+00 0.62417585E+03</pdfrwt>
<pdfrwt beam="2">  1       -2 0.57120107E-02 0.62417585E+03</pdfrwt>
<totfact> 0.83101921E+02</totfact>
</mgrwt>
</event>
<event>
 4    1  0.5531008E-005  0.7411669E+03  0.7818608E-02  0.9649311E-01
          2   -1    0    0  501    0  0.00000000000E+00  0.00000000000E+00  0.31050793329E+04  0.31050793329E+04  0.25500000000E-02 0.  1.
         -2   -1    0    0    0  501 -0.00000000000E+00 -0.00000000000E+00 -0.44228207067E+02  0.44228207141E+02  0.25500000000E-02 0. -1.
    5000001    1    1    2    0    0 -0.28004207903E+03 -0.28173369748E+02  0.22772293587E+04  0.23004816576E+04  0.16500000000E+03 0.  0.
   -5000001    1    1    2    0    0  0.28004207903E+03  0.28173369748E+02  0.78362176712E+03  0.84882588244E+03  0.16500000000E+03 0.  0.
<mgrwt>
<rscale>  0 0.74116690E+03</rscale>
<asrwt>0</asrwt>
<pdfrwt beam="1">  1        2 0.44358273E+00 0.74116690E+03</pdfrwt>
<pdfrwt beam="2">  1       -2 0.63183158E-02 0.74116690E+03</pdfrwt>
<totfact> 0.30978722E+02</totfact>
</mgrwt>
</event>
<event>
 4    1  0.5531008E-005  0.6299757E+03  0.7818608E-02  0.9845096E-01
         -2   -1    0    0    0  501 -0.00000000000E+00  0.00000000000E+00  0.75742227460E+02  0.75742227503E+02  0.25500000000E-02 0. -1.
          2   -1    0    0  501    0  0.00000000000E+00 -0.00000000000E+00 -0.13099344318E+04  0.13099344318E+04  0.25500000000E-02 0.  1.
    5000001    1    1    2    0    0  0.16098247914E+03 -0.19738738963E+03 -0.80263372965E+03  0.85809267807E+03  0.16500000000E+03 0.  0.
   -5000001    1    1    2    0    0 -0.16098247914E+03  0.19738738963E+03 -0.43155847465E+03  0.52758398120E+03  0.16500000000E+03 0.  0.
<mgrwt>
<rscale>  0 0.62997572E+03</rscale>
<asrwt>0</asrwt>
<pdfrwt beam="1">  1        2 0.18713348E+00 0.62997572E+03</pdfrwt>
<pdfrwt beam="2">  1       -2 0.10820319E-01 0.62997572E+03</pdfrwt>
<totfact> 0.11296660E+03</totfact>
</mgrwt>
</event>
<event>
 4    1  0.5531008E-005  0.9580499E+03  0.7818608E-02  0.9355791E-01
         -2   -1    0    0    0  501 -0.00000000000E+00  0.00000000000E+00  0.86705421744E+02  0.86705421782E+02  0.25500000000E-02 0. -1.
          2   -1    0    0  501    0  0.00000000000E+00 -0.00000000000E+00 -0.26464885844E+04  0.26464885844E+04  0.25500000000E-02 0.  1.
    5000001    1    1    2    0    0 -0.39817066014E+03  0.20722195423E+03 -0.13584930525E+04  0.14402115076E+04  0.16500000000E+03 0.  0.
   -5000001    1    1    2    0    0  0.39817066014E+03 -0.20722195423E+03 -0.12012901102E+04  0.12929824987E+04  0.16500000000E+03 0.  0.
<mgrwt>
<rscale>  0 0.95804991E+03</rscale>
<asrwt>0</asrwt>
<pdfrwt beam="1">  1        2 0.37806975E+00 0.95804991E+03</pdfrwt>
<pdfrwt beam="2">  1       -2 0.12386490E-01 0.95804991E+03</pdfrwt>
<totfact> 0.18097131E+02</totfact>
</mgrwt>
</event>
<event>
 4    1  0.5531008E-005  0.9584958E+03  0.7818608E-02  0.9355275E-01
          2   -1    0    0  501    0  0.00000000000E+00  0.00000000000E+00  0.20439428668E+03  0.20439428670E+03  0.25500000000E-02 0.  1.
         -2   -1    0    0    0  501 -0.00000000000E+00 -0.00000000000E+00 -0.11237034890E+04  0.11237034890E+04  0.25500000000E-02 0. -1.
    5000001    1    1    2    0    0  0.12872974451E+03  0.40022288088E+03 -0.68180090122E+03  0.81781854369E+03  0.16500000000E+03 0.  0.
   -5000001    1    1    2    0    0 -0.12872974451E+03 -0.40022288088E+03 -0.23750830106E+03  0.51027923197E+03  0.16500000000E+03 0.  0.
<mgrwt>
<rscale>  0 0.95849585E+03</rscale>
<asrwt>0</asrwt>
<pdfrwt beam="1">  1        2 0.29199185E-01 0.95849585E+03</pdfrwt>
<pdfrwt beam="2">  1       -2 0.16052907E+00 0.95849585E+03</pdfrwt>
<totfact> 0.45855003E+01</totfact>
</mgrwt>
</event>
<event>
 4    1  0.5531008E-005  0.4037083E+03  0.7818608E-02  0.1042503E+00
         -2   -1    0    0    0  501 -0.00000000000E+00  0.00000000000E+00  0.20031841053E+02  0.20031841215E+02  0.25500000000E-02 0. -1.
          2   -1    0    0  501    0  0.00000000000E+00 -0.00000000000E+00 -0.20340170367E+04  0.20340170368E+04  0.25500000000E-02 0.  1.
    5000001    1    1    2    0    0  0.23066383094E+02  0.11224519502E+03 -0.11073510027E+04  0.11254253796E+04  0.16500000000E+03 0.  0.
   -5000001    1    1    2    0    0 -0.23066383094E+02 -0.11224519502E+03 -0.90663419301E+03  0.92862349840E+03  0.16500000000E+03 0.  0.
<mgrwt>
<rscale>  0 0.40370834E+03</rscale>
<asrwt>0</asrwt>
<pdfrwt beam="1">  1        2 0.29057373E+00 0.40370834E+03</pdfrwt>
<pdfrwt beam="2">  1       -2 0.28616929E-02 0.40370834E+03</pdfrwt>
<totfact> 0.38555742E+03</totfact>
</mgrwt>
</event>
<event>
 4    1  0.5531008E-005  0.6744984E+03  0.7818608E-02  0.9761865E-01
         -2   -1    0    0    0  501 -0.00000000000E+00  0.00000000000E+00  0.33372356129E+03  0.33372356130E+03  0.25500000000E-02 0.  1.
          2   -1    0    0  501    0  0.00000000000E+00 -0.00000000000E+00 -0.34081207179E+03  0.34081207180E+03  0.25500000000E-02 0. -1.
    5000001    1    1    2    0    0  0.23133887557E+03  0.13515574231E+03 -0.12490691370E+03  0.33854318354E+03  0.16500000000E+03 0.  0.
   -5000001    1    1    2    0    0 -0.23133887557E+03 -0.13515574231E+03  0.11781840320E+03  0.33599244956E+03  0.16500000000E+03 0.  0.
<mgrwt>
<rscale>  0 0.67449839E+03</rscale>
<asrwt>0</asrwt>
<pdfrwt beam="1">  1        2 0.48687439E-01 0.67449839E+03</pdfrwt>
<pdfrwt beam="2">  1       -2 0.47674794E-01 0.67449839E+03</pdfrwt>
<totfact> 0.43472415E+02</totfact>
</mgrwt>
</event>
<event>
 4    1  0.5531008E-005  0.4649309E+03  0.7818608E-02  0.1023361E+00
         -2   -1    0    0    0  501 -0.00000000000E+00  0.00000000000E+00  0.31025107967E+02  0.31025108072E+02  0.25500000000E-02 0. -1.
          2   -1    0    0  501    0  0.00000000000E+00 -0.00000000000E+00 -0.17418211372E+04  0.17418211372E+04  0.25500000000E-02 0.  1.
    5000001    1    1    2    0    0  0.89414494750E+01  0.11257525844E+03 -0.40322256917E+03  0.45007397016E+03  0.16500000000E+03 0.  0.
   -5000001    1    1    2    0    0 -0.89414494750E+01 -0.11257525844E+03 -0.13075734600E+04  0.13227722751E+04  0.16500000000E+03 0.  0.
<mgrwt>
<rscale>  0 0.46493092E+03</rscale>
<asrwt>0</asrwt>
<pdfrwt beam="1">  1        2 0.24883153E+00 0.46493092E+03</pdfrwt>
<pdfrwt beam="2">  1       -2 0.44321594E-02 0.46493092E+03</pdfrwt>
<totfact> 0.27707314E+03</totfact>
</mgrwt>
</event>
<event>
 4    1  0.5531008E-005  0.7287777E+03  0.7818608E-02  0.9669246E-01
         -2   -1    0    0    0  501 -0.00000000000E+00  0.00000000000E+00  0.24305002300E+03  0.24305002302E+03  0.25500000000E-02 0. -1.
          2   -1    0    0  501    0  0.00000000000E+00 -0.00000000000E+00 -0.54630413146E+03  0.54630413147E+03  0.25500000000E-02 0.  1.
    5000001    1    1    2    0    0 -0.31456117150E+03 -0.41180257403E+02 -0.22752040946E+03  0.42383378928E+03  0.16500000000E+03 0.  0.
   -5000001    1    1    2    0    0  0.31456117150E+03  0.41180257403E+02 -0.75733698994E+02  0.36552036520E+03  0.16500000000E+03 0.  0.
<mgrwt>
<rscale>  0 0.72877769E+03</rscale>
<asrwt>0</asrwt>
<pdfrwt beam="1">  1        2 0.78043447E-01 0.72877769E+03</pdfrwt>
<pdfrwt beam="2">  1       -2 0.34721432E-01 0.72877769E+03</pdfrwt>
<totfact> 0.47378761E+02</totfact>
</mgrwt>
</event>
<event>
 4    1  0.5531008E-005  0.4357188E+03  0.7818608E-02  0.1032069E+00
         -2   -1    0    0    0  501 -0.00000000000E+00  0.00000000000E+00  0.62508590382E+02  0.62508590434E+02  0.25500000000E-02 0. -1.
          2   -1    0    0  501    0  0.00000000000E+00 -0.00000000000E+00 -0.75929902994E+03  0.75929902995E+03  0.25500000000E-02 0.  1.
    5000001    1    1    2    0    0  0.25453390577E+02 -0.78034256787E+02 -0.56754381283E+03  0.59671450444E+03  0.16500000000E+03 0.  0.
   -5000001    1    1    2    0    0 -0.25453390577E+02  0.78034256787E+02 -0.12924662673E+03  0.22509311594E+03  0.16500000000E+03 0.  0.
<mgrwt>
<rscale>  0 0.43571877E+03</rscale>
<asrwt>0</asrwt>
<pdfrwt beam="1">  1        2 0.10847128E+00 0.43571877E+03</pdfrwt>
<pdfrwt beam="2">  1       -2 0.89297991E-02 0.43571877E+03</pdfrwt>
<totfact> 0.33264948E+03</totfact>
</mgrwt>
</event>
<event>
 4    1  0.5531008E-005  0.5618488E+03  0.7818608E-02  0.9987880E-01
          2   -1    0    0  501    0  0.00000000000E+00  0.00000000000E+00  0.81838960430E+02  0.81838960470E+02  0.25500000000E-02 0.  1.
         -2   -1    0    0    0  501 -0.00000000000E+00 -0.00000000000E+00 -0.96431490026E+03  0.96431490026E+03  0.25500000000E-02 0. -1.
    5000001    1    1    2    0    0  0.71215713797E+02 -0.14798237283E+03 -0.73400843398E+03  0.77004145454E+03  0.16500000000E+03 0.  0.
   -5000001    1    1    2    0    0 -0.71215713797E+02  0.14798237283E+03 -0.14846750585E+03  0.27611240619E+03  0.16500000000E+03 0.  0.
<mgrwt>
<rscale>  0 0.56184884E+03</rscale>
<asrwt>0</asrwt>
<pdfrwt beam="1">  1        2 0.11691281E-01 0.56184884E+03</pdfrwt>
<pdfrwt beam="2">  1       -2 0.13775926E+00 0.56184884E+03</pdfrwt>
<totfact> 0.20743111E+02</totfact>
</mgrwt>
</event>
<event>
 4    1  0.5531008E-005  0.5361435E+03  0.7818608E-02  0.1004753E+00
          2   -1    0    0  501    0  0.00000000000E+00  0.00000000000E+00  0.78779441647E+02  0.78779441688E+02  0.25500000000E-02 0.  1.
         -2   -1    0    0    0  501 -0.00000000000E+00 -0.00000000000E+00 -0.91219823406E+03  0.91219823407E+03  0.25500000000E-02 0. -1.
    5000001    1    1    2    0    0 -0.12526920922E+03 -0.15748566248E+03 -0.29773347127E+03  0.39542929656E+03  0.16500000000E+03 0.  0.
   -5000001    1    1    2    0    0  0.12526920922E+03  0.15748566248E+03 -0.53568532115E+03  0.59554837920E+03  0.16500000000E+03 0.  0.
<mgrwt>
<rscale>  0 0.53614352E+03</rscale>
<asrwt>0</asrwt>
<pdfrwt beam="1">  1        2 0.11254206E-01 0.53614352E+03</pdfrwt>
<pdfrwt beam="2">  1       -2 0.13031403E+00 0.53614352E+03</pdfrwt>
<totfact> 0.25056907E+02</totfact>
</mgrwt>
</event>
<event>
 4    1  0.5531008E-005  0.5400041E+03  0.7818608E-02  0.1003834E+00
          2   -1    0    0  501    0  0.00000000000E+00  0.00000000000E+00  0.59180172430E+03  0.59180172430E+03  0.25500000000E-02 0.  1.
         -2   -1    0    0    0  501 -0.00000000000E+00 -0.00000000000E+00 -0.12318502330E+03  0.12318502333E+03  0.25500000000E-02 0. -1.
    5000001    1    1    2    0    0 -0.11064400255E+03  0.18262940625E+03  0.22242780711E+03  0.34970662663E+03  0.16500000000E+03 0.  0.
   -5000001    1    1    2    0    0  0.11064400255E+03 -0.18262940625E+03  0.24618889388E+03  0.36528012100E+03  0.16500000000E+03 0.  0.
<mgrwt>
<rscale>  0 0.54000411E+03</rscale>
<asrwt>0</asrwt>
<pdfrwt beam="1">  1        2 0.84543103E-01 0.54000411E+03</pdfrwt>
<pdfrwt beam="2">  1       -2 0.17597861E-01 0.54000411E+03</pdfrwt>
<totfact> 0.14691910E+03</totfact>
</mgrwt>
</event>
<event>
 4    1  0.5531008E-005  0.5951790E+03  0.7818608E-02  0.9915459E-01
          2   -1    0    0  501    0  0.00000000000E+00  0.00000000000E+00  0.10157171005E+04  0.10157171005E+04  0.25500000000E-02 0.  1.
         -2   -1    0    0    0  501 -0.00000000000E+00 -0.00000000000E+00 -0.87189164238E+02  0.87189164275E+02  0.25500000000E-02 0. -1.
    5000001    1    1    2    0    0  0.23618066432E+03  0.21639372491E+02  0.59640405512E+03  0.66270081153E+03  0.16500000000E+03 0.  0.
   -5000001    1    1    2    0    0 -0.23618066432E+03 -0.21639372491E+02  0.33212388112E+03  0.44020545323E+03  0.16500000000E+03 0.  0.
<mgrwt>
<rscale>  0 0.59517905E+03</rscale>
<asrwt>0</asrwt>
<pdfrwt beam="1">  1        2 0.14510244E+00 0.59517905E+03</pdfrwt>
<pdfrwt beam="2">  1       -2 0.12455595E-01 0.59517905E+03</pdfrwt>
<totfact> 0.13204375E+03</totfact>
</mgrwt>
</event>
<event>
 4    1  0.5531008E-005  0.3890107E+03  0.7818608E-02  0.1047653E+00
          2   -1    0    0  501    0  0.00000000000E+00  0.00000000000E+00  0.53036007701E+03  0.53036007702E+03  0.25500000000E-02 0.  1.
         -2   -1    0    0    0  501 -0.00000000000E+00 -0.00000000000E+00 -0.71333278030E+02  0.71333278076E+02  0.25500000000E-02 0. -1.
    5000001    1    1    2    0    0 -0.33248131374E+02 -0.23682219583E+02  0.83259429338E+02  0.18927075405E+03  0.16500000000E+03 0.  0.
   -5000001    1    1    2    0    0  0.33248131374E+02  0.23682219583E+02  0.37576736965E+03  0.41242260105E+03  0.16500000000E+03 0.  0.
<mgrwt>
<rscale>  0 0.38901066E+03</rscale>
<asrwt>0</asrwt>
<pdfrwt beam="1">  1        2 0.75765724E-01 0.38901066E+03</pdfrwt>
<pdfrwt beam="2">  1       -2 0.10190468E-01 0.38901066E+03</pdfrwt>
<totfact> 0.41039080E+03</totfact>
</mgrwt>
</event>
<event>
 4    1  0.5531008E-005  0.4616855E+03  0.7818608E-02  0.1024293E+00
         -2   -1    0    0    0  501 -0.00000000000E+00  0.00000000000E+00  0.15991484617E+02  0.15991484820E+02  0.25500000000E-02 0. -1.
          2   -1    0    0  501    0  0.00000000000E+00 -0.00000000000E+00 -0.33322975250E+04  0.33322975250E+04  0.25500000000E-02 0.  1.
    5000001    1    1    2    0    0  0.32134714680E+01  0.13422409914E+03 -0.10079899621E+04  0.10301918263E+04  0.16500000000E+03 0.  0.
   -5000001    1    1    2    0    0 -0.32134714680E+01 -0.13422409914E+03 -0.23083160782E+04  0.23180971835E+04  0.16500000000E+03 0.  0.
<mgrwt>
<rscale>  0 0.46168554E+03</rscale>
<asrwt>0</asrwt>
<pdfrwt beam="1">  1        2 0.47604206E+00 0.46168554E+03</pdfrwt>
<pdfrwt beam="2">  1       -2 0.22844999E-02 0.46168554E+03</pdfrwt>
<totfact> 0.11314272E+03</totfact>
</mgrwt>
</event>
<event>
 4    1  0.5531008E-005  0.1657181E+04  0.7818608E-02  0.8786169E-01
          2   -1    0    0  501    0  0.00000000000E+00  0.00000000000E+00  0.25770971900E+04  0.25770971900E+04  0.25500000000E-02 0.  1.
         -2   -1    0    0    0  501 -0.00000000000E+00 -0.00000000000E+00 -0.26640926233E+03  0.26640926235E+03  0.25500000000E-02 0. -1.
    5000001    1    1    2    0    0 -0.30813771330E+03 -0.74022070425E+03  0.13754975308E+04  0.16006542408E+04  0.16500000000E+03 0.  0.
   -5000001    1    1    2    0    0  0.30813771330E+03  0.74022070425E+03  0.93519039689E+03  0.12428522116E+04  0.16500000000E+03 0.  0.
<mgrwt>
<rscale>  0 0.16571814E+04</rscale>
<asrwt>0</asrwt>
<pdfrwt beam="1">  1        2 0.36815673E+00 0.16571814E+04</pdfrwt>
<pdfrwt beam="2">  1       -2 0.38058467E-01 0.16571814E+04</pdfrwt>
<totfact> 0.25047127E+01</totfact>
</mgrwt>
</event>
<event>
 4    1  0.5531008E-005  0.5760878E+03  0.7818608E-02  0.9956297E-01
          2   -1    0    0  501    0  0.00000000000E+00  0.00000000000E+00  0.11714084677E+03  0.11714084680E+03  0.25500000000E-02 0.  1.
         -2   -1    0    0    0  501 -0.00000000000E+00 -0.00000000000E+00 -0.70828645608E+03  0.70828645609E+03  0.25500000000E-02 0. -1.
    5000001    1    1    2    0    0 -0.11225177055E+03 -0.14892471091E+03 -0.50303557104E+03  0.56129209441E+03  0.16500000000E+03 0.  0.
   -5000001    1    1    2    0    0  0.11225177055E+03  0.14892471091E+03 -0.88110038270E+02  0.26413520847E+03  0.16500000000E+03 0.  0.
<mgrwt>
<rscale>  0 0.57608775E+03</rscale>
<asrwt>0</asrwt>
<pdfrwt beam="1">  1        2 0.16734407E-01 0.57608775E+03</pdfrwt>
<pdfrwt beam="2">  1       -2 0.10118378E+00 0.57608775E+03</pdfrwt>
<totfact> 0.28546118E+02</totfact>
</mgrwt>
</event>
<event>
 4    1  0.5531008E-005  0.5207945E+03  0.7818608E-02  0.1008489E+00
          2   -1    0    0  501    0  0.00000000000E+00  0.00000000000E+00  0.10667052692E+04  0.10667052692E+04  0.25500000000E-02 0.  1.
         -2   -1    0    0    0  501 -0.00000000000E+00 -0.00000000000E+00 -0.63566514654E+02  0.63566514705E+02  0.25500000000E-02 0. -1.
    5000001    1    1    2    0    0 -0.25017784843E+01  0.13108683619E+03  0.16963859005E+03  0.27054069704E+03  0.16500000000E+03 0.  0.
   -5000001    1    1    2    0    0  0.25017784843E+01 -0.13108683619E+03  0.83350016445E+03  0.85973108682E+03  0.16500000000E+03 0.  0.
<mgrwt>
<rscale>  0 0.52079453E+03</rscale>
<asrwt>0</asrwt>
<pdfrwt beam="1">  1        2 0.15238646E+00 0.52079453E+03</pdfrwt>
<pdfrwt beam="2">  1       -2 0.90809310E-02 0.52079453E+03</pdfrwt>
<totfact> 0.20609943E+03</totfact>
</mgrwt>
</event>
<event>
 4    1  0.5531008E-005  0.5369746E+03  0.7818608E-02  0.1004555E+00
          2   -1    0    0  501    0  0.00000000000E+00  0.00000000000E+00  0.30887986073E+03  0.30887986074E+03  0.25500000000E-02 0.  1.
         -2   -1    0    0    0  501 -0.00000000000E+00 -0.00000000000E+00 -0.23337690979E+03  0.23337690981E+03  0.25500000000E-02 0. -1.
    5000001    1    1    2    0    0  0.20112654306E+03 -0.59562064206E+02  0.67381226515E+02  0.27525398363E+03  0.16500000000E+03 0.  0.
   -5000001    1    1    2    0    0 -0.20112654306E+03  0.59562064206E+02  0.81217244225E+01  0.26700278692E+03  0.16500000000E+03 0.  0.
<mgrwt>
<rscale>  0 0.53697459E+03</rscale>
<asrwt>0</asrwt>
<pdfrwt beam="1">  1        2 0.44125694E-01 0.53697459E+03</pdfrwt>
<pdfrwt beam="2">  1       -2 0.33339559E-01 0.53697459E+03</pdfrwt>
<totfact> 0.97217700E+02</totfact>
</mgrwt>
</event>
<event>
 4    1  0.5531008E-005  0.3743822E+03  0.7818608E-02  0.1053030E+00
         -2   -1    0    0    0  501 -0.00000000000E+00  0.00000000000E+00  0.89075424723E+02  0.89075424759E+02  0.25500000000E-02 0. -1.
          2   -1    0    0  501    0  0.00000000000E+00 -0.00000000000E+00 -0.39338022914E+03  0.39338022915E+03  0.25500000000E-02 0.  1.
    5000001    1    1    2    0    0  0.71543768472E+02 -0.13401186865E+02 -0.21680991972E+03  0.28201000675E+03  0.16500000000E+03 0.  0.
   -5000001    1    1    2    0    0 -0.71543768472E+02  0.13401186865E+02 -0.87494884692E+02  0.20044564716E+03  0.16500000000E+03 0.  0.
<mgrwt>
<rscale>  0 0.37438222E+03</rscale>
<asrwt>0</asrwt>
<pdfrwt beam="1">  1        2 0.56197175E-01 0.37438222E+03</pdfrwt>
<pdfrwt beam="2">  1       -2 0.12725061E-01 0.37438222E+03</pdfrwt>
<totfact> 0.39843563E+03</totfact>
</mgrwt>
</event>
<event>
 4    1  0.5531008E-005  0.9496812E+03  0.7818608E-02  0.9365523E-01
          2   -1    0    0  501    0  0.00000000000E+00  0.00000000000E+00  0.93940937572E+03  0.93940937572E+03  0.25500000000E-02 0.  1.
         -2   -1    0    0    0  501 -0.00000000000E+00 -0.00000000000E+00 -0.24001635237E+03  0.24001635238E+03  0.25500000000E-02 0. -1.
    5000001    1    1    2    0    0  0.14405173552E+03 -0.41779860327E+03  0.28233423484E+03  0.54976740133E+03  0.16500000000E+03 0.  0.
   -5000001    1    1    2    0    0 -0.14405173552E+03  0.41779860327E+03  0.41705878851E+03  0.62965832677E+03  0.16500000000E+03 0.  0.
<mgrwt>
<rscale>  0 0.94968123E+03</rscale>
<asrwt>0</asrwt>
<pdfrwt beam="1">  1        2 0.13420134E+00 0.94968123E+03</pdfrwt>
<pdfrwt beam="2">  1       -2 0.34288050E-01 0.94968123E+03</pdfrwt>
<totfact> 0.24389326E+02</totfact>
</mgrwt>
</event>
<event>
 4    1  0.5531008E-005  0.6441887E+03  0.7818608E-02  0.9817745E-01
          2   -1    0    0  501    0  0.00000000000E+00  0.00000000000E+00  0.19099261040E+04  0.19099261040E+04  0.25500000000E-02 0.  1.
         -2   -1    0    0    0  501 -0.00000000000E+00 -0.00000000000E+00 -0.54318742262E+02  0.54318742321E+02  0.25500000000E-02 0. -1.
    5000001    1    1    2    0    0 -0.20605384997E+03  0.18424894523E+03  0.96034867994E+03  0.10128674395E+04  0.16500000000E+03 0.  0.
   -5000001    1    1    2    0    0  0.20605384997E+03 -0.18424894523E+03  0.89525868182E+03  0.95137740686E+03  0.16500000000E+03 0.  0.
<mgrwt>
<rscale>  0 0.64418874E+03</rscale>
<asrwt>0</asrwt>
<pdfrwt beam="1">  1        2 0.27284665E+00 0.64418874E+03</pdfrwt>
<pdfrwt beam="2">  1       -2 0.77598186E-02 0.64418874E+03</pdfrwt>
<totfact> 0.94401882E+02</totfact>
</mgrwt>
</event>
<event>
 4    1  0.5531008E-005  0.8326449E+03  0.7818608E-02  0.9513931E-01
          2   -1    0    0  501    0  0.00000000000E+00  0.00000000000E+00  0.74836445810E+03  0.74836445811E+03  0.25500000000E-02 0.  1.
         -2   -1    0    0    0  501 -0.00000000000E+00 -0.00000000000E+00 -0.23160424648E+03  0.23160424649E+03  0.25500000000E-02 0. -1.
    5000001    1    1    2    0    0  0.27397785295E+03  0.17143034670E+03  0.18195557640E+02  0.36332947306E+03  0.16500000000E+03 0.  0.
   -5000001    1    1    2    0    0 -0.27397785295E+03 -0.17143034670E+03  0.49856465398E+03  0.61663923154E+03  0.16500000000E+03 0.  0.
<mgrwt>
<rscale>  0 0.83264491E+03</rscale>
<asrwt>0</asrwt>
<pdfrwt beam="1">  1        2 0.10690921E+00 0.83264491E+03</pdfrwt>
<pdfrwt beam="2">  1       -2 0.33086320E-01 0.83264491E+03</pdfrwt>
<totfact> 0.35387380E+02</totfact>
</mgrwt>
</event>
<event>
 4    1  0.5531008E-005  0.5428396E+03  0.7818608E-02  0.1003165E+00
          2   -1    0    0  501    0  0.00000000000E+00  0.00000000000E+00  0.66071914592E+03  0.66071914593E+03  0.25500000000E-02 0. -1.
         -2   -1    0    0    0  501 -0.00000000000E+00 -0.00000000000E+00 -0.11149774794E+03  0.11149774797E+03  0.25500000000E-02 0.  1.
    5000001    1    1    2    0    0 -0.77919032428E+02  0.19150749850E+03  0.18811306363E+03  0.32458900521E+03  0.16500000000E+03 0.  0.
   -5000001    1    1    2    0    0  0.77919032428E+02 -0.19150749850E+03  0.36110833435E+03  0.44762788869E+03  0.16500000000E+03 0.  0.
<mgrwt>
<rscale>  0 0.54283956E+03</rscale>
<asrwt>0</asrwt>
<pdfrwt beam="1">  1        2 0.94388447E-01 0.54283956E+03</pdfrwt>
<pdfrwt beam="2">  1       -2 0.15928250E-01 0.54283956E+03</pdfrwt>
<totfact> 0.15276993E+03</totfact>
</mgrwt>
</event>
<event>
 4    1  0.5531008E-005  0.8335658E+03  0.7818608E-02  0.9512664E-01
         -2   -1    0    0    0  501 -0.00000000000E+00  0.00000000000E+00  0.10527124389E+03  0.10527124392E+03  0.25500000000E-02 0. -1.
          2   -1    0    0  501    0  0.00000000000E+00 -0.00000000000E+00 -0.16500989381E+04  0.16500989381E+04  0.25500000000E-02 0.  1.
    5000001    1    1    2    0    0 -0.85011672491E+01 -0.25484006377E+03 -0.13734773425E+04  0.14066558706E+04  0.16500000000E+03 0.  0.
   -5000001    1    1    2    0    0  0.85011672491E+01  0.25484006377E+03 -0.17135035168E+03  0.34871431139E+03  0.16500000000E+03 0.  0.
<mgrwt>
<rscale>  0 0.83356576E+03</rscale>
<asrwt>0</asrwt>
<pdfrwt beam="1">  1        2 0.23572840E+00 0.83356576E+03</pdfrwt>
<pdfrwt beam="2">  1       -2 0.15038750E-01 0.83356576E+03</pdfrwt>
<totfact> 0.42819924E+02</totfact>
</mgrwt>
</event>
<event>
 4    1  0.5531008E-005  0.4197652E+03  0.7818608E-02  0.1037143E+00
          2   -1    0    0  501    0  0.00000000000E+00  0.00000000000E+00  0.37646133839E+03  0.37646133839E+03  0.25500000000E-02 0.  1.
         -2   -1    0    0    0  501 -0.00000000000E+00 -0.00000000000E+00 -0.11701256693E+03  0.11701256696E+03  0.25500000000E-02 0. -1.
    5000001    1    1    2    0    0 -0.11685566772E+03  0.48763530364E+02  0.96628125577E+02  0.22933626757E+03  0.16500000000E+03 0.  0.
   -5000001    1    1    2    0    0  0.11685566772E+03 -0.48763530364E+02  0.16282064587E+03  0.26413763778E+03  0.16500000000E+03 0.  0.
<mgrwt>
<rscale>  0 0.41976521E+03</rscale>
<asrwt>0</asrwt>
<pdfrwt beam="1">  1        2 0.53780192E-01 0.41976521E+03</pdfrwt>
<pdfrwt beam="2">  1       -2 0.16716081E-01 0.41976521E+03</pdfrwt>
<totfact> 0.26618914E+03</totfact>
</mgrwt>
</event>
<event>
 4    1  0.5531008E-005  0.4740464E+03  0.7818608E-02  0.1020784E+00
         -2   -1    0    0    0  501 -0.00000000000E+00  0.00000000000E+00  0.19156349104E+04  0.19156349104E+04  0.25500000000E-02 0. -1.
          2   -1    0    0  501    0  0.00000000000E+00 -0.00000000000E+00 -0.29327090901E+02  0.29327091012E+02  0.25500000000E-02 0.  1.
    5000001    1    1    2    0    0  0.15552450367E+03  0.69034330994E+02  0.93831813022E+03  0.96779105369E+03  0.16500000000E+03 0.  0.
   -5000001    1    1    2    0    0 -0.15552450367E+03 -0.69034330994E+02  0.94798968927E+03  0.97717094771E+03  0.16500000000E+03 0.  0.
<mgrwt>
<rscale>  0 0.47404641E+03</rscale>
<asrwt>0</asrwt>
<pdfrwt beam="1">  1        2 0.41895839E-02 0.47404641E+03</pdfrwt>
<pdfrwt beam="2">  1       -2 0.27366216E+00 0.47404641E+03</pdfrwt>
<totfact> 0.10220986E+02</totfact>
</mgrwt>
</event>
<event>
 4    1  0.5531008E-005  0.6521583E+03  0.7818608E-02  0.9802738E-01
          2   -1    0    0  501    0  0.00000000000E+00  0.00000000000E+00  0.45745676217E+03  0.45745676218E+03  0.25500000000E-02 0.  1.
         -2   -1    0    0    0  501 -0.00000000000E+00 -0.00000000000E+00 -0.23243205231E+03  0.23243205232E+03  0.25500000000E-02 0. -1.
    5000001    1    1    2    0    0  0.23285524698E+03 -0.15729153285E+03  0.99976809584E+02  0.34085562165E+03  0.16500000000E+03 0.  0.
   -5000001    1    1    2    0    0 -0.23285524698E+03  0.15729153285E+03  0.12504790028E+03  0.34903319286E+03  0.16500000000E+03 0.  0.
<mgrwt>
<rscale>  0 0.65215831E+03</rscale>
<asrwt>0</asrwt>
<pdfrwt beam="1">  1        2 0.65350966E-01 0.65215831E+03</pdfrwt>
<pdfrwt beam="2">  1       -2 0.33204579E-01 0.65215831E+03</pdfrwt>
<totfact> 0.63268027E+02</totfact>
</mgrwt>
</event>
<event>
 4    1  0.5531008E-005  0.5386251E+03  0.7818608E-02  0.1004162E+00
         -2   -1    0    0    0  501 -0.00000000000E+00  0.00000000000E+00  0.24196048293E+03  0.24196048294E+03  0.25500000000E-02 0. -1.
          2   -1    0    0  501    0  0.00000000000E+00 -0.00000000000E+00 -0.29975654306E+03  0.29975654307E+03  0.25500000000E-02 0.  1.
    5000001    1    1    2    0    0  0.15371788473E+03  0.16982254852E+02  0.11818323032E+03  0.25516633986E+03  0.16500000000E+03 0.  0.
   -5000001    1    1    2    0    0 -0.15371788473E+03 -0.16982254852E+02 -0.17597929045E+03  0.28655068615E+03  0.16500000000E+03 0.  0.
<mgrwt>
<rscale>  0 0.53862506E+03</rscale>
<asrwt>0</asrwt>
<pdfrwt beam="1">  1        2 0.42822363E-01 0.53862506E+03</pdfrwt>
<pdfrwt beam="2">  1       -2 0.34565784E-01 0.53862506E+03</pdfrwt>
<totfact> 0.93875859E+02</totfact>
</mgrwt>
</event>
<event>
 4    1  0.5531008E-005  0.4070593E+03  0.7818608E-02  0.1041362E+00
         -2   -1    0    0    0  501 -0.00000000000E+00  0.00000000000E+00  0.10016286739E+03  0.10016286742E+03  0.25500000000E-02 0. -1.
          2   -1    0    0  501    0  0.00000000000E+00 -0.00000000000E+00 -0.41356960959E+03  0.41356960960E+03  0.25500000000E-02 0.  1.
    5000001    1    1    2    0    0  0.11226745564E+03  0.39725149240E+02 -0.15146181834E+03  0.25366858594E+03  0.16500000000E+03 0.  0.
   -5000001    1    1    2    0    0 -0.11226745564E+03 -0.39725149240E+02 -0.16194492387E+03  0.26006389108E+03  0.16500000000E+03 0.  0.
<mgrwt>
<rscale>  0 0.40705930E+03</rscale>
<asrwt>0</asrwt>
<pdfrwt beam="1">  1        2 0.59081372E-01 0.40705930E+03</pdfrwt>
<pdfrwt beam="2">  1       -2 0.14308981E-01 0.40705930E+03</pdfrwt>
<totfact> 0.31135253E+03</totfact>
</mgrwt>
</event>
<event>
 4    1  0.5531008E-005  0.4506726E+03  0.7818608E-02  0.1027522E+00
         -2   -1    0    0    0  501 -0.00000000000E+00  0.00000000000E+00  0.25013869398E+02  0.25013869528E+02  0.25500000000E-02 0. -1.
          2   -1    0    0  501    0  0.00000000000E+00 -0.00000000000E+00 -0.20299317446E+04  0.20299317446E+04  0.25500000000E-02 0.  1.
    5000001    1    1    2    0    0 -0.88833495907E+02 -0.12362554265E+03 -0.10909673938E+04  0.11138265211E+04  0.16500000000E+03 0.  0.
   -5000001    1    1    2    0    0  0.88833495907E+02  0.12362554265E+03 -0.91395048134E+03  0.94111909296E+03  0.16500000000E+03 0.  0.
<mgrwt>
<rscale>  0 0.45067260E+03</rscale>
<asrwt>0</asrwt>
<pdfrwt beam="1">  1        2 0.28999014E+00 0.45067260E+03</pdfrwt>
<pdfrwt beam="2">  1       -2 0.35734112E-02 0.45067260E+03</pdfrwt>
<totfact> 0.27658367E+03</totfact>
</mgrwt>
</event>
<event>
 4    1  0.5531008E-005  0.7991131E+03  0.7818608E-02  0.9561302E-01
          2   -1    0    0  501    0  0.00000000000E+00  0.00000000000E+00  0.24352688182E+04  0.24352688182E+04  0.25500000000E-02 0.  1.
         -2   -1    0    0    0  501 -0.00000000000E+00 -0.00000000000E+00 -0.65555571323E+02  0.65555571373E+02  0.25500000000E-02 0. -1.
    5000001    1    1    2    0    0  0.19064308107E+03  0.30449072819E+03  0.10034252095E+04  0.10784927163E+04  0.16500000000E+03 0.  0.
   -5000001    1    1    2    0    0 -0.19064308107E+03 -0.30449072819E+03  0.13662880374E+04  0.14223316734E+04  0.16500000000E+03 0.  0.
<mgrwt>
<rscale>  0 0.79911311E+03</rscale>
<asrwt>0</asrwt>
<pdfrwt beam="1">  1        2 0.34789554E+00 0.79911311E+03</pdfrwt>
<pdfrwt beam="2">  1       -2 0.93650816E-02 0.79911311E+03</pdfrwt>
<totfact> 0.37383150E+02</totfact>
</mgrwt>
</event>
<event>
 4    1  0.5531008E-005  0.5450990E+03  0.7818608E-02  0.1002635E+00
         -2   -1    0    0    0  501 -0.00000000000E+00  0.00000000000E+00  0.16023459158E+03  0.16023459160E+03  0.25500000000E-02 0. -1.
          2   -1    0    0  501    0  0.00000000000E+00 -0.00000000000E+00 -0.46359046265E+03  0.46359046266E+03  0.25500000000E-02 0.  1.
    5000001    1    1    2    0    0 -0.17181824412E+03 -0.17082770623E+02 -0.30196366786E+03  0.38499400875E+03  0.16500000000E+03 0.  0.
   -5000001    1    1    2    0    0  0.17181824412E+03  0.17082770623E+02 -0.13922032089E+01  0.23883104550E+03  0.16500000000E+03 0.  0.
<mgrwt>
<rscale>  0 0.54509899E+03</rscale>
<asrwt>0</asrwt>
<pdfrwt beam="1">  1        2 0.66227208E-01 0.54509899E+03</pdfrwt>
<pdfrwt beam="2">  1       -2 0.22890656E-01 0.54509899E+03</pdfrwt>
<totfact> 0.12296066E+03</totfact>
</mgrwt>
</event>
<event>
 4    1  0.5531008E-005  0.5024229E+03  0.7818608E-02  0.1013148E+00
          2   -1    0    0  501    0  0.00000000000E+00  0.00000000000E+00  0.10446297070E+04  0.10446297070E+04  0.25500000000E-02 0.  1.
         -2   -1    0    0    0  501 -0.00000000000E+00 -0.00000000000E+00 -0.60411053013E+02  0.60411053067E+02  0.25500000000E-02 0. -1.
    5000001    1    1    2    0    0  0.13803489432E+02  0.12359394494E+03  0.80637443660E+03  0.83242461013E+03  0.16500000000E+03 0.  0.
   -5000001    1    1    2    0    0 -0.13803489432E+02 -0.12359394494E+03  0.17784421737E+03  0.27261614992E+03  0.16500000000E+03 0.  0.
<mgrwt>
<rscale>  0 0.50242285E+03</rscale>
<asrwt>0</asrwt>
<pdfrwt beam="1">  1        2 0.14923282E+00 0.50242285E+03</pdfrwt>
<pdfrwt beam="2">  1       -2 0.86301503E-02 0.50242285E+03</pdfrwt>
<totfact> 0.23042038E+03</totfact>
</mgrwt>
</event>
<event>
 4    1  0.5531008E-005  0.7198062E+03  0.7818608E-02  0.9683948E-01
          2   -1    0    0  501    0  0.00000000000E+00  0.00000000000E+00  0.31840324266E+03  0.31840324268E+03  0.25500000000E-02 0.  1.
         -2   -1    0    0    0  501 -0.00000000000E+00 -0.00000000000E+00 -0.40681190812E+03  0.40681190813E+03  0.25500000000E-02 0. -1.
    5000001    1    1    2    0    0 -0.85698954655E+02  0.16149971756E+03  0.22021546392E+03  0.33037300154E+03  0.16500000000E+03 0.  0.
   -5000001    1    1    2    0    0  0.85698954655E+02 -0.16149971756E+03 -0.30862412937E+03  0.39484214926E+03  0.16500000000E+03 0.  0.
<mgrwt>
<rscale>  0 0.71980617E+03</rscale>
<asrwt>0</asrwt>
<pdfrwt beam="1">  1        2 0.45486178E-01 0.71980617E+03</pdfrwt>
<pdfrwt beam="2">  1       -2 0.58115987E-01 0.71980617E+03</pdfrwt>
<totfact> 0.31182585E+02</totfact>
</mgrwt>
</event>
<event>
 4    1  0.5531008E-005  0.4744336E+03  0.7818608E-02  0.1020676E+00
         -2   -1    0    0    0  501 -0.00000000000E+00  0.00000000000E+00  0.19255125473E+03  0.19255125474E+03  0.25500000000E-02 0. -1.
          2   -1    0    0  501    0  0.00000000000E+00 -0.00000000000E+00 -0.29224327093E+03  0.29224327094E+03  0.25500000000E-02 0.  1.
    5000001    1    1    2    0    0 -0.10856799279E+03  0.86031923588E+02  0.51611328395E+02  0.22153381266E+03  0.16500000000E+03 0.  0.
   -5000001    1    1    2    0    0  0.10856799279E+03 -0.86031923588E+02 -0.15130334460E+03  0.26326071302E+03  0.16500000000E+03 0.  0.
<mgrwt>
<rscale>  0 0.47443359E+03</rscale>
<asrwt>0</asrwt>
<pdfrwt beam="1">  1        2 0.41749039E-01 0.47443359E+03</pdfrwt>
<pdfrwt beam="2">  1       -2 0.27507322E-01 0.47443359E+03</pdfrwt>
<totfact> 0.14724242E+03</totfact>
</mgrwt>
</event>
<event>
 4    1  0.5531008E-005  0.4183991E+03  0.7818608E-02  0.1037589E+00
          2   -1    0    0  501    0  0.00000000000E+00  0.00000000000E+00  0.68084480038E+03  0.68084480039E+03  0.25500000000E-02 0.  1.
         -2   -1    0    0    0  501 -0.00000000000E+00 -0.00000000000E+00 -0.64279625752E+02  0.64279625802E+02  0.25500000000E-02 0. -1.
    5000001    1    1    2    0    0 -0.59620736170E+02 -0.90930819809E+02  0.43058739163E+03  0.47376528788E+03  0.16500000000E+03 0.  0.
   -5000001    1    1    2    0    0  0.59620736170E+02  0.90930819809E+02  0.18597778300E+03  0.27135913831E+03  0.16500000000E+03 0.  0.
<mgrwt>
<rscale>  0 0.41839909E+03</rscale>
<asrwt>0</asrwt>
<pdfrwt beam="1">  1        2 0.97263544E-01 0.41839909E+03</pdfrwt>
<pdfrwt beam="2">  1       -2 0.91828036E-02 0.41839909E+03</pdfrwt>
<totfact> 0.36318544E+03</totfact>
</mgrwt>
</event>
<event>
 4    1  0.5531008E-005  0.6095969E+03  0.7818608E-02  0.9885693E-01
         -2   -1    0    0    0  501 -0.00000000000E+00  0.00000000000E+00  0.37592702532E+02  0.37592702619E+02  0.25500000000E-02 0. -1.
          2   -1    0    0  501    0  0.00000000000E+00 -0.00000000000E+00 -0.24712803081E+04  0.24712803081E+04  0.25500000000E-02 0.  1.
    5000001    1    1    2    0    0 -0.68280181382E+02  0.87587720394E+02 -0.21673958477E+04  0.21765025965E+04  0.16500000000E+03 0.  0.
   -5000001    1    1    2    0    0  0.68280181382E+02 -0.87587720394E+02 -0.26629175780E+03  0.33237041415E+03  0.16500000000E+03 0.  0.
<mgrwt>
<rscale>  0 0.60959693E+03</rscale>
<asrwt>0</asrwt>
<pdfrwt beam="1">  1        2 0.35303994E+00 0.60959693E+03</pdfrwt>
<pdfrwt beam="2">  1       -2 0.53703876E-02 0.60959693E+03</pdfrwt>
<totfact> 0.87856145E+02</totfact>
</mgrwt>
</event>
<event>
 4    1  0.5531008E-005  0.6178858E+03  0.7818608E-02  0.9868978E-01
         -2   -1    0    0    0  501 -0.00000000000E+00  0.00000000000E+00  0.28447578523E+03  0.28447578524E+03  0.25500000000E-02 0. -1.
          2   -1    0    0  501    0  0.00000000000E+00 -0.00000000000E+00 -0.33551437837E+03  0.33551437838E+03  0.25500000000E-02 0.  1.
    5000001    1    1    2    0    0 -0.24760981992E+03 -0.79046073444E+02 -0.51332610950E+02  0.31212007561E+03  0.16500000000E+03 0.  0.
   -5000001    1    1    2    0    0  0.24760981992E+03  0.79046073444E+02  0.29401780347E+00  0.30787008802E+03  0.16500000000E+03 0.  0.
<mgrwt>
<rscale>  0 0.61788580E+03</rscale>
<asrwt>0</asrwt>
<pdfrwt beam="1">  1        2 0.47930625E-01 0.61788580E+03</pdfrwt>
<pdfrwt beam="2">  1       -2 0.40639398E-01 0.61788580E+03</pdfrwt>
<totfact> 0.60739635E+02</totfact>
</mgrwt>
</event>
<event>
 4    1  0.5531008E-005  0.5122596E+03  0.7818608E-02  0.1010628E+00
         -2   -1    0    0    0  501 -0.00000000000E+00  0.00000000000E+00  0.36028549484E+02  0.36028549574E+02  0.25500000000E-02 0. -1.
          2   -1    0    0  501    0  0.00000000000E+00 -0.00000000000E+00 -0.18208468444E+04  0.18208468444E+04  0.25500000000E-02 0.  1.
    5000001    1    1    2    0    0 -0.17816315879E+03 -0.67211231631E+02 -0.72558586513E+03  0.76808808641E+03  0.16500000000E+03 0.  0.
   -5000001    1    1    2    0    0  0.17816315879E+03  0.67211231631E+02 -0.10592324298E+04  0.10887873076E+04  0.16500000000E+03 0.  0.
<mgrwt>
<rscale>  0 0.51225959E+03</rscale>
<asrwt>0</asrwt>
<pdfrwt beam="1">  1        2 0.26012092E+00 0.51225959E+03</pdfrwt>
<pdfrwt beam="2">  1       -2 0.51469368E-02 0.51225959E+03</pdfrwt>
<totfact> 0.20057853E+03</totfact>
</mgrwt>
</event>
<event>
 4    1  0.5531008E-005  0.3903913E+03  0.7818608E-02  0.1047159E+00
         -2   -1    0    0    0  501 -0.00000000000E+00  0.00000000000E+00  0.56844128042E+02  0.56844128099E+02  0.25500000000E-02 0. -1.
          2   -1    0    0  501    0  0.00000000000E+00 -0.00000000000E+00 -0.67027753388E+03  0.67027753389E+03  0.25500000000E-02 0.  1.
    5000001    1    1    2    0    0  0.45962590769E+02 -0.83256953189E+02 -0.22699491464E+03  0.29630384958E+03  0.16500000000E+03 0.  0.
   -5000001    1    1    2    0    0 -0.45962590769E+02  0.83256953189E+02 -0.38643849120E+03  0.43081781240E+03  0.16500000000E+03 0.  0.
<mgrwt>
<rscale>  0 0.39039130E+03</rscale>
<asrwt>0</asrwt>
<pdfrwt beam="1">  1        2 0.95753929E-01 0.39039130E+03</pdfrwt>
<pdfrwt beam="2">  1       -2 0.81205901E-02 0.39039130E+03</pdfrwt>
<totfact> 0.44924561E+03</totfact>
</mgrwt>
</event>
<event>
 4    1  0.5531008E-005  0.4126013E+03  0.7818608E-02  0.1039502E+00
          2   -1    0    0  501    0  0.00000000000E+00  0.00000000000E+00  0.55452045201E+03  0.55452045202E+03  0.25500000000E-02 0.  1.
         -2   -1    0    0    0  501 -0.00000000000E+00 -0.00000000000E+00 -0.76750938063E+02  0.76750938105E+02  0.25500000000E-02 0. -1.
    5000001    1    1    2    0    0  0.10905041107E+03 -0.58324346690E+02  0.24871042846E+03  0.32307212630E+03  0.16500000000E+03 0.  0.
   -5000001    1    1    2    0    0 -0.10905041107E+03  0.58324346690E+02  0.22905908549E+03  0.30819926382E+03  0.16500000000E+03 0.  0.
<mgrwt>
<rscale>  0 0.41260133E+03</rscale>
<asrwt>0</asrwt>
<pdfrwt beam="1">  1        2 0.79217205E-01 0.41260133E+03</pdfrwt>
<pdfrwt beam="2">  1       -2 0.10964420E-01 0.41260133E+03</pdfrwt>
<totfact> 0.34705615E+03</totfact>
</mgrwt>
</event>
<event>
 4    1  0.5531008E-005  0.7690201E+03  0.7818608E-02  0.9605974E-01
         -2   -1    0    0    0  501 -0.00000000000E+00  0.00000000000E+00  0.14959553696E+04  0.14959553696E+04  0.25500000000E-02 0.  1.
          2   -1    0    0  501    0  0.00000000000E+00 -0.00000000000E+00 -0.98831819537E+02  0.98831819570E+02  0.25500000000E-02 0. -1.
    5000001    1    1    2    0    0  0.51040142792E+02 -0.33661926938E+03  0.84081481959E+03  0.92201528704E+03  0.16500000000E+03 0.  0.
   -5000001    1    1    2    0    0 -0.51040142792E+02  0.33661926938E+03  0.55630873045E+03  0.67277190211E+03  0.16500000000E+03 0.  0.
<mgrwt>
<rscale>  0 0.76902013E+03</rscale>
<asrwt>0</asrwt>
<pdfrwt beam="1">  1        2 0.14118833E-01 0.76902013E+03</pdfrwt>
<pdfrwt beam="2">  1       -2 0.21370789E+00 0.76902013E+03</pdfrwt>
<totfact> 0.47690856E+01</totfact>
</mgrwt>
</event>
<event>
 4    1  0.5531008E-005  0.4527486E+03  0.7818608E-02  0.1026906E+00
         -2   -1    0    0    0  501 -0.00000000000E+00  0.00000000000E+00  0.21991283304E+03  0.21991283306E+03  0.25500000000E-02 0. -1.
          2   -1    0    0  501    0  0.00000000000E+00 -0.00000000000E+00 -0.23302565426E+03  0.23302565427E+03  0.25500000000E-02 0.  1.
    5000001    1    1    2    0    0  0.14719033178E+03  0.22354262935E+02 -0.49651439718E+02  0.22771686874E+03  0.16500000000E+03 0.  0.
   -5000001    1    1    2    0    0 -0.14719033178E+03 -0.22354262935E+02  0.36538618503E+02  0.22522161860E+03  0.16500000000E+03 0.  0.
<mgrwt>
<rscale>  0 0.45274864E+03</rscale>
<asrwt>0</asrwt>
<pdfrwt beam="1">  1        2 0.33289379E-01 0.45274864E+03</pdfrwt>
<pdfrwt beam="2">  1       -2 0.31416119E-01 0.45274864E+03</pdfrwt>
<totfact> 0.14807809E+03</totfact>
</mgrwt>
</event>
<event>
 4    1  0.5531008E-005  0.6159413E+03  0.7818608E-02  0.9872874E-01
          2   -1    0    0  501    0  0.00000000000E+00  0.00000000000E+00  0.16856803741E+04  0.16856803741E+04  0.25500000000E-02 0.  1.
         -2   -1    0    0    0  501 -0.00000000000E+00 -0.00000000000E+00 -0.56265661074E+02  0.56265661132E+02  0.25500000000E-02 0. -1.
    5000001    1    1    2    0    0  0.22266567066E+03 -0.39549239737E+02  0.45168655609E+03  0.53140369607E+03  0.16500000000E+03 0.  0.
   -5000001    1    1    2    0    0 -0.22266567066E+03  0.39549239737E+02  0.11777281570E+04  0.12105423392E+04  0.16500000000E+03 0.  0.
<mgrwt>
<rscale>  0 0.61594130E+03</rscale>
<asrwt>0</asrwt>
<pdfrwt beam="1">  1        2 0.24081149E+00 0.61594130E+03</pdfrwt>
<pdfrwt beam="2">  1       -2 0.80379513E-02 0.61594130E+03</pdfrwt>
<totfact> 0.11607492E+03</totfact>
</mgrwt>
</event>
<event>
 4    1  0.5531008E-005  0.5753561E+03  0.7818608E-02  0.9957896E-01
         -2   -1    0    0    0  501 -0.00000000000E+00  0.00000000000E+00  0.42767074417E+02  0.42767074493E+02  0.25500000000E-02 0. -1.
          2   -1    0    0  501    0  0.00000000000E+00 -0.00000000000E+00 -0.19351022740E+04  0.19351022740E+04  0.25500000000E-02 0.  1.
    5000001    1    1    2    0    0 -0.10419013695E+03  0.20602875663E+03 -0.78382380911E+03  0.83361153838E+03  0.16500000000E+03 0.  0.
   -5000001    1    1    2    0    0  0.10419013695E+03 -0.20602875663E+03 -0.11085113905E+04  0.11442578101E+04  0.16500000000E+03 0.  0.
<mgrwt>
<rscale>  0 0.57535611E+03</rscale>
<asrwt>0</asrwt>
<pdfrwt beam="1">  1        2 0.27644313E+00 0.57535611E+03</pdfrwt>
<pdfrwt beam="2">  1       -2 0.61095833E-02 0.57535611E+03</pdfrwt>
<totfact> 0.13423808E+03</totfact>
</mgrwt>
</event>
<event>
 4    1  0.5531008E-005  0.4959765E+03  0.7818608E-02  0.1014834E+00
          2   -1    0    0  501    0  0.00000000000E+00  0.00000000000E+00  0.23752826536E+04  0.23752826536E+04  0.25500000000E-02 0.  1.
         -2   -1    0    0    0  501 -0.00000000000E+00 -0.00000000000E+00 -0.25890881054E+02  0.25890881180E+02  0.25500000000E-02 0. -1.
    5000001    1    1    2    0    0  0.11383665595E+03  0.13249014402E+03  0.87780351029E+03  0.91009693175E+03  0.16500000000E+03 0.  0.
   -5000001    1    1    2    0    0 -0.11383665595E+03 -0.13249014402E+03  0.14715882622E+04  0.14910766030E+04  0.16500000000E+03 0.  0.
<mgrwt>
<rscale>  0 0.49597645E+03</rscale>
<asrwt>0</asrwt>
<pdfrwt beam="1">  1        2 0.33932624E+00 0.49597645E+03</pdfrwt>
<pdfrwt beam="2">  1       -2 0.36986957E-02 0.49597645E+03</pdfrwt>
<totfact> 0.17595283E+03</totfact>
</mgrwt>
</event>
<event>
 4    1  0.5531008E-005  0.2434652E+04  0.7818608E-02  0.8426643E-01
          2   -1    0    0  501    0  0.00000000000E+00  0.00000000000E+00  0.15409007389E+04  0.15409007389E+04  0.25500000000E-02 0.  1.
         -2   -1    0    0    0  501 -0.00000000000E+00 -0.00000000000E+00 -0.96169870171E+03  0.96169870171E+03  0.25500000000E-02 0. -1.
    5000001    1    1    2    0    0  0.52279569173E+02 -0.82742831960E+03  0.11899964213E+04  0.14596873844E+04  0.16500000000E+03 0.  0.
   -5000001    1    1    2    0    0 -0.52279569173E+02  0.82742831960E+03 -0.61079438408E+03  0.10429120562E+04  0.16500000000E+03 0.  0.
<mgrwt>
<rscale>  0 0.24346517E+04</rscale>
<asrwt>0</asrwt>
<pdfrwt beam="1">  1        2 0.22012868E+00 0.24346517E+04</pdfrwt>
<pdfrwt beam="2">  1       -2 0.13738553E+00 0.24346517E+04</pdfrwt>
<totfact> 0.47305382E+00</totfact>
</mgrwt>
</event>
<event>
 4    1  0.5531008E-005  0.6143338E+03  0.7818608E-02  0.9876106E-01
         -2   -1    0    0    0  501 -0.00000000000E+00  0.00000000000E+00  0.14181457904E+03  0.14181457906E+03  0.25500000000E-02 0. -1.
          2   -1    0    0  501    0  0.00000000000E+00 -0.00000000000E+00 -0.66531590817E+03  0.66531590818E+03  0.25500000000E-02 0.  1.
    5000001    1    1    2    0    0 -0.24335693220E+03 -0.80048804509E+02 -0.31256870544E+03  0.43652560426E+03  0.16500000000E+03 0.  0.
   -5000001    1    1    2    0    0  0.24335693220E+03  0.80048804509E+02 -0.21093262370E+03  0.37060488298E+03  0.16500000000E+03 0.  0.
<mgrwt>
<rscale>  0 0.61433377E+03</rscale>
<asrwt>0</asrwt>
<pdfrwt beam="1">  1        2 0.95045128E-01 0.61433377E+03</pdfrwt>
<pdfrwt beam="2">  1       -2 0.20259226E-01 0.61433377E+03</pdfrwt>
<totfact> 0.10017097E+03</totfact>
</mgrwt>
</event>
<event>
 4    1  0.5531008E-005  0.5026795E+03  0.7818608E-02  0.1013082E+00
         -2   -1    0    0    0  501 -0.00000000000E+00  0.00000000000E+00  0.98112141267E+02  0.98112141300E+02  0.25500000000E-02 0. -1.
          2   -1    0    0  501    0  0.00000000000E+00 -0.00000000000E+00 -0.64387210340E+03  0.64387210341E+03  0.25500000000E-02 0.  1.
    5000001    1    1    2    0    0 -0.11371616088E+03  0.10190780834E+03 -0.43876492559E+03  0.49300732912E+03  0.16500000000E+03 0.  0.
   -5000001    1    1    2    0    0  0.11371616088E+03 -0.10190780834E+03 -0.10699503655E+03  0.24897691558E+03  0.16500000000E+03 0.  0.
<mgrwt>
<rscale>  0 0.50267950E+03</rscale>
<asrwt>0</asrwt>
<pdfrwt beam="1">  1        2 0.91981727E-01 0.50267950E+03</pdfrwt>
<pdfrwt beam="2">  1       -2 0.14016020E-01 0.50267950E+03</pdfrwt>
<totfact> 0.19526195E+03</totfact>
</mgrwt>
</event>
<event>
 4    1  0.5531008E-005  0.5395868E+03  0.7818608E-02  0.1003933E+00
         -2   -1    0    0    0  501 -0.00000000000E+00  0.00000000000E+00  0.53212454688E+02  0.53212454749E+02  0.25500000000E-02 0. -1.
          2   -1    0    0  501    0  0.00000000000E+00 -0.00000000000E+00 -0.13678840341E+04  0.13678840341E+04  0.25500000000E-02 0.  1.
    5000001    1    1    2    0    0 -0.18121689428E+03  0.10912543157E+03 -0.58212396035E+03  0.64096897570E+03  0.16500000000E+03 0.  0.
   -5000001    1    1    2    0    0  0.18121689428E+03 -0.10912543157E+03 -0.73254761904E+03  0.78012751313E+03  0.16500000000E+03 0.  0.
<mgrwt>
<rscale>  0 0.53958676E+03</rscale>
<asrwt>0</asrwt>
<pdfrwt beam="1">  1        2 0.19541198E+00 0.53958676E+03</pdfrwt>
<pdfrwt beam="2">  1       -2 0.76017801E-02 0.53958676E+03</pdfrwt>
<totfact> 0.18596405E+03</totfact>
</mgrwt>
</event>
<event>
 4    1  0.5531008E-005  0.3729086E+03  0.7818608E-02  0.1053586E+00
         -2   -1    0    0    0  501 -0.00000000000E+00  0.00000000000E+00  0.12618201007E+03  0.12618201010E+03  0.25500000000E-02 0. -1.
          2   -1    0    0  501    0  0.00000000000E+00 -0.00000000000E+00 -0.27551638872E+03  0.27551638873E+03  0.25500000000E-02 0.  1.
    5000001    1    1    2    0    0  0.35139313770E+02  0.74372802640E+02 -0.44696021836E+02  0.18970719415E+03  0.16500000000E+03 0.  0.
   -5000001    1    1    2    0    0 -0.35139313770E+02 -0.74372802640E+02 -0.10463835681E+03  0.21199120468E+03  0.16500000000E+03 0.  0.
<mgrwt>
<rscale>  0 0.37290863E+03</rscale>
<asrwt>0</asrwt>
<pdfrwt beam="1">  1        2 0.39359484E-01 0.37290863E+03</pdfrwt>
<pdfrwt beam="2">  1       -2 0.18026001E-01 0.37290863E+03</pdfrwt>
<totfact> 0.32853042E+03</totfact>
</mgrwt>
</event>
<event>
 4    1  0.5531008E-005  0.3969119E+03  0.7818608E-02  0.1044854E+00
          2   -1    0    0  501    0  0.00000000000E+00  0.00000000000E+00  0.93433932115E+02  0.93433932150E+02  0.25500000000E-02 0.  1.
         -2   -1    0    0    0  501 -0.00000000000E+00 -0.00000000000E+00 -0.42152517951E+03  0.42152517952E+03  0.25500000000E-02 0. -1.
    5000001    1    1    2    0    0  0.10120274956E+03  0.60807984718E+01 -0.10777937624E+03  0.22163114982E+03  0.16500000000E+03 0.  0.
   -5000001    1    1    2    0    0 -0.10120274956E+03 -0.60807984718E+01 -0.22031187116E+03  0.29332796185E+03  0.16500000000E+03 0.  0.
<mgrwt>
<rscale>  0 0.39691185E+03</rscale>
<asrwt>0</asrwt>
<pdfrwt beam="1">  1        2 0.13347705E-01 0.39691185E+03</pdfrwt>
<pdfrwt beam="2">  1       -2 0.60217882E-01 0.39691185E+03</pdfrwt>
<totfact> 0.11866334E+03</totfact>
</mgrwt>
</event>
<event>
 4    1  0.5531008E-005  0.6963256E+03  0.7818608E-02  0.9723537E-01
          2   -1    0    0  501    0  0.00000000000E+00  0.00000000000E+00  0.10703899389E+04  0.10703899389E+04  0.25500000000E-02 0.  1.
         -2   -1    0    0    0  501 -0.00000000000E+00 -0.00000000000E+00 -0.11324595694E+03  0.11324595697E+03  0.25500000000E-02 0. -1.
    5000001    1    1    2    0    0 -0.22384076433E+03 -0.13234695189E+03  0.20252900116E+03  0.36859652706E+03  0.16500000000E+03 0.  0.
   -5000001    1    1    2    0    0  0.22384076433E+03  0.13234695189E+03  0.75461498079E+03  0.81503936879E+03  0.16500000000E+03 0.  0.
<mgrwt>
<rscale>  0 0.69632559E+03</rscale>
<asrwt>0</asrwt>
<pdfrwt beam="1">  1        2 0.15291284E+00 0.69632559E+03</pdfrwt>
<pdfrwt beam="2">  1       -2 0.16177994E-01 0.69632559E+03</pdfrwt>
<totfact> 0.78780838E+02</totfact>
</mgrwt>
</event>
<event>
 4    1  0.5531008E-005  0.4763596E+03  0.7818608E-02  0.1020140E+00
          2   -1    0    0  501    0  0.00000000000E+00  0.00000000000E+00  0.18746981472E+04  0.18746981472E+04  0.25500000000E-02 0.  1.
         -2   -1    0    0    0  501 -0.00000000000E+00 -0.00000000000E+00 -0.30260671330E+02  0.30260671437E+02  0.25500000000E-02 0. -1.
    5000001    1    1    2    0    0 -0.11123020646E+03  0.12187887411E+03  0.73135296588E+03  0.76767752310E+03  0.16500000000E+03 0.  0.
   -5000001    1    1    2    0    0  0.11123020646E+03 -0.12187887411E+03  0.11130845100E+04  0.11372812955E+04  0.16500000000E+03 0.  0.
<mgrwt>
<rscale>  0 0.47635963E+03</rscale>
<asrwt>0</asrwt>
<pdfrwt beam="1">  1        2 0.26781420E+00 0.47635963E+03</pdfrwt>
<pdfrwt beam="2">  1       -2 0.43229502E-02 0.47635963E+03</pdfrwt>
<totfact> 0.24692918E+03</totfact>
</mgrwt>
</event>
<event>
 4    1  0.5531008E-005  0.6876841E+03  0.7818608E-02  0.9738529E-01
         -2   -1    0    0    0  501 -0.00000000000E+00  0.00000000000E+00  0.54293806740E+03  0.54293806740E+03  0.25500000000E-02 0. -1.
          2   -1    0    0  501    0  0.00000000000E+00 -0.00000000000E+00 -0.21775475579E+03  0.21775475581E+03  0.25500000000E-02 0.  1.
    5000001    1    1    2    0    0  0.51911907167E+02 -0.29591025358E+03  0.19277645455E+03  0.39324990237E+03  0.16500000000E+03 0.  0.
   -5000001    1    1    2    0    0 -0.51911907167E+02  0.29591025358E+03  0.13240685705E+03  0.36744292084E+03  0.16500000000E+03 0.  0.
<mgrwt>
<rscale>  0 0.68768407E+03</rscale>
<asrwt>0</asrwt>
<pdfrwt beam="1">  1        2 0.31107823E-01 0.68768407E+03</pdfrwt>
<pdfrwt beam="2">  1       -2 0.77562580E-01 0.68768407E+03</pdfrwt>
<totfact> 0.25551874E+02</totfact>
</mgrwt>
</event>
<event>
 4    1  0.5531008E-005  0.5823480E+03  0.7818608E-02  0.9942720E-01
          2   -1    0    0  501    0  0.00000000000E+00  0.00000000000E+00  0.12892629306E+04  0.12892629306E+04  0.25500000000E-02 0.  1.
         -2   -1    0    0    0  501 -0.00000000000E+00 -0.00000000000E+00 -0.65760291513E+02  0.65760291562E+02  0.25500000000E-02 0. -1.
    5000001    1    1    2    0    0  0.69653084841E+01 -0.22541144291E+03  0.80218861504E+03  0.84946477750E+03  0.16500000000E+03 0.  0.
   -5000001    1    1    2    0    0 -0.69653084841E+01  0.22541144291E+03  0.42131402407E+03  0.50555844469E+03  0.16500000000E+03 0.  0.
<mgrwt>
<rscale>  0 0.58234803E+03</rscale>
<asrwt>0</asrwt>
<pdfrwt beam="1">  1        2 0.18418041E+00 0.58234803E+03</pdfrwt>
<pdfrwt beam="2">  1       -2 0.93943277E-02 0.58234803E+03</pdfrwt>
<totfact> 0.14601406E+03</totfact>
</mgrwt>
</event>
<event>
 4    1  0.5531008E-005  0.4772146E+03  0.7818608E-02  0.1019903E+00
         -2   -1    0    0    0  501 -0.00000000000E+00  0.00000000000E+00  0.48025657244E+03  0.48025657245E+03  0.25500000000E-02 0. -1.
          2   -1    0    0  501    0  0.00000000000E+00 -0.00000000000E+00 -0.11854797988E+03  0.11854797990E+03  0.25500000000E-02 0.  1.
    5000001    1    1    2    0    0  0.14606022137E+03  0.14289713685E+02  0.29427699885E+03  0.36791539277E+03  0.16500000000E+03 0.  0.
   -5000001    1    1    2    0    0 -0.14606022137E+03 -0.14289713685E+02  0.67431593715E+02  0.23088915958E+03  0.16500000000E+03 0.  0.
<mgrwt>
<rscale>  0 0.47721461E+03</rscale>
<asrwt>0</asrwt>
<pdfrwt beam="1">  1        2 0.16935426E-01 0.47721461E+03</pdfrwt>
<pdfrwt beam="2">  1       -2 0.68608081E-01 0.47721461E+03</pdfrwt>
<totfact> 0.67660835E+02</totfact>
</mgrwt>
</event>
<event>
 4    1  0.5531008E-005  0.1026497E+04  0.7818608E-02  0.9279952E-01
          2   -1    0    0  501    0  0.00000000000E+00  0.00000000000E+00  0.11196031211E+04  0.11196031211E+04  0.25500000000E-02 0.  1.
         -2   -1    0    0    0  501 -0.00000000000E+00 -0.00000000000E+00 -0.23528333553E+03  0.23528333554E+03  0.25500000000E-02 0. -1.
    5000001    1    1    2    0    0 -0.34224291578E+03  0.25604512525E+03  0.74748412583E+03  0.87672506405E+03  0.16500000000E+03 0.  0.
   -5000001    1    1    2    0    0  0.34224291578E+03 -0.25604512525E+03  0.13683565971E+03  0.47816139256E+03  0.16500000000E+03 0.  0.
<mgrwt>
<rscale>  0 0.10264969E+04</rscale>
<asrwt>0</asrwt>
<pdfrwt beam="1">  1        2 0.15994331E+00 0.10264969E+04</pdfrwt>
<pdfrwt beam="2">  1       -2 0.33611904E-01 0.10264969E+04</pdfrwt>
<totfact> 0.19584685E+02</totfact>
</mgrwt>
</event>
<event>
 4    1  0.5531008E-005  0.4154156E+03  0.7818608E-02  0.1038569E+00
          2   -1    0    0  501    0  0.00000000000E+00  0.00000000000E+00  0.79168082609E+03  0.79168082609E+03  0.25500000000E-02 0.  1.
         -2   -1    0    0    0  501 -0.00000000000E+00 -0.00000000000E+00 -0.54494841854E+02  0.54494841913E+02  0.25500000000E-02 0. -1.
    5000001    1    1    2    0    0  0.67700048576E+02  0.96621681759E+02  0.27753308824E+03  0.34375668871E+03  0.16500000000E+03 0.  0.
   -5000001    1    1    2    0    0 -0.67700048576E+02 -0.96621681759E+02  0.45965289599E+03  0.50241897930E+03  0.16500000000E+03 0.  0.
<mgrwt>
<rscale>  0 0.41541556E+03</rscale>
<asrwt>0</asrwt>
<pdfrwt beam="1">  1        2 0.11309726E+00 0.41541556E+03</pdfrwt>
<pdfrwt beam="2">  1       -2 0.77849774E-02 0.41541556E+03</pdfrwt>
<totfact> 0.39226563E+03</totfact>
</mgrwt>
</event>
<event>
 4    1  0.5531008E-005  0.4806583E+03  0.7818608E-02  0.1018954E+00
          2   -1    0    0  501    0  0.00000000000E+00  0.00000000000E+00  0.33564460406E+03  0.33564460407E+03  0.25500000000E-02 0.  1.
         -2   -1    0    0    0  501 -0.00000000000E+00 -0.00000000000E+00 -0.17208115784E+03  0.17208115786E+03  0.25500000000E-02 0. -1.
    5000001    1    1    2    0    0  0.59175920456E+02  0.12122574173E+03 -0.35538691616E+02  0.21606820363E+03  0.16500000000E+03 0.  0.
   -5000001    1    1    2    0    0 -0.59175920456E+02 -0.12122574173E+03  0.19910213783E+03  0.29165755829E+03  0.16500000000E+03 0.  0.
<mgrwt>
<rscale>  0 0.48065835E+03</rscale>
<asrwt>0</asrwt>
<pdfrwt beam="1">  1        2 0.47949228E-01 0.48065835E+03</pdfrwt>
<pdfrwt beam="2">  1       -2 0.24583023E-01 0.48065835E+03</pdfrwt>
<totfact> 0.15484329E+03</totfact>
</mgrwt>
</event>
<event>
 4    1  0.5531008E-005  0.4987463E+03  0.7818608E-02  0.1014107E+00
          2   -1    0    0  501    0  0.00000000000E+00  0.00000000000E+00  0.15573543634E+03  0.15573543637E+03  0.25500000000E-02 0.  1.
         -2   -1    0    0    0  501 -0.00000000000E+00 -0.00000000000E+00 -0.39931165813E+03  0.39931165813E+03  0.25500000000E-02 0. -1.
    5000001    1    1    2    0    0  0.53474664829E+02 -0.17722927823E+03 -0.15106815432E+03  0.29037276748E+03  0.16500000000E+03 0.  0.
   -5000001    1    1    2    0    0 -0.53474664829E+02  0.17722927823E+03 -0.92508067458E+02  0.26467432702E+03  0.16500000000E+03 0.  0.
<mgrwt>
<rscale>  0 0.49874633E+03</rscale>
<asrwt>0</asrwt>
<pdfrwt beam="1">  1        2 0.22247920E-01 0.49874633E+03</pdfrwt>
<pdfrwt beam="2">  1       -2 0.57044522E-01 0.49874633E+03</pdfrwt>
<totfact> 0.72646351E+02</totfact>
</mgrwt>
</event>
<event>
 4    1  0.5531008E-005  0.4973541E+03  0.7818608E-02  0.1014472E+00
          2   -1    0    0  501    0  0.00000000000E+00  0.00000000000E+00  0.68895404966E+03  0.68895404966E+03  0.25500000000E-02 0.  1.
         -2   -1    0    0    0  501 -0.00000000000E+00 -0.00000000000E+00 -0.89759636728E+02  0.89759636765E+02  0.25500000000E-02 0. -1.
    5000001    1    1    2    0    0 -0.13597526093E+03 -0.76605756391E+02  0.45817194296E+03  0.51137485548E+03  0.16500000000E+03 0.  0.
   -5000001    1    1    2    0    0  0.13597526093E+03  0.76605756391E+02  0.14102246996E+03  0.26733883095E+03  0.16500000000E+03 0.  0.
<mgrwt>
<rscale>  0 0.49735406E+03</rscale>
<asrwt>0</asrwt>
<pdfrwt beam="1">  1        2 0.98422005E-01 0.49735406E+03</pdfrwt>
<pdfrwt beam="2">  1       -2 0.12822805E-01 0.49735406E+03</pdfrwt>
<totfact> 0.20864392E+03</totfact>
</mgrwt>
</event>
<event>
 4    1  0.5531008E-005  0.4702564E+03  0.7818608E-02  0.1021848E+00
         -2   -1    0    0    0  501 -0.00000000000E+00  0.00000000000E+00  0.73730126238E+02  0.73730126282E+02  0.25500000000E-02 0. -1.
          2   -1    0    0  501    0  0.00000000000E+00 -0.00000000000E+00 -0.74983274898E+03  0.74983274899E+03  0.25500000000E-02 0.  1.
    5000001    1    1    2    0    0  0.50102582900E+02 -0.14502191721E+03 -0.22032708411E+03  0.31513592191E+03  0.16500000000E+03 0.  0.
   -5000001    1    1    2    0    0 -0.50102582900E+02  0.14502191721E+03 -0.45577553864E+03  0.50842695336E+03  0.16500000000E+03 0.  0.
<mgrwt>
<rscale>  0 0.47025637E+03</rscale>
<asrwt>0</asrwt>
<pdfrwt beam="1">  1        2 0.10711896E+00 0.47025637E+03</pdfrwt>
<pdfrwt beam="2">  1       -2 0.10532876E-01 0.47025637E+03</pdfrwt>
<totfact> 0.25931864E+03</totfact>
</mgrwt>
</event>
<event>
 4    1  0.5531008E-005  0.6203383E+03  0.7818608E-02  0.9864086E-01
         -2   -1    0    0    0  501 -0.00000000000E+00  0.00000000000E+00  0.51295890642E+02  0.51295890705E+02  0.25500000000E-02 0.  1.
          2   -1    0    0  501    0  0.00000000000E+00 -0.00000000000E+00 -0.18754891956E+04  0.18754891956E+04  0.25500000000E-02 0. -1.
    5000001    1    1    2    0    0 -0.84196102660E+02  0.42024120745E+02 -0.15048809557E+03  0.24233587712E+03  0.16500000000E+03 0.  0.
   -5000001    1    1    2    0    0  0.84196102660E+02 -0.42024120745E+02 -0.16737052094E+04  0.16844492092E+04  0.16500000000E+03 0.  0.
<mgrwt>
<rscale>  0 0.62033826E+03</rscale>
<asrwt>0</asrwt>
<pdfrwt beam="1">  1        2 0.26792698E+00 0.62033826E+03</pdfrwt>
<pdfrwt beam="2">  1       -2 0.73279856E-02 0.62033826E+03</pdfrwt>
<totfact> 0.10774760E+03</totfact>
</mgrwt>
</event>
<event>
 4    1  0.5531008E-005  0.4786119E+03  0.7818608E-02  0.1019517E+00
          2   -1    0    0  501    0  0.00000000000E+00  0.00000000000E+00  0.52972633808E+03  0.52972633809E+03  0.25500000000E-02 0.  1.
         -2   -1    0    0    0  501 -0.00000000000E+00 -0.00000000000E+00 -0.10810741253E+03  0.10810741256E+03  0.25500000000E-02 0. -1.
    5000001    1    1    2    0    0 -0.72796331465E+02  0.15607337116E+03  0.23692922066E+03  0.33618247822E+03  0.16500000000E+03 0.  0.
   -5000001    1    1    2    0    0  0.72796331465E+02 -0.15607337116E+03  0.18468970489E+03  0.30165127242E+03  0.16500000000E+03 0.  0.
<mgrwt>
<rscale>  0 0.47861193E+03</rscale>
<asrwt>0</asrwt>
<pdfrwt beam="1">  1        2 0.75675190E-01 0.47861193E+03</pdfrwt>
<pdfrwt beam="2">  1       -2 0.15443916E-01 0.47861193E+03</pdfrwt>
<totfact> 0.20824394E+03</totfact>
</mgrwt>
</event>
<event>
 4    1  0.5531008E-005  0.8582460E+03  0.7818608E-02  0.9479336E-01
          2   -1    0    0  501    0  0.00000000000E+00  0.00000000000E+00  0.89545927173E+03  0.89545927173E+03  0.25500000000E-02 0.  1.
         -2   -1    0    0    0  501 -0.00000000000E+00 -0.00000000000E+00 -0.20564480601E+03  0.20564480602E+03  0.25500000000E-02 0. -1.
    5000001    1    1    2    0    0  0.36915129007E+03 -0.11054908034E+03  0.22712683222E+03  0.47676553151E+03  0.16500000000E+03 0.  0.
   -5000001    1    1    2    0    0 -0.36915129007E+03  0.11054908034E+03  0.46268763351E+03  0.62433854624E+03  0.16500000000E+03 0.  0.
<mgrwt>
<rscale>  0 0.85824600E+03</rscale>
<asrwt>0</asrwt>
<pdfrwt beam="1">  1        2 0.12792275E+00 0.85824600E+03</pdfrwt>
<pdfrwt beam="2">  1       -2 0.29377830E-01 0.85824600E+03</pdfrwt>
<totfact> 0.34941339E+02</totfact>
</mgrwt>
</event>
<event>
 4    1  0.5531008E-005  0.4640888E+03  0.7818608E-02  0.1023602E+00
          2   -1    0    0  501    0  0.00000000000E+00  0.00000000000E+00  0.36775897075E+04  0.36775897075E+04  0.25500000000E-02 0. -1.
         -2   -1    0    0    0  501 -0.00000000000E+00 -0.00000000000E+00 -0.14641276474E+02  0.14641276696E+02  0.25500000000E-02 0.  1.
    5000001    1    1    2    0    0 -0.59435446248E+02  0.15162973186E+03  0.17537423696E+04  0.17690001263E+04  0.16500000000E+03 0.  0.
   -5000001    1    1    2    0    0  0.59435446248E+02 -0.15162973186E+03  0.19092060615E+04  0.19232308580E+04  0.16500000000E+03 0.  0.
<mgrwt>
<rscale>  0 0.46408882E+03</rscale>
<asrwt>0</asrwt>
<pdfrwt beam="1">  1        2 0.52536999E+00 0.46408882E+03</pdfrwt>
<pdfrwt beam="2">  1       -2 0.20916108E-02 0.46408882E+03</pdfrwt>
<totfact> 0.80726513E+02</totfact>
</mgrwt>
</event>
<event>
 4    1  0.5531008E-005  0.5312082E+03  0.7818608E-02  0.1005940E+00
          2   -1    0    0  501    0  0.00000000000E+00  0.00000000000E+00  0.11028152595E+04  0.11028152595E+04  0.25500000000E-02 0.  1.
         -2   -1    0    0    0  501 -0.00000000000E+00 -0.00000000000E+00 -0.63968593788E+02  0.63968593839E+02  0.25500000000E-02 0. -1.
    5000001    1    1    2    0    0 -0.14961841891E+03  0.13618231041E+03  0.62678674013E+03  0.67898299724E+03  0.16500000000E+03 0.  0.
   -5000001    1    1    2    0    0  0.14961841891E+03 -0.13618231041E+03  0.41205992563E+03  0.48780085615E+03  0.16500000000E+03 0.  0.
<mgrwt>
<rscale>  0 0.53120821E+03</rscale>
<asrwt>0</asrwt>
<pdfrwt beam="1">  1        2 0.15754503E+00 0.53120821E+03</pdfrwt>
<pdfrwt beam="2">  1       -2 0.91383712E-02 0.53120821E+03</pdfrwt>
<totfact> 0.19435402E+03</totfact>
</mgrwt>
</event>
<event>
 4    1  0.5531008E-005  0.7334085E+03  0.7818608E-02  0.9661745E-01
         -2   -1    0    0    0  501 -0.00000000000E+00  0.00000000000E+00  0.50299052145E+03  0.50299052146E+03  0.25500000000E-02 0. -1.
          2   -1    0    0  501    0  0.00000000000E+00 -0.00000000000E+00 -0.26734503126E+03  0.26734503128E+03  0.25500000000E-02 0.  1.
    5000001    1    1    2    0    0 -0.17498483820E+03  0.26307449639E+03  0.27351503758E+02  0.35749264189E+03  0.16500000000E+03 0.  0.
   -5000001    1    1    2    0    0  0.17498483820E+03 -0.26307449639E+03  0.20829398643E+03  0.41284291084E+03  0.16500000000E+03 0.  0.
<mgrwt>
<rscale>  0 0.73340853E+03</rscale>
<asrwt>0</asrwt>
<pdfrwt beam="1">  1        2 0.38192148E-01 0.73340853E+03</pdfrwt>
<pdfrwt beam="2">  1       -2 0.71855788E-01 0.73340853E+03</pdfrwt>
<totfact> 0.24016955E+02</totfact>
</mgrwt>
</event>
<event>
 4    1  0.5531008E-005  0.9168148E+03  0.7818608E-02  0.9404803E-01
          2   -1    0    0  501    0  0.00000000000E+00  0.00000000000E+00  0.15345031786E+04  0.15345031786E+04  0.25500000000E-02 0.  1.
         -2   -1    0    0    0  501 -0.00000000000E+00 -0.00000000000E+00 -0.13694160954E+03  0.13694160956E+03  0.25500000000E-02 0. -1.
    5000001    1    1    2    0    0 -0.39460120408E+03 -0.15544769991E+03  0.79927042394E+03  0.91974578458E+03  0.16500000000E+03 0.  0.
   -5000001    1    1    2    0    0  0.39460120408E+03  0.15544769991E+03  0.59829114516E+03  0.75169900362E+03  0.16500000000E+03 0.  0.
<mgrwt>
<rscale>  0 0.91681478E+03</rscale>
<asrwt>0</asrwt>
<pdfrwt beam="1">  1        2 0.21921474E+00 0.91681478E+03</pdfrwt>
<pdfrwt beam="2">  1       -2 0.19563087E-01 0.91681478E+03</pdfrwt>
<totfact> 0.31139850E+02</totfact>
</mgrwt>
</event>
<event>
 4    1  0.5531008E-005  0.5641912E+03  0.7818608E-02  0.9982616E-01
         -2   -1    0    0    0  501 -0.00000000000E+00  0.00000000000E+00  0.19558597858E+03  0.19558597860E+03  0.25500000000E-02 0. -1.
          2   -1    0    0  501    0  0.00000000000E+00 -0.00000000000E+00 -0.40686926707E+03  0.40686926707E+03  0.25500000000E-02 0.  1.
    5000001    1    1    2    0    0  0.63159129761E+01  0.22500412248E+03 -0.14948968428E+03  0.31660529306E+03  0.16500000000E+03 0.  0.
   -5000001    1    1    2    0    0 -0.63159129761E+01 -0.22500412248E+03 -0.61793604203E+02  0.28584995261E+03  0.16500000000E+03 0.  0.
<mgrwt>
<rscale>  0 0.56419119E+03</rscale>
<asrwt>0</asrwt>
<pdfrwt beam="1">  1        2 0.58124181E-01 0.56419119E+03</pdfrwt>
<pdfrwt beam="2">  1       -2 0.27940854E-01 0.56419119E+03</pdfrwt>
<totfact> 0.99422516E+02</totfact>
</mgrwt>
</event>
<event>
 4    1  0.5531008E-005  0.4468926E+03  0.7818608E-02  0.1028653E+00
         -2   -1    0    0    0  501 -0.00000000000E+00  0.00000000000E+00  0.26524677326E+02  0.26524677449E+02  0.25500000000E-02 0. -1.
          2   -1    0    0  501    0  0.00000000000E+00 -0.00000000000E+00 -0.18823318397E+04  0.18823318398E+04  0.25500000000E-02 0.  1.
    5000001    1    1    2    0    0  0.11215771160E+03 -0.53312785198E+01 -0.49872957422E+03  0.53718149913E+03  0.16500000000E+03 0.  0.
   -5000001    1    1    2    0    0 -0.11215771160E+03  0.53312785198E+01 -0.13570775882E+04  0.13716750181E+04  0.16500000000E+03 0.  0.
<mgrwt>
<rscale>  0 0.44689258E+03</rscale>
<asrwt>0</asrwt>
<pdfrwt beam="1">  1        2 0.26890446E+00 0.44689258E+03</pdfrwt>
<pdfrwt beam="2">  1       -2 0.37892408E-02 0.44689258E+03</pdfrwt>
<totfact> 0.29959428E+03</totfact>
</mgrwt>
</event>
<event>
 4    1  0.5531008E-005  0.7013056E+03  0.7818608E-02  0.9715002E-01
          2   -1    0    0  501    0  0.00000000000E+00  0.00000000000E+00  0.35761562197E+03  0.35761562198E+03  0.25500000000E-02 0.  1.
         -2   -1    0    0    0  501 -0.00000000000E+00 -0.00000000000E+00 -0.34382549866E+03  0.34382549867E+03  0.25500000000E-02 0. -1.
    5000001    1    1    2    0    0  0.11479014637E+03  0.23733492565E+03 -0.15508600502E+03  0.34753606085E+03  0.16500000000E+03 0.  0.
   -5000001    1    1    2    0    0 -0.11479014637E+03 -0.23733492565E+03  0.16887612833E+03  0.35390505981E+03  0.16500000000E+03 0.  0.
<mgrwt>
<rscale>  0 0.70130555E+03</rscale>
<asrwt>0</asrwt>
<pdfrwt beam="1">  1        2 0.51087946E-01 0.70130555E+03</pdfrwt>
<pdfrwt beam="2">  1       -2 0.49117928E-01 0.70130555E+03</pdfrwt>
<totfact> 0.38780169E+02</totfact>
</mgrwt>
</event>
<event>
 4    1  0.5531008E-005  0.4357811E+03  0.7818608E-02  0.1032049E+00
         -2   -1    0    0    0  501 -0.00000000000E+00  0.00000000000E+00  0.66565016935E+02  0.66565016984E+02  0.25500000000E-02 0. -1.
          2   -1    0    0  501    0  0.00000000000E+00 -0.00000000000E+00 -0.71323181898E+03  0.71323181898E+03  0.25500000000E-02 0.  1.
    5000001    1    1    2    0    0 -0.62541506398E+02 -0.12109076101E+03 -0.39660970082E+03  0.45066469488E+03  0.16500000000E+03 0.  0.
   -5000001    1    1    2    0    0  0.62541506398E+02  0.12109076101E+03 -0.25005710122E+03  0.32913214108E+03  0.16500000000E+03 0.  0.
<mgrwt>
<rscale>  0 0.43578108E+03</rscale>
<asrwt>0</asrwt>
<pdfrwt beam="1">  1        2 0.10189026E+00 0.43578108E+03</pdfrwt>
<pdfrwt beam="2">  1       -2 0.95092886E-02 0.43578108E+03</pdfrwt>
<totfact> 0.32487502E+03</totfact>
</mgrwt>
</event>
<event>
 4    1  0.5531008E-005  0.6150860E+03  0.7818608E-02  0.9874592E-01
          2   -1    0    0  501    0  0.00000000000E+00  0.00000000000E+00  0.72424833150E+03  0.72424833150E+03  0.25500000000E-02 0.  1.
         -2   -1    0    0    0  501 -0.00000000000E+00 -0.00000000000E+00 -0.13059428393E+03  0.13059428396E+03  0.25500000000E-02 0. -1.
    5000001    1    1    2    0    0 -0.17877884356E+03  0.18812572204E+03  0.29978505113E+03  0.42947553955E+03  0.16500000000E+03 0.  0.
   -5000001    1    1    2    0    0  0.17877884356E+03 -0.18812572204E+03  0.29386899644E+03  0.42536707590E+03  0.16500000000E+03 0.  0.
<mgrwt>
<rscale>  0 0.61508599E+03</rscale>
<asrwt>0</asrwt>
<pdfrwt beam="1">  1        2 0.10346405E+00 0.61508599E+03</pdfrwt>
<pdfrwt beam="2">  1       -2 0.18656326E-01 0.61508599E+03</pdfrwt>
<totfact> 0.10419457E+03</totfact>
</mgrwt>
</event>
<event>
 4    1  0.5531008E-005  0.5275809E+03  0.7818608E-02  0.1006820E+00
          2   -1    0    0  501    0  0.00000000000E+00  0.00000000000E+00  0.66656371370E+03  0.66656371370E+03  0.25500000000E-02 0.  1.
         -2   -1    0    0    0  501 -0.00000000000E+00 -0.00000000000E+00 -0.10439423071E+03  0.10439423074E+03  0.25500000000E-02 0. -1.
    5000001    1    1    2    0    0 -0.13209765950E+03  0.11022201192E+03  0.44616542515E+03  0.50585301240E+03  0.16500000000E+03 0.  0.
   -5000001    1    1    2    0    0  0.13209765950E+03 -0.11022201192E+03  0.11600405784E+03  0.26510493204E+03  0.16500000000E+03 0.  0.
<mgrwt>
<rscale>  0 0.52758092E+03</rscale>
<asrwt>0</asrwt>
<pdfrwt beam="1">  1        2 0.95223391E-01 0.52758092E+03</pdfrwt>
<pdfrwt beam="2">  1       -2 0.14913461E-01 0.52758092E+03</pdfrwt>
<totfact> 0.16889173E+03</totfact>
</mgrwt>
</event>
<event>
 4    1  0.5531008E-005  0.5753383E+03  0.7818608E-02  0.9957935E-01
          2   -1    0    0  501    0  0.00000000000E+00  0.00000000000E+00  0.16964320400E+04  0.16964320400E+04  0.25500000000E-02 0.  1.
         -2   -1    0    0    0  501 -0.00000000000E+00 -0.00000000000E+00 -0.48780937724E+02  0.48780937791E+02  0.25500000000E-02 0. -1.
    5000001    1    1    2    0    0  0.10446853849E+03  0.17858409759E+03  0.48167841925E+03  0.54958625803E+03  0.16500000000E+03 0.  0.
   -5000001    1    1    2    0    0 -0.10446853849E+03 -0.17858409759E+03  0.11659726830E+04  0.11956267198E+04  0.16500000000E+03 0.  0.
<mgrwt>
<rscale>  0 0.57533832E+03</rscale>
<asrwt>0</asrwt>
<pdfrwt beam="1">  1        2 0.24234740E+00 0.57533832E+03</pdfrwt>
<pdfrwt beam="2">  1       -2 0.69687062E-02 0.57533832E+03</pdfrwt>
<totfact> 0.14400516E+03</totfact>
</mgrwt>
</event>
<event>
 4    1  0.5531008E-005  0.4421298E+03  0.7818608E-02  0.1030095E+00
          2   -1    0    0  501    0  0.00000000000E+00  0.00000000000E+00  0.49130992250E+03  0.49130992251E+03  0.25500000000E-02 0.  1.
         -2   -1    0    0    0  501 -0.00000000000E+00 -0.00000000000E+00 -0.99468154562E+02  0.99468154595E+02  0.25500000000E-02 0. -1.
    5000001    1    1    2    0    0 -0.16799142439E+02  0.10748903741E+03  0.32825682225E+03  0.38316268830E+03  0.16500000000E+03 0.  0.
   -5000001    1    1    2    0    0  0.16799142439E+02 -0.10748903741E+03  0.63584945693E+02  0.20761538881E+03  0.16500000000E+03 0.  0.
<mgrwt>
<rscale>  0 0.44212981E+03</rscale>
<asrwt>0</asrwt>
<pdfrwt beam="1">  1        2 0.70187131E-01 0.44212981E+03</pdfrwt>
<pdfrwt beam="2">  1       -2 0.14209737E-01 0.44212981E+03</pdfrwt>
<totfact> 0.26043249E+03</totfact>
</mgrwt>
</event>
<event>
 4    1  0.5531008E-005  0.7611792E+03  0.7818608E-02  0.9617973E-01
         -2   -1    0    0    0  501 -0.00000000000E+00  0.00000000000E+00  0.48284030598E+02  0.48284030665E+02  0.25500000000E-02 0. -1.
          2   -1    0    0  501    0  0.00000000000E+00 -0.00000000000E+00 -0.29999243729E+04  0.29999243729E+04  0.25500000000E-02 0.  1.
    5000001    1    1    2    0    0 -0.21131781236E+03  0.15879647758E+02 -0.39594659025E+03  0.47844130608E+03  0.16500000000E+03 0.  0.
   -5000001    1    1    2    0    0  0.21131781236E+03 -0.15879647758E+02 -0.25556937521E+04  0.25697670975E+04  0.16500000000E+03 0.  0.
<mgrwt>
<rscale>  0 0.76117919E+03</rscale>
<asrwt>0</asrwt>
<pdfrwt beam="1">  1        2 0.42856051E+00 0.76117919E+03</pdfrwt>
<pdfrwt beam="2">  1       -2 0.68977205E-02 0.76117919E+03</pdfrwt>
<totfact> 0.30760525E+02</totfact>
</mgrwt>
</event>
<event>
 4    1  0.5531008E-005  0.3669495E+03  0.7818608E-02  0.1055866E+00
         -2   -1    0    0    0  501 -0.00000000000E+00  0.00000000000E+00  0.11366837980E+02  0.11366838266E+02  0.25500000000E-02 0. -1.
          2   -1    0    0  501    0  0.00000000000E+00 -0.00000000000E+00 -0.29615077541E+04  0.29615077541E+04  0.25500000000E-02 0.  1.
    5000001    1    1    2    0    0 -0.74378161959E+02  0.12941004520E+02 -0.16952189788E+04  0.17049023335E+04  0.16500000000E+03 0.  0.
   -5000001    1    1    2    0    0  0.74378161959E+02 -0.12941004520E+02 -0.12549219372E+04  0.12679722588E+04  0.16500000000E+03 0.  0.
<mgrwt>
<rscale>  0 0.36694947E+03</rscale>
<asrwt>0</asrwt>
<pdfrwt beam="1">  1        2 0.42307204E+00 0.36694947E+03</pdfrwt>
<pdfrwt beam="2">  1       -2 0.16238359E-02 0.36694947E+03</pdfrwt>
<totfact> 0.30346055E+03</totfact>
</mgrwt>
</event>
<event>
 4    1  0.5531008E-005  0.6558301E+03  0.7818608E-02  0.9795901E-01
         -2   -1    0    0    0  501 -0.00000000000E+00  0.00000000000E+00  0.49568343952E+02  0.49568344018E+02  0.25500000000E-02 0. -1.
          2   -1    0    0  501    0  0.00000000000E+00 -0.00000000000E+00 -0.21692931449E+04  0.21692931449E+04  0.25500000000E-02 0.  1.
    5000001    1    1    2    0    0  0.19963836165E+03 -0.19361503047E+03 -0.87576016890E+03  0.93355403105E+03  0.16500000000E+03 0.  0.
   -5000001    1    1    2    0    0 -0.19963836165E+03  0.19361503047E+03 -0.12439646321E+04  0.12853074579E+04  0.16500000000E+03 0.  0.
<mgrwt>
<rscale>  0 0.65583007E+03</rscale>
<asrwt>0</asrwt>
<pdfrwt beam="1">  1        2 0.30989896E+00 0.65583007E+03</pdfrwt>
<pdfrwt beam="2">  1       -2 0.70811934E-02 0.65583007E+03</pdfrwt>
<totfact> 0.80751894E+02</totfact>
</mgrwt>
</event>
<event>
 4    1  0.5531008E-005  0.4179817E+03  0.7818608E-02  0.1037725E+00
          2   -1    0    0  501    0  0.00000000000E+00  0.00000000000E+00  0.79783070280E+03  0.79783070280E+03  0.25500000000E-02 0.  1.
         -2   -1    0    0    0  501 -0.00000000000E+00 -0.00000000000E+00 -0.54744907151E+02  0.54744907211E+02  0.25500000000E-02 0. -1.
    5000001    1    1    2    0    0  0.11807083789E+03  0.49583490356E+02  0.35670419829E+03  0.41335472702E+03  0.16500000000E+03 0.  0.
   -5000001    1    1    2    0    0 -0.11807083789E+03 -0.49583490356E+02  0.38638159736E+03  0.43922088299E+03  0.16500000000E+03 0.  0.
<mgrwt>
<rscale>  0 0.41798166E+03</rscale>
<asrwt>0</asrwt>
<pdfrwt beam="1">  1        2 0.11397581E+00 0.41798166E+03</pdfrwt>
<pdfrwt beam="2">  1       -2 0.78207013E-02 0.41798166E+03</pdfrwt>
<totfact> 0.38570289E+03</totfact>
</mgrwt>
</event>
<event>
 4    1  0.5531008E-005  0.4324625E+03  0.7818608E-02  0.1033085E+00
         -2   -1    0    0    0  501 -0.00000000000E+00  0.00000000000E+00  0.28778220367E+02  0.28778220480E+02  0.25500000000E-02 0. -1.
          2   -1    0    0  501    0  0.00000000000E+00 -0.00000000000E+00 -0.16246994432E+04  0.16246994432E+04  0.25500000000E-02 0.  1.
    5000001    1    1    2    0    0 -0.30434441138E+01  0.13782457561E+03 -0.88565600554E+03  0.91138160851E+03  0.16500000000E+03 0.  0.
   -5000001    1    1    2    0    0  0.30434441138E+01 -0.13782457561E+03 -0.71026521727E+03  0.74209605514E+03  0.16500000000E+03 0.  0.
<mgrwt>
<rscale>  0 0.43246252E+03</rscale>
<asrwt>0</asrwt>
<pdfrwt beam="1">  1        2 0.23209986E+00 0.43246252E+03</pdfrwt>
<pdfrwt beam="2">  1       -2 0.41111754E-02 0.43246252E+03</pdfrwt>
<totfact> 0.35627053E+03</totfact>
</mgrwt>
</event>
<event>
 4    1  0.5531008E-005  0.5877862E+03  0.7818608E-02  0.9931075E-01
          2   -1    0    0  501    0  0.00000000000E+00  0.00000000000E+00  0.17613930062E+03  0.17613930064E+03  0.25500000000E-02 0.  1.
         -2   -1    0    0    0  501 -0.00000000000E+00 -0.00000000000E+00 -0.49036844812E+03  0.49036844813E+03  0.25500000000E-02 0. -1.
    5000001    1    1    2    0    0 -0.15391414648E+03 -0.12544543644E+03  0.21289063770E+01  0.25817756342E+03  0.16500000000E+03 0.  0.
   -5000001    1    1    2    0    0  0.15391414648E+03  0.12544543644E+03 -0.31635805388E+03  0.40833018535E+03  0.16500000000E+03 0.  0.
<mgrwt>
<rscale>  0 0.58778620E+03</rscale>
<asrwt>0</asrwt>
<pdfrwt beam="1">  1        2 0.25162757E-01 0.58778620E+03</pdfrwt>
<pdfrwt beam="2">  1       -2 0.70052635E-01 0.58778620E+03</pdfrwt>
<totfact> 0.40749797E+02</totfact>
</mgrwt>
</event>
<event>
 4    1  0.5531008E-005  0.5331390E+03  0.7818608E-02  0.1005474E+00
         -2   -1    0    0    0  501 -0.00000000000E+00  0.00000000000E+00  0.13831878890E+03  0.13831878892E+03  0.25500000000E-02 0. -1.
          2   -1    0    0  501    0  0.00000000000E+00 -0.00000000000E+00 -0.51373566554E+03  0.51373566555E+03  0.25500000000E-02 0.  1.
    5000001    1    1    2    0    0 -0.15295572754E+03 -0.10699447995E+03 -0.30367904983E+03  0.39279668867E+03  0.16500000000E+03 0.  0.
   -5000001    1    1    2    0    0  0.15295572754E+03  0.10699447995E+03 -0.71737826812E+02  0.25925776579E+03  0.16500000000E+03 0.  0.
<mgrwt>
<rscale>  0 0.53313899E+03</rscale>
<asrwt>0</asrwt>
<pdfrwt beam="1">  1        2 0.73390808E-01 0.53313899E+03</pdfrwt>
<pdfrwt beam="2">  1       -2 0.19759827E-01 0.53313899E+03</pdfrwt>
<totfact> 0.14166317E+03</totfact>
</mgrwt>
</event>
<event>
 4    1  0.5531008E-005  0.4018836E+03  0.7818608E-02  0.1043129E+00
         -2   -1    0    0    0  501 -0.00000000000E+00  0.00000000000E+00  0.14037482583E+02  0.14037482814E+02  0.25500000000E-02 0. -1.
          2   -1    0    0  501    0  0.00000000000E+00 -0.00000000000E+00 -0.28764139397E+04  0.28764139397E+04  0.25500000000E-02 0.  1.
    5000001    1    1    2    0    0 -0.23622697534E+02 -0.10394121127E+03 -0.17355494782E+04  0.17466306990E+04  0.16500000000E+03 0.  0.
   -5000001    1    1    2    0    0  0.23622697534E+02  0.10394121127E+03 -0.11268269789E+04  0.11438207236E+04  0.16500000000E+03 0.  0.
<mgrwt>
<rscale>  0 0.40188362E+03</rscale>
<asrwt>0</asrwt>
<pdfrwt beam="1">  1        2 0.41091590E+00 0.40188362E+03</pdfrwt>
<pdfrwt beam="2">  1       -2 0.20053565E-02 0.40188362E+03</pdfrwt>
<totfact> 0.24560366E+03</totfact>
</mgrwt>
</event>
<event>
 4    1  0.5531008E-005  0.5456577E+03  0.7818608E-02  0.1002504E+00
          2   -1    0    0  501    0  0.00000000000E+00  0.00000000000E+00  0.25318507973E+04  0.25318507973E+04  0.25500000000E-02 0.  1.
         -2   -1    0    0    0  501 -0.00000000000E+00 -0.00000000000E+00 -0.29399668666E+02  0.29399668777E+02  0.25500000000E-02 0. -1.
    5000001    1    1    2    0    0  0.11282052315E+03 -0.16079356214E+03  0.81523696065E+03  0.85464574069E+03  0.16500000000E+03 0.  0.
   -5000001    1    1    2    0    0 -0.11282052315E+03  0.16079356214E+03  0.16872141680E+04  0.17066047254E+04  0.16500000000E+03 0.  0.
<mgrwt>
<rscale>  0 0.54565768E+03</rscale>
<asrwt>0</asrwt>
<pdfrwt beam="1">  1        2 0.36169311E+00 0.54565768E+03</pdfrwt>
<pdfrwt beam="2">  1       -2 0.41999510E-02 0.54565768E+03</pdfrwt>
<totfact> 0.12018832E+03</totfact>
</mgrwt>
</event>
<event>
 4    1  0.5531008E-005  0.5828833E+03  0.7818608E-02  0.9941568E-01
          2   -1    0    0  501    0  0.00000000000E+00  0.00000000000E+00  0.36192750724E+03  0.36192750725E+03  0.25500000000E-02 0.  1.
         -2   -1    0    0    0  501 -0.00000000000E+00 -0.00000000000E+00 -0.23468302080E+03  0.23468302081E+03  0.25500000000E-02 0. -1.
    5000001    1    1    2    0    0  0.22829764222E+03 -0.25304098102E+01  0.14012896028E+03  0.31462253881E+03  0.16500000000E+03 0.  0.
   -5000001    1    1    2    0    0 -0.22829764222E+03  0.25304098102E+01 -0.12884473833E+02  0.28198798925E+03  0.16500000000E+03 0.  0.
<mgrwt>
<rscale>  0 0.58288332E+03</rscale>
<asrwt>0</asrwt>
<pdfrwt beam="1">  1        2 0.51703930E-01 0.58288332E+03</pdfrwt>
<pdfrwt beam="2">  1       -2 0.33526146E-01 0.58288332E+03</pdfrwt>
<totfact> 0.80759689E+02</totfact>
</mgrwt>
</event>
<event>
 4    1  0.5531008E-005  0.4485916E+03  0.7818608E-02  0.1028143E+00
         -2   -1    0    0    0  501 -0.00000000000E+00  0.00000000000E+00  0.98337686683E+03  0.98337686684E+03  0.25500000000E-02 0. -1.
          2   -1    0    0  501    0  0.00000000000E+00 -0.00000000000E+00 -0.51159030496E+02  0.51159030559E+02  0.25500000000E-02 0.  1.
    5000001    1    1    2    0    0 -0.94925801346E+02  0.51551653932E+02  0.71250555985E+03  0.73929537643E+03  0.16500000000E+03 0.  0.
   -5000001    1    1    2    0    0  0.94925801346E+02 -0.51551653932E+02  0.21971227649E+03  0.29524052097E+03  0.16500000000E+03 0.  0.
<mgrwt>
<rscale>  0 0.44859161E+03</rscale>
<asrwt>0</asrwt>
<pdfrwt beam="1">  1        2 0.73084329E-02 0.44859161E+03</pdfrwt>
<pdfrwt beam="2">  1       -2 0.14048241E+00 0.44859161E+03</pdfrwt>
<totfact> 0.35984593E+02</totfact>
</mgrwt>
</event>
<event>
 4    1  0.5531008E-005  0.4327315E+03  0.7818608E-02  0.1033001E+00
         -2   -1    0    0    0  501 -0.00000000000E+00  0.00000000000E+00  0.32834164086E+02  0.32834164185E+02  0.25500000000E-02 0. -1.
          2   -1    0    0  501    0  0.00000000000E+00 -0.00000000000E+00 -0.14257753669E+04  0.14257753669E+04  0.25500000000E-02 0.  1.
    5000001    1    1    2    0    0  0.80951680705E+01 -0.13594708149E+03 -0.58766412890E+03  0.62539688927E+03  0.16500000000E+03 0.  0.
   -5000001    1    1    2    0    0 -0.80951680705E+01  0.13594708149E+03 -0.80527707389E+03  0.83321264179E+03  0.16500000000E+03 0.  0.
<mgrwt>
<rscale>  0 0.43273152E+03</rscale>
<asrwt>0</asrwt>
<pdfrwt beam="1">  1        2 0.20368216E+00 0.43273152E+03</pdfrwt>
<pdfrwt beam="2">  1       -2 0.46905958E-02 0.43273152E+03</pdfrwt>
<totfact> 0.36833173E+03</totfact>
</mgrwt>
</event>
<event>
 4    1  0.5531008E-005  0.7457958E+03  0.7818608E-02  0.9641969E-01
          2   -1    0    0  501    0  0.00000000000E+00  0.00000000000E+00  0.19854613317E+04  0.19854613317E+04  0.25500000000E-02 0.  1.
         -2   -1    0    0    0  501 -0.00000000000E+00 -0.00000000000E+00 -0.70035529168E+02  0.70035529214E+02  0.25500000000E-02 0. -1.
    5000001    1    1    2    0    0  0.30306580801E+02 -0.33252316910E+03  0.10083600332E+04  0.10749442327E+04  0.16500000000E+03 0.  0.
   -5000001    1    1    2    0    0 -0.30306580801E+02  0.33252316910E+03  0.90706576931E+03  0.98055262821E+03  0.16500000000E+03 0.  0.
<mgrwt>
<rscale>  0 0.74579578E+03</rscale>
<asrwt>0</asrwt>
<pdfrwt beam="1">  1        2 0.28363730E+00 0.74579578E+03</pdfrwt>
<pdfrwt beam="2">  1       -2 0.10005077E-01 0.74579578E+03</pdfrwt>
<totfact> 0.57089592E+02</totfact>
</mgrwt>
</event>
<event>
 4    1  0.5531008E-005  0.4812357E+03  0.7818608E-02  0.1018796E+00
          2   -1    0    0  501    0  0.00000000000E+00  0.00000000000E+00  0.17527634952E+04  0.17527634952E+04  0.25500000000E-02 0.  1.
         -2   -1    0    0    0  501 -0.00000000000E+00 -0.00000000000E+00 -0.33031813541E+02  0.33031813640E+02  0.25500000000E-02 0. -1.
    5000001    1    1    2    0    0 -0.17322845522E+03  0.20630923470E+02  0.91714107654E+03  0.94805405277E+03  0.16500000000E+03 0.  0.
   -5000001    1    1    2    0    0  0.17322845522E+03 -0.20630923470E+02  0.80259060517E+03  0.83774125612E+03  0.16500000000E+03 0.  0.
<mgrwt>
<rscale>  0 0.48123573E+03</rscale>
<asrwt>0</asrwt>
<pdfrwt beam="1">  1        2 0.25039477E+00 0.48123573E+03</pdfrwt>
<pdfrwt beam="2">  1       -2 0.47188307E-02 0.48123573E+03</pdfrwt>
<totfact> 0.24837108E+03</totfact>
</mgrwt>
</event>
<event>
 4    1  0.5531008E-005  0.7193037E+03  0.7818608E-02  0.9684778E-01
         -2   -1    0    0    0  501 -0.00000000000E+00  0.00000000000E+00  0.11752590592E+03  0.11752590595E+03  0.25500000000E-02 0. -1.
          2   -1    0    0  501    0  0.00000000000E+00 -0.00000000000E+00 -0.11006036443E+04  0.11006036443E+04  0.25500000000E-02 0.  1.
    5000001    1    1    2    0    0  0.26772369618E+03 -0.17279824612E+03 -0.45043116036E+03  0.57588926156E+03  0.16500000000E+03 0.  0.
   -5000001    1    1    2    0    0 -0.26772369618E+03  0.17279824612E+03 -0.53264657804E+03  0.64224028872E+03  0.16500000000E+03 0.  0.
<mgrwt>
<rscale>  0 0.71930366E+03</rscale>
<asrwt>0</asrwt>
<pdfrwt beam="1">  1        2 0.15722909E+00 0.71930366E+03</pdfrwt>
<pdfrwt beam="2">  1       -2 0.16789416E-01 0.71930366E+03</pdfrwt>
<totfact> 0.70924778E+02</totfact>
</mgrwt>
</event>
<event>
 4    1  0.5531008E-005  0.1102050E+04  0.7818608E-02  0.9203196E-01
         -2   -1    0    0    0  501 -0.00000000000E+00  0.00000000000E+00  0.24038612549E+03  0.24038612551E+03  0.25500000000E-02 0. -1.
          2   -1    0    0  501    0  0.00000000000E+00 -0.00000000000E+00 -0.12630878496E+04  0.12630878496E+04  0.25500000000E-02 0.  1.
    5000001    1    1    2    0    0  0.51159503750E+03 -0.11859162055E+03 -0.54505476346E+03  0.77466324944E+03  0.16500000000E+03 0.  0.
   -5000001    1    1    2    0    0 -0.51159503750E+03  0.11859162055E+03 -0.47764696068E+03  0.72881072570E+03  0.16500000000E+03 0.  0.
<mgrwt>
<rscale>  0 0.11020504E+04</rscale>
<asrwt>0</asrwt>
<pdfrwt beam="1">  1        2 0.18044112E+00 0.11020504E+04</pdfrwt>
<pdfrwt beam="2">  1       -2 0.34340876E-01 0.11020504E+04</pdfrwt>
<totfact> 0.15498499E+02</totfact>
</mgrwt>
</event>
<event>
 4    1  0.5531008E-005  0.4206918E+03  0.7818608E-02  0.1036841E+00
          2   -1    0    0  501    0  0.00000000000E+00  0.00000000000E+00  0.13748248950E+04  0.13748248950E+04  0.25500000000E-02 0.  1.
         -2   -1    0    0    0  501 -0.00000000000E+00 -0.00000000000E+00 -0.32182568029E+02  0.32182568130E+02  0.25500000000E-02 0. -1.
    5000001    1    1    2    0    0 -0.10518276922E+03 -0.62075115343E+02  0.51792297512E+03  0.55712291556E+03  0.16500000000E+03 0.  0.
   -5000001    1    1    2    0    0  0.10518276922E+03  0.62075115343E+02  0.82471935184E+03  0.84988454756E+03  0.16500000000E+03 0.  0.
<mgrwt>
<rscale>  0 0.42069179E+03</rscale>
<asrwt>0</asrwt>
<pdfrwt beam="1">  1        2 0.19640355E+00 0.42069179E+03</pdfrwt>
<pdfrwt beam="2">  1       -2 0.45975099E-02 0.42069179E+03</pdfrwt>
<totfact> 0.40389579E+03</totfact>
</mgrwt>
</event>
<event>
 4    1  0.5531008E-005  0.5275521E+03  0.7818608E-02  0.1006828E+00
          2   -1    0    0  501    0  0.00000000000E+00  0.00000000000E+00  0.11084632593E+03  0.11084632595E+03  0.25500000000E-02 0.  1.
         -2   -1    0    0    0  501 -0.00000000000E+00 -0.00000000000E+00 -0.62769609102E+03  0.62769609103E+03  0.25500000000E-02 0. -1.
    5000001    1    1    2    0    0  0.17767110387E+03 -0.10017844149E+03 -0.29676551797E+03  0.39610290828E+03  0.16500000000E+03 0.  0.
   -5000001    1    1    2    0    0 -0.17767110387E+03  0.10017844149E+03 -0.22008424713E+03  0.34243950870E+03  0.16500000000E+03 0.  0.
<mgrwt>
<rscale>  0 0.52755210E+03</rscale>
<asrwt>0</asrwt>
<pdfrwt beam="1">  1        2 0.15835190E-01 0.52755210E+03</pdfrwt>
<pdfrwt beam="2">  1       -2 0.89670868E-01 0.52755210E+03</pdfrwt>
<totfact> 0.40426590E+02</totfact>
</mgrwt>
</event>
<event>
 4    1  0.5531008E-005  0.4738757E+03  0.7818608E-02  0.1020832E+00
         -2   -1    0    0    0  501 -0.00000000000E+00  0.00000000000E+00  0.34737385852E+03  0.34737385853E+03  0.25500000000E-02 0. -1.
          2   -1    0    0  501    0  0.00000000000E+00 -0.00000000000E+00 -0.16161131244E+03  0.16161131246E+03  0.25500000000E-02 0.  1.
    5000001    1    1    2    0    0 -0.10968524489E+03  0.12826559322E+03  0.70566297309E+02  0.24634836648E+03  0.16500000000E+03 0.  0.
   -5000001    1    1    2    0    0  0.10968524489E+03 -0.12826559322E+03  0.11519624877E+03  0.26263680451E+03  0.16500000000E+03 0.  0.
<mgrwt>
<rscale>  0 0.47387570E+03</rscale>
<asrwt>0</asrwt>
<pdfrwt beam="1">  1        2 0.23087331E-01 0.47387570E+03</pdfrwt>
<pdfrwt beam="2">  1       -2 0.49624836E-01 0.47387570E+03</pdfrwt>
<totfact> 0.92557875E+02</totfact>
</mgrwt>
</event>
<event>
 4    1  0.5531008E-005  0.8395274E+03  0.7818608E-02  0.9504502E-01
          2   -1    0    0  501    0  0.00000000000E+00  0.00000000000E+00  0.16820854478E+04  0.16820854478E+04  0.25500000000E-02 0.  1.
         -2   -1    0    0    0  501 -0.00000000000E+00 -0.00000000000E+00 -0.10475184965E+03  0.10475184968E+03  0.25500000000E-02 0. -1.
    5000001    1    1    2    0    0 -0.65039732120E+02 -0.37948049057E+03  0.84660237340E+03  0.94456137340E+03  0.16500000000E+03 0.  0.
   -5000001    1    1    2    0    0  0.65039732120E+02  0.37948049057E+03  0.73073122474E+03  0.84227592408E+03  0.16500000000E+03 0.  0.
<mgrwt>
<rscale>  0 0.83952740E+03</rscale>
<asrwt>0</asrwt>
<pdfrwt beam="1">  1        2 0.24029791E+00 0.83952740E+03</pdfrwt>
<pdfrwt beam="2">  1       -2 0.14964551E-01 0.83952740E+03</pdfrwt>
<totfact> 0.41555951E+02</totfact>
</mgrwt>
</event>
<event>
 4    1  0.5531008E-005  0.7390846E+03  0.7818608E-02  0.9652632E-01
         -2   -1    0    0    0  501 -0.00000000000E+00  0.00000000000E+00  0.42810032079E+02  0.42810032155E+02  0.25500000000E-02 0. -1.
          2   -1    0    0  501    0  0.00000000000E+00 -0.00000000000E+00 -0.31899420984E+04  0.31899420984E+04  0.25500000000E-02 0.  1.
    5000001    1    1    2    0    0 -0.17466517157E+02  0.33012662480E+03 -0.16038244869E+04  0.16458331180E+04  0.16500000000E+03 0.  0.
   -5000001    1    1    2    0    0  0.17466517157E+02 -0.33012662480E+03 -0.15433075794E+04  0.15869190125E+04  0.16500000000E+03 0.  0.
<mgrwt>
<rscale>  0 0.73908463E+03</rscale>
<asrwt>0</asrwt>
<pdfrwt beam="1">  1        2 0.45570586E+00 0.73908463E+03</pdfrwt>
<pdfrwt beam="2">  1       -2 0.61157209E-02 0.73908463E+03</pdfrwt>
<totfact> 0.29236826E+02</totfact>
</mgrwt>
</event>
<event>
 4    1  0.5531008E-005  0.7259873E+03  0.7818608E-02  0.9673794E-01
          2   -1    0    0  501    0  0.00000000000E+00  0.00000000000E+00  0.45050269752E+03  0.45050269753E+03  0.25500000000E-02 0.  1.
         -2   -1    0    0    0  501 -0.00000000000E+00 -0.00000000000E+00 -0.29248302470E+03  0.29248302471E+03  0.25500000000E-02 0. -1.
    5000001    1    1    2    0    0 -0.28286214854E+03 -0.43984231422E+02 -0.74821894737E+02  0.33877562430E+03  0.16500000000E+03 0.  0.
   -5000001    1    1    2    0    0  0.28286214854E+03  0.43984231422E+02  0.23284156756E+03  0.40421009794E+03  0.16500000000E+03 0.  0.
<mgrwt>
<rscale>  0 0.72598730E+03</rscale>
<asrwt>0</asrwt>
<pdfrwt beam="1">  1        2 0.64357528E-01 0.72598730E+03</pdfrwt>
<pdfrwt beam="2">  1       -2 0.41783289E-01 0.72598730E+03</pdfrwt>
<totfact> 0.41322203E+02</totfact>
</mgrwt>
</event>
<event>
 4    1  0.5531008E-005  0.4826118E+03  0.7818608E-02  0.1018420E+00
          2   -1    0    0  501    0  0.00000000000E+00  0.00000000000E+00  0.24145602042E+04  0.24145602043E+04  0.25500000000E-02 0.  1.
         -2   -1    0    0    0  501 -0.00000000000E+00 -0.00000000000E+00 -0.24115588410E+02  0.24115588545E+02  0.25500000000E-02 0. -1.
    5000001    1    1    2    0    0  0.11228459805E+02  0.98586324801E+02  0.46020855740E+03  0.49886096064E+03  0.16500000000E+03 0.  0.
   -5000001    1    1    2    0    0 -0.11228459805E+02 -0.98586324801E+02  0.19302360584E+04  0.19398148322E+04  0.16500000000E+03 0.  0.
<mgrwt>
<rscale>  0 0.48261181E+03</rscale>
<asrwt>0</asrwt>
<pdfrwt beam="1">  1        2 0.34493704E+00 0.48261181E+03</pdfrwt>
<pdfrwt beam="2">  1       -2 0.34450854E-02 0.48261181E+03</pdfrwt>
<totfact> 0.18743294E+03</totfact>
</mgrwt>
</event>
<event>
 4    1  0.5531008E-005  0.4858315E+03  0.7818608E-02  0.1017545E+00
          2   -1    0    0  501    0  0.00000000000E+00  0.00000000000E+00  0.18459742562E+04  0.18459742562E+04  0.25500000000E-02 0.  1.
         -2   -1    0    0    0  501 -0.00000000000E+00 -0.00000000000E+00 -0.31965812052E+02  0.31965812154E+02  0.25500000000E-02 0. -1.
    5000001    1    1    2    0    0  0.82897342435E+02 -0.92181482371E+02  0.41178339014E+03  0.46060824511E+03  0.16500000000E+03 0.  0.
   -5000001    1    1    2    0    0 -0.82897342435E+02  0.92181482371E+02  0.14022250540E+04  0.14173318232E+04  0.16500000000E+03 0.  0.
<mgrwt>
<rscale>  0 0.48583152E+03</rscale>
<asrwt>0</asrwt>
<pdfrwt beam="1">  1        2 0.26371063E+00 0.48583152E+03</pdfrwt>
<pdfrwt beam="2">  1       -2 0.45665442E-02 0.48583152E+03</pdfrwt>
<totfact> 0.23455425E+03</totfact>
</mgrwt>
</event>
<event>
 4    1  0.5531008E-005  0.4279185E+03  0.7818608E-02  0.1034520E+00
         -2   -1    0    0    0  501 -0.00000000000E+00  0.00000000000E+00  0.34366035959E+02  0.34366036054E+02  0.25500000000E-02 0. -1.
          2   -1    0    0  501    0  0.00000000000E+00 -0.00000000000E+00 -0.13320870391E+04  0.13320870391E+04  0.25500000000E-02 0.  1.
    5000001    1    1    2    0    0  0.11399279866E+03  0.63979607980E+02 -0.77111686502E+03  0.79933345226E+03  0.16500000000E+03 0.  0.
   -5000001    1    1    2    0    0 -0.11399279866E+03 -0.63979607980E+02 -0.52660413807E+03  0.56711962284E+03  0.16500000000E+03 0.  0.
<mgrwt>
<rscale>  0 0.42791846E+03</rscale>
<asrwt>0</asrwt>
<pdfrwt beam="1">  1        2 0.19029812E+00 0.42791846E+03</pdfrwt>
<pdfrwt beam="2">  1       -2 0.49094345E-02 0.42791846E+03</pdfrwt>
<totfact> 0.38474116E+03</totfact>
</mgrwt>
</event>
<event>
 4    1  0.5531008E-005  0.2810128E+04  0.7818608E-02  0.8300131E-01
          2   -1    0    0  501    0  0.00000000000E+00  0.00000000000E+00  0.11352976568E+04  0.11352976568E+04  0.25500000000E-02 0.  1.
         -2   -1    0    0    0  501 -0.00000000000E+00 -0.00000000000E+00 -0.17389318393E+04  0.17389318393E+04  0.25500000000E-02 0. -1.
    5000001    1    1    2    0    0 -0.50695910242E+03 -0.11451848387E+04 -0.93109463440E+03  0.15692731007E+04  0.16500000000E+03 0.  0.
   -5000001    1    1    2    0    0  0.50695910242E+03  0.11451848387E+04  0.32746045184E+03  0.13049563954E+04  0.16500000000E+03 0.  0.
<mgrwt>
<rscale>  0 0.28101283E+04</rscale>
<asrwt>0</asrwt>
<pdfrwt beam="1">  1        2 0.16218538E+00 0.28101283E+04</pdfrwt>
<pdfrwt beam="2">  1       -2 0.24841883E+00 0.28101283E+04</pdfrwt>
<totfact> 0.13392380E+00</totfact>
</mgrwt>
</event>
<event>
 4    1  0.5531008E-005  0.5779031E+03  0.7818608E-02  0.9952341E-01
         -2   -1    0    0    0  501 -0.00000000000E+00  0.00000000000E+00  0.13317378968E+04  0.13317378968E+04  0.25500000000E-02 0. -1.
          2   -1    0    0  501    0  0.00000000000E+00 -0.00000000000E+00 -0.62694771218E+02  0.62694771270E+02  0.25500000000E-02 0.  1.
    5000001    1    1    2    0    0 -0.11271752731E+03 -0.16976905632E+03  0.34156086300E+03  0.43059911354E+03  0.16500000000E+03 0.  0.
   -5000001    1    1    2    0    0  0.11271752731E+03  0.16976905632E+03  0.92748226258E+03  0.96383355453E+03  0.16500000000E+03 0.  0.
<mgrwt>
<rscale>  0 0.57790312E+03</rscale>
<asrwt>0</asrwt>
<pdfrwt beam="1">  1        2 0.89563960E-02 0.57790312E+03</pdfrwt>
<pdfrwt beam="2">  1       -2 0.19024827E+00 0.57790312E+03</pdfrwt>
<totfact> 0.12103771E+02</totfact>
</mgrwt>
</event>
<event>
 4    1  0.5531008E-005  0.4777940E+03  0.7818608E-02  0.1019743E+00
          2   -1    0    0  501    0  0.00000000000E+00  0.00000000000E+00  0.14188012788E+03  0.14188012790E+03  0.25500000000E-02 0.  1.
         -2   -1    0    0    0  501 -0.00000000000E+00 -0.00000000000E+00 -0.40225355078E+03  0.40225355079E+03  0.25500000000E-02 0. -1.
    5000001    1    1    2    0    0 -0.13287704713E+03  0.89996021786E+02 -0.20303004196E+03  0.30692310361E+03  0.16500000000E+03 0.  0.
   -5000001    1    1    2    0    0  0.13287704713E+03 -0.89996021786E+02 -0.57343380947E+02  0.23721057508E+03  0.16500000000E+03 0.  0.
<mgrwt>
<rscale>  0 0.47779404E+03</rscale>
<asrwt>0</asrwt>
<pdfrwt beam="1">  1        2 0.20268590E-01 0.47779404E+03</pdfrwt>
<pdfrwt beam="2">  1       -2 0.57464792E-01 0.47779404E+03</pdfrwt>
<totfact> 0.79691662E+02</totfact>
</mgrwt>
</event>
<event>
 4    1  0.5531008E-005  0.3433415E+03  0.7818608E-02  0.1065382E+00
         -2   -1    0    0    0  501 -0.00000000000E+00  0.00000000000E+00  0.88238173359E+02  0.88238173396E+02  0.25500000000E-02 0. -1.
          2   -1    0    0  501    0  0.00000000000E+00 -0.00000000000E+00 -0.33399201308E+03  0.33399201309E+03  0.25500000000E-02 0.  1.
    5000001    1    1    2    0    0 -0.21194750294E+02 -0.22053843505E+02 -0.78362469215E+02  0.18520600972E+03  0.16500000000E+03 0.  0.
   -5000001    1    1    2    0    0  0.21194750294E+02  0.22053843505E+02 -0.16739137050E+03  0.23702417677E+03  0.16500000000E+03 0.  0.
<mgrwt>
<rscale>  0 0.34334149E+03</rscale>
<asrwt>0</asrwt>
<pdfrwt beam="1">  1        2 0.47713144E-01 0.34334149E+03</pdfrwt>
<pdfrwt beam="2">  1       -2 0.12605454E-01 0.34334149E+03</pdfrwt>
<totfact> 0.48253990E+03</totfact>
</mgrwt>
</event>
<event>
 4    1  0.5531008E-005  0.3561470E+03  0.7818608E-02  0.1060120E+00
         -2   -1    0    0    0  501 -0.00000000000E+00  0.00000000000E+00  0.91704601473E+01  0.91704605019E+01  0.25500000000E-02 0. -1.
          2   -1    0    0  501    0  0.00000000000E+00 -0.00000000000E+00 -0.34578600762E+04  0.34578600762E+04  0.25500000000E-02 0.  1.
    5000001    1    1    2    0    0 -0.44975206209E+02  0.46995024890E+02 -0.18794518830E+04  0.18878018121E+04  0.16500000000E+03 0.  0.
   -5000001    1    1    2    0    0  0.44975206209E+02 -0.46995024890E+02 -0.15692377331E+04  0.15792287245E+04  0.16500000000E+03 0.  0.
<mgrwt>
<rscale>  0 0.35614698E+03</rscale>
<asrwt>0</asrwt>
<pdfrwt beam="1">  1        2 0.49397918E+00 0.35614698E+03</pdfrwt>
<pdfrwt beam="2">  1       -2 0.13100680E-02 0.35614698E+03</pdfrwt>
<totfact> 0.22117969E+03</totfact>
</mgrwt>
</event>
<event>
 4    1  0.5531008E-005  0.5086809E+03  0.7818608E-02  0.1011538E+00
         -2   -1    0    0    0  501 -0.00000000000E+00  0.00000000000E+00  0.39452194306E+02  0.39452194388E+02  0.25500000000E-02 0. -1.
          2   -1    0    0  501    0  0.00000000000E+00 -0.00000000000E+00 -0.16396824328E+04  0.16396824328E+04  0.25500000000E-02 0.  1.
    5000001    1    1    2    0    0 -0.15070539706E+03  0.10844449465E+03 -0.98066713729E+03  0.10116349931E+04  0.16500000000E+03 0.  0.
   -5000001    1    1    2    0    0  0.15070539706E+03 -0.10844449465E+03 -0.61956310122E+03  0.66749963409E+03  0.16500000000E+03 0.  0.
<mgrwt>
<rscale>  0 0.50868092E+03</rscale>
<asrwt>0</asrwt>
<pdfrwt beam="1">  1        2 0.23424031E+00 0.50868092E+03</pdfrwt>
<pdfrwt beam="2">  1       -2 0.56360288E-02 0.50868092E+03</pdfrwt>
<totfact> 0.21507785E+03</totfact>
</mgrwt>
</event>
<event>
 4    1  0.5531008E-005  0.4995478E+03  0.7818608E-02  0.1013897E+00
          2   -1    0    0  501    0  0.00000000000E+00  0.00000000000E+00  0.14250259135E+04  0.14250259135E+04  0.25500000000E-02 0.  1.
         -2   -1    0    0    0  501 -0.00000000000E+00 -0.00000000000E+00 -0.43779556800E+02  0.43779556874E+02  0.25500000000E-02 0. -1.
    5000001    1    1    2    0    0  0.91265423467E+02 -0.15928369924E+03  0.57822450949E+03  0.62870442796E+03  0.16500000000E+03 0.  0.
   -5000001    1    1    2    0    0 -0.91265423467E+02  0.15928369924E+03  0.80302184719E+03  0.84010104240E+03  0.16500000000E+03 0.  0.
<mgrwt>
<rscale>  0 0.49954781E+03</rscale>
<asrwt>0</asrwt>
<pdfrwt beam="1">  1        2 0.20357510E+00 0.49954781E+03</pdfrwt>
<pdfrwt beam="2">  1       -2 0.62542233E-02 0.49954781E+03</pdfrwt>
<totfact> 0.23601286E+03</totfact>
</mgrwt>
</event>
<event>
 4    1  0.5531008E-005  0.4486582E+03  0.7818608E-02  0.1028123E+00
         -2   -1    0    0    0  501 -0.00000000000E+00  0.00000000000E+00  0.50755161586E+02  0.50755161650E+02  0.25500000000E-02 0. -1.
          2   -1    0    0  501    0  0.00000000000E+00 -0.00000000000E+00 -0.99149596334E+03  0.99149596335E+03  0.25500000000E-02 0.  1.
    5000001    1    1    2    0    0  0.13388810353E+03 -0.35265086954E+02 -0.32476027523E+03  0.38969717344E+03  0.16500000000E+03 0.  0.
   -5000001    1    1    2    0    0 -0.13388810353E+03  0.35265086954E+02 -0.61598052653E+03  0.65255395155E+03  0.16500000000E+03 0.  0.
<mgrwt>
<rscale>  0 0.44865817E+03</rscale>
<asrwt>0</asrwt>
<pdfrwt beam="1">  1        2 0.14164227E+00 0.44865817E+03</pdfrwt>
<pdfrwt beam="2">  1       -2 0.72507380E-02 0.44865817E+03</pdfrwt>
<totfact> 0.32661495E+03</totfact>
</mgrwt>
</event>
<event>
 4    1  0.5531008E-005  0.5024679E+03  0.7818608E-02  0.1013137E+00
         -2   -1    0    0    0  501 -0.00000000000E+00  0.00000000000E+00  0.26994565048E+02  0.26994565169E+02  0.25500000000E-02 0. -1.
          2   -1    0    0  501    0  0.00000000000E+00 -0.00000000000E+00 -0.23381931421E+04  0.23381931421E+04  0.25500000000E-02 0.  1.
    5000001    1    1    2    0    0 -0.18704243358E+03  0.29523094378E+02 -0.11269583719E+04  0.11546067109E+04  0.16500000000E+03 0.  0.
   -5000001    1    1    2    0    0  0.18704243358E+03 -0.29523094378E+02 -0.11842402052E+04  0.12105809963E+04  0.16500000000E+03 0.  0.
<mgrwt>
<rscale>  0 0.50246794E+03</rscale>
<asrwt>0</asrwt>
<pdfrwt beam="1">  1        2 0.33402746E+00 0.50246794E+03</pdfrwt>
<pdfrwt beam="2">  1       -2 0.38563679E-02 0.50246794E+03</pdfrwt>
<totfact> 0.17229971E+03</totfact>
</mgrwt>
</event>
<event>
 4    1  0.5531008E-005  0.5575419E+03  0.7818608E-02  0.9997632E-01
          2   -1    0    0  501    0  0.00000000000E+00  0.00000000000E+00  0.45372152087E+03  0.45372152088E+03  0.25500000000E-02 0.  1.
         -2   -1    0    0    0  501 -0.00000000000E+00 -0.00000000000E+00 -0.17127958615E+03  0.17127958616E+03  0.25500000000E-02 0. -1.
    5000001    1    1    2    0    0  0.76890962374E+02  0.19127000756E+03  0.41007622064E+02  0.26721351193E+03  0.16500000000E+03 0.  0.
   -5000001    1    1    2    0    0 -0.76890962374E+02 -0.19127000756E+03  0.24143431266E+03  0.35778759512E+03  0.16500000000E+03 0.  0.
<mgrwt>
<rscale>  0 0.55754187E+03</rscale>
<asrwt>0</asrwt>
<pdfrwt beam="1">  1        2 0.64817360E-01 0.55754187E+03</pdfrwt>
<pdfrwt beam="2">  1       -2 0.24468512E-01 0.55754187E+03</pdfrwt>
<totfact> 0.11187898E+03</totfact>
</mgrwt>
</event>
<event>
 4    1  0.5531008E-005  0.5178719E+03  0.7818608E-02  0.1009217E+00
          2   -1    0    0  501    0  0.00000000000E+00  0.00000000000E+00  0.91394685664E+02  0.91394685700E+02  0.25500000000E-02 0.  1.
         -2   -1    0    0    0  501 -0.00000000000E+00 -0.00000000000E+00 -0.73360759493E+03  0.73360759493E+03  0.25500000000E-02 0. -1.
    5000001    1    1    2    0    0  0.89737232600E+02  0.17045259582E+03 -0.40412895977E+03  0.47712899142E+03  0.16500000000E+03 0.  0.
   -5000001    1    1    2    0    0 -0.89737232600E+02 -0.17045259582E+03 -0.23808394950E+03  0.34787328921E+03  0.16500000000E+03 0.  0.
<mgrwt>
<rscale>  0 0.51787194E+03</rscale>
<asrwt>0</asrwt>
<pdfrwt beam="1">  1        2 0.13056384E-01 0.51787194E+03</pdfrwt>
<pdfrwt beam="2">  1       -2 0.10480108E+00 0.51787194E+03</pdfrwt>
<totfact> 0.35510878E+02</totfact>
</mgrwt>
</event>
<event>
 4    1  0.5531008E-005  0.6661410E+03  0.7818608E-02  0.9776954E-01
         -2   -1    0    0    0  501 -0.00000000000E+00  0.00000000000E+00  0.93023507962E+02  0.93023507997E+02  0.25500000000E-02 0. -1.
          2   -1    0    0  501    0  0.00000000000E+00 -0.00000000000E+00 -0.11925582735E+04  0.11925582735E+04  0.25500000000E-02 0.  1.
    5000001    1    1    2    0    0  0.76175593633E+02 -0.26205714658E+03 -0.36431381712E+03  0.48417582186E+03  0.16500000000E+03 0.  0.
   -5000001    1    1    2    0    0 -0.76175593633E+02  0.26205714658E+03 -0.73522094841E+03  0.80140595962E+03  0.16500000000E+03 0.  0.
<mgrwt>
<rscale>  0 0.66614099E+03</rscale>
<asrwt>0</asrwt>
<pdfrwt beam="1">  1        2 0.17036546E+00 0.66614099E+03</pdfrwt>
<pdfrwt beam="2">  1       -2 0.13289073E-01 0.66614099E+03</pdfrwt>
<totfact> 0.93362643E+02</totfact>
</mgrwt>
</event>
<event>
 4    1  0.5531008E-005  0.5724111E+03  0.7818608E-02  0.9964357E-01
         -2   -1    0    0    0  501 -0.00000000000E+00  0.00000000000E+00  0.17535198744E+03  0.17535198746E+03  0.25500000000E-02 0.  1.
          2   -1    0    0  501    0  0.00000000000E+00 -0.00000000000E+00 -0.46713817316E+03  0.46713817316E+03  0.25500000000E-02 0. -1.
    5000001    1    1    2    0    0  0.21004664000E+03  0.54916571854E+02 -0.24344225797E+03  0.36554692422E+03  0.16500000000E+03 0.  0.
   -5000001    1    1    2    0    0 -0.21004664000E+03 -0.54916571854E+02 -0.48343927744E+02  0.27694323640E+03  0.16500000000E+03 0.  0.
<mgrwt>
<rscale>  0 0.57241107E+03</rscale>
<asrwt>0</asrwt>
<pdfrwt beam="1">  1        2 0.66734024E-01 0.57241107E+03</pdfrwt>
<pdfrwt beam="2">  1       -2 0.25050284E-01 0.57241107E+03</pdfrwt>
<totfact> 0.10380444E+03</totfact>
</mgrwt>
</event>
<event>
 4    1  0.5531008E-005  0.5022629E+03  0.7818608E-02  0.1013190E+00
         -2   -1    0    0    0  501 -0.00000000000E+00  0.00000000000E+00  0.94452477837E+02  0.94452477872E+02  0.25500000000E-02 0. -1.
          2   -1    0    0  501    0  0.00000000000E+00 -0.00000000000E+00 -0.66771149098E+03  0.66771149098E+03  0.25500000000E-02 0.  1.
    5000001    1    1    2    0    0  0.13839849767E+03  0.12912842377E+03 -0.28101063284E+03  0.37685576784E+03  0.16500000000E+03 0.  0.
   -5000001    1    1    2    0    0 -0.13839849767E+03 -0.12912842377E+03 -0.29224838030E+03  0.38530820102E+03  0.16500000000E+03 0.  0.
<mgrwt>
<rscale>  0 0.50226290E+03</rscale>
<asrwt>0</asrwt>
<pdfrwt beam="1">  1        2 0.95387353E-01 0.50226290E+03</pdfrwt>
<pdfrwt beam="2">  1       -2 0.13493211E-01 0.50226290E+03</pdfrwt>
<totfact> 0.19915612E+03</totfact>
</mgrwt>
</event>
<event>
 4    1  0.5531008E-005  0.4683575E+03  0.7818608E-02  0.1022385E+00
         -2   -1    0    0    0  501 -0.00000000000E+00  0.00000000000E+00  0.24148467158E+02  0.24148467292E+02  0.25500000000E-02 0. -1.
          2   -1    0    0  501    0  0.00000000000E+00 -0.00000000000E+00 -0.22709387498E+04  0.22709387498E+04  0.25500000000E-02 0.  1.
    5000001    1    1    2    0    0  0.16283753446E+03  0.32555696212E+02 -0.10928895180E+04  0.11176799338E+04  0.16500000000E+03 0.  0.
   -5000001    1    1    2    0    0 -0.16283753446E+03 -0.32555696212E+02 -0.11539007646E+04  0.11774072832E+04  0.16500000000E+03 0.  0.
<mgrwt>
<rscale>  0 0.46835751E+03</rscale>
<asrwt>0</asrwt>
<pdfrwt beam="1">  1        2 0.32441969E+00 0.46835751E+03</pdfrwt>
<pdfrwt beam="2">  1       -2 0.34497825E-02 0.46835751E+03</pdfrwt>
<totfact> 0.22109648E+03</totfact>
</mgrwt>
</event>
<event>
 4    1  0.5531008E-005  0.4407992E+03  0.7818608E-02  0.1030502E+00
         -2   -1    0    0    0  501 -0.00000000000E+00  0.00000000000E+00  0.17033479961E+03  0.17033479963E+03  0.25500000000E-02 0. -1.
          2   -1    0    0  501    0  0.00000000000E+00 -0.00000000000E+00 -0.28517938672E+03  0.28517938673E+03  0.25500000000E-02 0.  1.
    5000001    1    1    2    0    0 -0.91439422912E+02 -0.99300214435E+02 -0.11522961998E+03  0.24233152080E+03  0.16500000000E+03 0.  0.
   -5000001    1    1    2    0    0  0.91439422912E+02  0.99300214435E+02  0.38503287699E+00  0.21318266557E+03  0.16500000000E+03 0.  0.
<mgrwt>
<rscale>  0 0.44079915E+03</rscale>
<asrwt>0</asrwt>
<pdfrwt beam="1">  1        2 0.40739912E-01 0.44079915E+03</pdfrwt>
<pdfrwt beam="2">  1       -2 0.24333543E-01 0.44079915E+03</pdfrwt>
<totfact> 0.18834433E+03</totfact>
</mgrwt>
</event>
<event>
 4    1  0.5531008E-005  0.3798078E+03  0.7818608E-02  0.1051005E+00
          2   -1    0    0  501    0  0.00000000000E+00  0.00000000000E+00  0.77310577165E+03  0.77310577165E+03  0.25500000000E-02 0.  1.
         -2   -1    0    0    0  501 -0.00000000000E+00 -0.00000000000E+00 -0.46647552861E+02  0.46647552931E+02  0.25500000000E-02 0. -1.
    5000001    1    1    2    0    0 -0.92468914480E+02 -0.12420608824E+02  0.33827060023E+03  0.38775865000E+03  0.16500000000E+03 0.  0.
   -5000001    1    1    2    0    0  0.92468914480E+02  0.12420608824E+02  0.38818761856E+03  0.43199467458E+03  0.16500000000E+03 0.  0.
<mgrwt>
<rscale>  0 0.37980781E+03</rscale>
<asrwt>0</asrwt>
<pdfrwt beam="1">  1        2 0.11044368E+00 0.37980781E+03</pdfrwt>
<pdfrwt beam="2">  1       -2 0.66639361E-02 0.37980781E+03</pdfrwt>
<totfact> 0.51478339E+03</totfact>
</mgrwt>
</event>
<event>
 4    1  0.5531008E-005  0.5238343E+03  0.7818608E-02  0.1007738E+00
          2   -1    0    0  501    0  0.00000000000E+00  0.00000000000E+00  0.84141364932E+02  0.84141364971E+02  0.25500000000E-02 0.  1.
         -2   -1    0    0    0  501 -0.00000000000E+00 -0.00000000000E+00 -0.81530173714E+03  0.81530173715E+03  0.25500000000E-02 0. -1.
    5000001    1    1    2    0    0  0.16320339951E+03  0.12014031975E+03 -0.33551707504E+03  0.42528314531E+03  0.16500000000E+03 0.  0.
   -5000001    1    1    2    0    0 -0.16320339951E+03 -0.12014031975E+03 -0.39564329717E+03  0.47415995681E+03  0.16500000000E+03 0.  0.
<mgrwt>
<rscale>  0 0.52383433E+03</rscale>
<asrwt>0</asrwt>
<pdfrwt beam="1">  1        2 0.12020195E-01 0.52383433E+03</pdfrwt>
<pdfrwt beam="2">  1       -2 0.11647167E+00 0.52383433E+03</pdfrwt>
<totfact> 0.30500109E+02</totfact>
</mgrwt>
</event>
<event>
 4    1  0.5531008E-005  0.4729458E+03  0.7818608E-02  0.1021092E+00
         -2   -1    0    0    0  501 -0.00000000000E+00  0.00000000000E+00  0.22410523563E+02  0.22410523708E+02  0.25500000000E-02 0. -1.
          2   -1    0    0  501    0  0.00000000000E+00 -0.00000000000E+00 -0.24952313330E+04  0.24952313330E+04  0.25500000000E-02 0.  1.
    5000001    1    1    2    0    0 -0.51614126756E+02 -0.14852519758E+03 -0.90096994335E+03  0.92935224282E+03  0.16500000000E+03 0.  0.
   -5000001    1    1    2    0    0  0.51614126756E+02  0.14852519758E+03 -0.15718508660E+04  0.15882896139E+04  0.16500000000E+03 0.  0.
<mgrwt>
<rscale>  0 0.47294584E+03</rscale>
<asrwt>0</asrwt>
<pdfrwt beam="1">  1        2 0.35646144E+00 0.47294584E+03</pdfrwt>
<pdfrwt beam="2">  1       -2 0.32015050E-02 0.47294584E+03</pdfrwt>
<totfact> 0.19076242E+03</totfact>
</mgrwt>
</event>
<event>
 4    1  0.5531008E-005  0.6958410E+03  0.7818608E-02  0.9724371E-01
         -2   -1    0    0    0  501 -0.00000000000E+00  0.00000000000E+00  0.32503149933E+02  0.32503150033E+02  0.25500000000E-02 0. -1.
          2   -1    0    0  501    0  0.00000000000E+00 -0.00000000000E+00 -0.37242131626E+04  0.37242131626E+04  0.25500000000E-02 0.  1.
    5000001    1    1    2    0    0  0.47316976003E+02  0.28963025160E+03 -0.23195707665E+04  0.23438767288E+04  0.16500000000E+03 0.  0.
   -5000001    1    1    2    0    0 -0.47316976003E+02 -0.28963025160E+03 -0.13721392461E+04  0.14128395838E+04  0.16500000000E+03 0.  0.
<mgrwt>
<rscale>  0 0.69584096E+03</rscale>
<asrwt>0</asrwt>
<pdfrwt beam="1">  1        2 0.53203018E+00 0.69584096E+03</pdfrwt>
<pdfrwt beam="2">  1       -2 0.46433095E-02 0.69584096E+03</pdfrwt>
<totfact> 0.21789493E+02</totfact>
</mgrwt>
</event>
<event>
 4    1  0.5531008E-005  0.6490273E+03  0.7818608E-02  0.9808606E-01
         -2   -1    0    0    0  501 -0.00000000000E+00  0.00000000000E+00  0.21754131328E+03  0.21754131330E+03  0.25500000000E-02 0. -1.
          2   -1    0    0  501    0  0.00000000000E+00 -0.00000000000E+00 -0.48408780382E+03  0.48408780383E+03  0.25500000000E-02 0.  1.
    5000001    1    1    2    0    0 -0.18373449550E+03 -0.13295263482E+03  0.43203628105E+02  0.28377160081E+03  0.16500000000E+03 0.  0.
   -5000001    1    1    2    0    0  0.18373449550E+03  0.13295263482E+03 -0.30975011865E+03  0.41785751632E+03  0.16500000000E+03 0.  0.
<mgrwt>
<rscale>  0 0.64902726E+03</rscale>
<asrwt>0</asrwt>
<pdfrwt beam="1">  1        2 0.69155400E-01 0.64902726E+03</pdfrwt>
<pdfrwt beam="2">  1       -2 0.31077331E-01 0.64902726E+03</pdfrwt>
<totfact> 0.67173878E+02</totfact>
</mgrwt>
</event>
<event>
 4    1  0.5531008E-005  0.5765922E+03  0.7818608E-02  0.9955196E-01
         -2   -1    0    0    0  501 -0.00000000000E+00  0.00000000000E+00  0.13880744210E+03  0.13880744213E+03  0.25500000000E-02 0. -1.
          2   -1    0    0  501    0  0.00000000000E+00 -0.00000000000E+00 -0.59877648657E+03  0.59877648657E+03  0.25500000000E-02 0.  1.
    5000001    1    1    2    0    0  0.16763439788E+03  0.52342851591E+02 -0.27526892457E+02  0.24253617312E+03  0.16500000000E+03 0.  0.
   -5000001    1    1    2    0    0 -0.16763439788E+03 -0.52342851591E+02 -0.43244215201E+03  0.49504775557E+03  0.16500000000E+03 0.  0.
<mgrwt>
<rscale>  0 0.57659217E+03</rscale>
<asrwt>0</asrwt>
<pdfrwt beam="1">  1        2 0.85539497E-01 0.57659217E+03</pdfrwt>
<pdfrwt beam="2">  1       -2 0.19829635E-01 0.57659217E+03</pdfrwt>
<totfact> 0.11793437E+03</totfact>
</mgrwt>
</event>
<event>
 4    1  0.5531008E-005  0.4622728E+03  0.7818608E-02  0.1024124E+00
          2   -1    0    0  501    0  0.00000000000E+00  0.00000000000E+00  0.12640155386E+04  0.12640155386E+04  0.25500000000E-02 0.  1.
         -2   -1    0    0    0  501 -0.00000000000E+00 -0.00000000000E+00 -0.42265324020E+02  0.42265324097E+02  0.25500000000E-02 0. -1.
    5000001    1    1    2    0    0  0.15878982610E+03 -0.15278921290E+02  0.53341719662E+03  0.58069489404E+03  0.16500000000E+03 0.  0.
   -5000001    1    1    2    0    0 -0.15878982610E+03  0.15278921290E+02  0.68833301794E+03  0.72558596864E+03  0.16500000000E+03 0.  0.
<mgrwt>
<rscale>  0 0.46227276E+03</rscale>
<asrwt>0</asrwt>
<pdfrwt beam="1">  1        2 0.18057366E+00 0.46227276E+03</pdfrwt>
<pdfrwt beam="2">  1       -2 0.60379030E-02 0.46227276E+03</pdfrwt>
<totfact> 0.30398114E+03</totfact>
</mgrwt>
</event>
<event>
 4    1  0.5531008E-005  0.7209286E+03  0.7818608E-02  0.9682096E-01
          2   -1    0    0  501    0  0.00000000000E+00  0.00000000000E+00  0.75014396236E+03  0.75014396236E+03  0.25500000000E-02 0.  1.
         -2   -1    0    0    0  501 -0.00000000000E+00 -0.00000000000E+00 -0.17321276338E+03  0.17321276340E+03  0.25500000000E-02 0. -1.
    5000001    1    1    2    0    0  0.25489890447E+03  0.15821675955E+03  0.43282305054E+03  0.55187569940E+03  0.16500000000E+03 0.  0.
   -5000001    1    1    2    0    0 -0.25489890447E+03 -0.15821675955E+03  0.14410814844E+03  0.37148102637E+03  0.16500000000E+03 0.  0.
<mgrwt>
<rscale>  0 0.72092859E+03</rscale>
<asrwt>0</asrwt>
<pdfrwt beam="1">  1        2 0.10716342E+00 0.72092859E+03</pdfrwt>
<pdfrwt beam="2">  1       -2 0.24744680E-01 0.72092859E+03</pdfrwt>
<totfact> 0.60477591E+02</totfact>
</mgrwt>
</event>
<event>
 4    1  0.5531008E-005  0.5389383E+03  0.7818608E-02  0.1004087E+00
          2   -1    0    0  501    0  0.00000000000E+00  0.00000000000E+00  0.20115380382E+04  0.20115380382E+04  0.25500000000E-02 0.  1.
         -2   -1    0    0    0  501 -0.00000000000E+00 -0.00000000000E+00 -0.36098553447E+02  0.36098553537E+02  0.25500000000E-02 0. -1.
    5000001    1    1    2    0    0 -0.21065316293E+03 -0.62783844405E+01  0.86911788716E+03  0.90939819383E+03  0.16500000000E+03 0.  0.
   -5000001    1    1    2    0    0  0.21065316293E+03  0.62783844405E+01  0.11063215976E+04  0.11382383979E+04  0.16500000000E+03 0.  0.
<mgrwt>
<rscale>  0 0.53893827E+03</rscale>
<asrwt>0</asrwt>
<pdfrwt beam="1">  1        2 0.28736260E+00 0.53893827E+03</pdfrwt>
<pdfrwt beam="2">  1       -2 0.51569357E-02 0.53893827E+03</pdfrwt>
<totfact> 0.16033959E+03</totfact>
</mgrwt>
</event>
<event>
 4    1  0.5531008E-005  0.4254408E+03  0.7818608E-02  0.1035310E+00
         -2   -1    0    0    0  501 -0.00000000000E+00  0.00000000000E+00  0.54254546539E+02  0.54254546599E+02  0.25500000000E-02 0.  1.
          2   -1    0    0  501    0  0.00000000000E+00 -0.00000000000E+00 -0.83403084929E+03  0.83403084929E+03  0.25500000000E-02 0. -1.
    5000001    1    1    2    0    0  0.51527832491E+02 -0.11120019460E+03 -0.50433128191E+03  0.54460595178E+03  0.16500000000E+03 0.  0.
   -5000001    1    1    2    0    0 -0.51527832491E+02  0.11120019460E+03 -0.27544502084E+03  0.34367944411E+03  0.16500000000E+03 0.  0.
<mgrwt>
<rscale>  0 0.42544079E+03</rscale>
<asrwt>0</asrwt>
<pdfrwt beam="1">  1        2 0.11914726E+00 0.42544079E+03</pdfrwt>
<pdfrwt beam="2">  1       -2 0.77506500E-02 0.42544079E+03</pdfrwt>
<totfact> 0.36986122E+03</totfact>
</mgrwt>
</event>
<event>
 4    1  0.5531008E-005  0.3945738E+03  0.7818608E-02  0.1045675E+00
          2   -1    0    0  501    0  0.00000000000E+00  0.00000000000E+00  0.66037184356E+02  0.66037184405E+02  0.25500000000E-02 0.  1.
         -2   -1    0    0    0  501 -0.00000000000E+00 -0.00000000000E+00 -0.58939709648E+03  0.58939709648E+03  0.25500000000E-02 0. -1.
    5000001    1    1    2    0    0 -0.10777902830E+03 -0.40856815331E+01 -0.24837927296E+03  0.31709663349E+03  0.16500000000E+03 0.  0.
   -5000001    1    1    2    0    0  0.10777902830E+03  0.40856815331E+01 -0.27498063916E+03  0.33833764739E+03  0.16500000000E+03 0.  0.
<mgrwt>
<rscale>  0 0.39457382E+03</rscale>
<asrwt>0</asrwt>
<pdfrwt beam="1">  1        2 0.94338838E-02 0.39457382E+03</pdfrwt>
<pdfrwt beam="2">  1       -2 0.84199582E-01 0.39457382E+03</pdfrwt>
<totfact> 0.88277537E+02</totfact>
</mgrwt>
</event>
<event>
 4    1  0.5531008E-005  0.3352017E+03  0.7818608E-02  0.1068858E+00
         -2   -1    0    0    0  501 -0.00000000000E+00  0.00000000000E+00  0.28717553389E+03  0.28717553390E+03  0.25500000000E-02 0. -1.
          2   -1    0    0  501    0  0.00000000000E+00 -0.00000000000E+00 -0.97814905326E+02  0.97814905359E+02  0.25500000000E-02 0.  1.
    5000001    1    1    2    0    0 -0.24383786808E+02  0.13837034097E+02  0.84470948893E+02  0.18747366156E+03  0.16500000000E+03 0.  0.
   -5000001    1    1    2    0    0  0.24383786808E+02 -0.13837034097E+02  0.10488967967E+03  0.19751677770E+03  0.16500000000E+03 0.  0.
<mgrwt>
<rscale>  0 0.33520172E+03</rscale>
<asrwt>0</asrwt>
<pdfrwt beam="1">  1        2 0.13973558E-01 0.33520172E+03</pdfrwt>
<pdfrwt beam="2">  1       -2 0.41025077E-01 0.33520172E+03</pdfrwt>
<totfact> 0.24175126E+03</totfact>
</mgrwt>
</event>
<event>
 4    1  0.5531008E-005  0.4748947E+03  0.7818608E-02  0.1020548E+00
          2   -1    0    0  501    0  0.00000000000E+00  0.00000000000E+00  0.19105840742E+04  0.19105840742E+04  0.25500000000E-02 0.  1.
         -2   -1    0    0    0  501 -0.00000000000E+00 -0.00000000000E+00 -0.29509951173E+02  0.29509951283E+02  0.25500000000E-02 0. -1.
    5000001    1    1    2    0    0 -0.16256133410E+03 -0.51727172059E+02  0.97065643312E+03  0.99925011826E+03  0.16500000000E+03 0.  0.
   -5000001    1    1    2    0    0  0.16256133410E+03  0.51727172059E+02  0.91041768989E+03  0.94084390722E+03  0.16500000000E+03 0.  0.
<mgrwt>
<rscale>  0 0.47489470E+03</rscale>
<asrwt>0</asrwt>
<pdfrwt beam="1">  1        2 0.27294057E+00 0.47489470E+03</pdfrwt>
<pdfrwt beam="2">  1       -2 0.42157076E-02 0.47489470E+03</pdfrwt>
<totfact> 0.24626720E+03</totfact>
</mgrwt>
</event>
<event>
 4    1  0.5531008E-005  0.3893131E+03  0.7818608E-02  0.1047544E+00
          2   -1    0    0  501    0  0.00000000000E+00  0.00000000000E+00  0.14126854647E+03  0.14126854650E+03  0.25500000000E-02 0.  1.
         -2   -1    0    0    0  501 -0.00000000000E+00 -0.00000000000E+00 -0.26822081594E+03  0.26822081595E+03  0.25500000000E-02 0. -1.
    5000001    1    1    2    0    0 -0.65160485807E+02  0.80009099129E+02 -0.58913108742E+02  0.20333002542E+03  0.16500000000E+03 0.  0.
   -5000001    1    1    2    0    0  0.65160485807E+02 -0.80009099129E+02 -0.68039160726E+02  0.20615933703E+03  0.16500000000E+03 0.  0.
<mgrwt>
<rscale>  0 0.38931306E+03</rscale>
<asrwt>0</asrwt>
<pdfrwt beam="1">  1        2 0.20181221E-01 0.38931306E+03</pdfrwt>
<pdfrwt beam="2">  1       -2 0.38317259E-01 0.38931306E+03</pdfrwt>
<totfact> 0.17911653E+03</totfact>
</mgrwt>
</event>
<event>
 4    1  0.5531008E-005  0.5519539E+03  0.7818608E-02  0.1001043E+00
          2   -1    0    0  501    0  0.00000000000E+00  0.00000000000E+00  0.65037748373E+03  0.65037748373E+03  0.25500000000E-02 0.  1.
         -2   -1    0    0    0  501 -0.00000000000E+00 -0.00000000000E+00 -0.11710625307E+03  0.11710625310E+03  0.25500000000E-02 0. -1.
    5000001    1    1    2    0    0  0.15224920721E+03  0.56075219270E+01  0.48966444638E+03  0.53870913808E+03  0.16500000000E+03 0.  0.
   -5000001    1    1    2    0    0 -0.15224920721E+03 -0.56075219270E+01  0.43606784280E+02  0.22877459875E+03  0.16500000000E+03 0.  0.
<mgrwt>
<rscale>  0 0.55195388E+03</rscale>
<asrwt>0</asrwt>
<pdfrwt beam="1">  1        2 0.92911070E-01 0.55195388E+03</pdfrwt>
<pdfrwt beam="2">  1       -2 0.16729464E-01 0.55195388E+03</pdfrwt>
<totfact> 0.14324797E+03</totfact>
</mgrwt>
</event>
<event>
 4    1  0.5531008E-005  0.7172778E+03  0.7818608E-02  0.9688133E-01
          2   -1    0    0  501    0  0.00000000000E+00  0.00000000000E+00  0.28811964886E+04  0.28811964886E+04  0.25500000000E-02 0.  1.
         -2   -1    0    0    0  501 -0.00000000000E+00 -0.00000000000E+00 -0.44641820031E+02  0.44641820104E+02  0.25500000000E-02 0. -1.
    5000001    1    1    2    0    0 -0.10415276241E+03 -0.28447416427E+03  0.10181210620E+04  0.10749738811E+04  0.16500000000E+03 0.  0.
   -5000001    1    1    2    0    0  0.10415276241E+03  0.28447416427E+03  0.18184336066E+04  0.18508644277E+04  0.16500000000E+03 0.  0.
<mgrwt>
<rscale>  0 0.71727779E+03</rscale>
<asrwt>0</asrwt>
<pdfrwt beam="1">  1        2 0.41159951E+00 0.71727779E+03</pdfrwt>
<pdfrwt beam="2">  1       -2 0.63774027E-02 0.71727779E+03</pdfrwt>
<totfact> 0.40558432E+02</totfact>
</mgrwt>
</event>
<event>
 4    1  0.5531008E-005  0.5189257E+03  0.7818608E-02  0.1008954E+00
         -2   -1    0    0    0  501 -0.00000000000E+00  0.00000000000E+00  0.17444121801E+03  0.17444121803E+03  0.25500000000E-02 0. -1.
          2   -1    0    0  501    0  0.00000000000E+00 -0.00000000000E+00 -0.38592348447E+03  0.38592348448E+03  0.25500000000E-02 0.  1.
    5000001    1    1    2    0    0 -0.10901183680E+03 -0.49571306944E+02 -0.27904049536E+03  0.34558572466E+03  0.16500000000E+03 0.  0.
   -5000001    1    1    2    0    0  0.10901183680E+03  0.49571306944E+02  0.67558228900E+02  0.21477897785E+03  0.16500000000E+03 0.  0.
<mgrwt>
<rscale>  0 0.51892567E+03</rscale>
<asrwt>0</asrwt>
<pdfrwt beam="1">  1        2 0.55131926E-01 0.51892567E+03</pdfrwt>
<pdfrwt beam="2">  1       -2 0.24920174E-01 0.51892567E+03</pdfrwt>
<totfact> 0.12963452E+03</totfact>
</mgrwt>
</event>
<event>
 4    1  0.5531008E-005  0.5517803E+03  0.7818608E-02  0.1001083E+00
          2   -1    0    0  501    0  0.00000000000E+00  0.00000000000E+00  0.42595123800E+03  0.42595123801E+03  0.25500000000E-02 0.  1.
         -2   -1    0    0    0  501 -0.00000000000E+00 -0.00000000000E+00 -0.17869501896E+03  0.17869501898E+03  0.25500000000E-02 0. -1.
    5000001    1    1    2    0    0  0.15060520135E+03 -0.13142686593E+03  0.20044124522E+02  0.25996483356E+03  0.16500000000E+03 0.  0.
   -5000001    1    1    2    0    0 -0.15060520135E+03  0.13142686593E+03  0.22721209451E+03  0.34468142342E+03  0.16500000000E+03 0.  0.
<mgrwt>
<rscale>  0 0.55178026E+03</rscale>
<asrwt>0</asrwt>
<pdfrwt beam="1">  1        2 0.60850175E-01 0.55178026E+03</pdfrwt>
<pdfrwt beam="2">  1       -2 0.25527861E-01 0.55178026E+03</pdfrwt>
<totfact> 0.11127813E+03</totfact>
</mgrwt>
</event>
<event>
 4    1  0.5531008E-005  0.8786431E+03  0.7818608E-02  0.9452679E-01
          2   -1    0    0  501    0  0.00000000000E+00  0.00000000000E+00  0.17371119615E+04  0.17371119615E+04  0.25500000000E-02 0.  1.
         -2   -1    0    0    0  501 -0.00000000000E+00 -0.00000000000E+00 -0.11110592553E+03  0.11110592556E+03  0.25500000000E-02 0. -1.
    5000001    1    1    2    0    0 -0.58514472575E+02  0.10900716600E+03  0.16289621323E+04  0.16419650223E+04  0.16500000000E+03 0.  0.
   -5000001    1    1    2    0    0  0.58514472575E+02 -0.10900716600E+03 -0.29560963484E+01  0.20625286482E+03  0.16500000000E+03 0.  0.
<mgrwt>
<rscale>  0 0.87864312E+03</rscale>
<asrwt>0</asrwt>
<pdfrwt beam="1">  1        2 0.24815884E+00 0.87864312E+03</pdfrwt>
<pdfrwt beam="2">  1       -2 0.15872276E-01 0.87864312E+03</pdfrwt>
<totfact> 0.35145892E+02</totfact>
</mgrwt>
</event>
<event>
 4    1  0.5531008E-005  0.4032070E+03  0.7818608E-02  0.1042675E+00
          2   -1    0    0  501    0  0.00000000000E+00  0.00000000000E+00  0.34483375802E+03  0.34483375803E+03  0.25500000000E-02 0.  1.
         -2   -1    0    0    0  501 -0.00000000000E+00 -0.00000000000E+00 -0.11786539194E+03  0.11786539197E+03  0.25500000000E-02 0. -1.
    5000001    1    1    2    0    0 -0.71803753700E+02 -0.83850468155E+02  0.73200754854E+02  0.21158929691E+03  0.16500000000E+03 0.  0.
   -5000001    1    1    2    0    0  0.71803753700E+02  0.83850468155E+02  0.15376761123E+03  0.25110985309E+03  0.16500000000E+03 0.  0.
<mgrwt>
<rscale>  0 0.40320697E+03</rscale>
<asrwt>0</asrwt>
<pdfrwt beam="1">  1        2 0.49261965E-01 0.40320697E+03</pdfrwt>
<pdfrwt beam="2">  1       -2 0.16837913E-01 0.40320697E+03</pdfrwt>
<totfact> 0.28924168E+03</totfact>
</mgrwt>
</event>
<event>
 4    1  0.5531008E-005  0.5984546E+03  0.7818608E-02  0.9908617E-01
          2   -1    0    0  501    0  0.00000000000E+00  0.00000000000E+00  0.22467629424E+03  0.22467629425E+03  0.25500000000E-02 0.  1.
         -2   -1    0    0    0  501 -0.00000000000E+00 -0.00000000000E+00 -0.39851552255E+03  0.39851552256E+03  0.25500000000E-02 0. -1.
    5000001    1    1    2    0    0 -0.14430621092E+03 -0.14954888737E+03  0.57081774012E+02  0.27142675098E+03  0.16500000000E+03 0.  0.
   -5000001    1    1    2    0    0  0.14430621092E+03  0.14954888737E+03 -0.23092100232E+03  0.35176506583E+03  0.16500000000E+03 0.  0.
<mgrwt>
<rscale>  0 0.59845465E+03</rscale>
<asrwt>0</asrwt>
<pdfrwt beam="1">  1        2 0.32096614E-01 0.59845465E+03</pdfrwt>
<pdfrwt beam="2">  1       -2 0.56930789E-01 0.59845465E+03</pdfrwt>
<totfact> 0.48096502E+02</totfact>
</mgrwt>
</event>
<event>
 4    1  0.5531008E-005  0.4640225E+03  0.7818608E-02  0.1023621E+00
         -2   -1    0    0    0  501 -0.00000000000E+00  0.00000000000E+00  0.83035306131E+03  0.83035306131E+03  0.25500000000E-02 0. -1.
          2   -1    0    0  501    0  0.00000000000E+00 -0.00000000000E+00 -0.64826911303E+02  0.64826911353E+02  0.25500000000E-02 0.  1.
    5000001    1    1    2    0    0  0.11159816998E+03 -0.22780231187E+02  0.60799880815E+03  0.64020359355E+03  0.16500000000E+03 0.  0.
   -5000001    1    1    2    0    0 -0.11159816998E+03  0.22780231187E+02  0.15752734185E+03  0.25497637912E+03  0.16500000000E+03 0.  0.
<mgrwt>
<rscale>  0 0.46402252E+03</rscale>
<asrwt>0</asrwt>
<pdfrwt beam="1">  1        2 0.92609875E-02 0.46402252E+03</pdfrwt>
<pdfrwt beam="2">  1       -2 0.11862186E+00 0.46402252E+03</pdfrwt>
<totfact> 0.40512340E+02</totfact>
</mgrwt>
</event>
<event>
 4    1  0.5531008E-005  0.6298676E+03  0.7818608E-02  0.9845307E-01
         -2   -1    0    0    0  501 -0.00000000000E+00  0.00000000000E+00  0.46259781218E+02  0.46259781289E+02  0.25500000000E-02 0. -1.
          2   -1    0    0  501    0  0.00000000000E+00 -0.00000000000E+00 -0.21440500157E+04  0.21440500157E+04  0.25500000000E-02 0.  1.
    5000001    1    1    2    0    0 -0.19468356805E+03  0.11740901332E+03 -0.15440049714E+04  0.15693511142E+04  0.16500000000E+03 0.  0.
   -5000001    1    1    2    0    0  0.19468356805E+03 -0.11740901332E+03 -0.55378526313E+03  0.62095868279E+03  0.16500000000E+03 0.  0.
<mgrwt>
<rscale>  0 0.62986756E+03</rscale>
<asrwt>0</asrwt>
<pdfrwt beam="1">  1        2 0.30629280E+00 0.62986756E+03</pdfrwt>
<pdfrwt beam="2">  1       -2 0.66085415E-02 0.62986756E+03</pdfrwt>
<totfact> 0.92897832E+02</totfact>
</mgrwt>
</event>
<event>
 4    1  0.5531008E-005  0.4103242E+03  0.7818608E-02  0.1040262E+00
          2   -1    0    0  501    0  0.00000000000E+00  0.00000000000E+00  0.13449009155E+04  0.13449009155E+04  0.25500000000E-02 0.  1.
         -2   -1    0    0    0  501 -0.00000000000E+00 -0.00000000000E+00 -0.31297096837E+02  0.31297096941E+02  0.25500000000E-02 0. -1.
    5000001    1    1    2    0    0 -0.10696658081E+03 -0.51894222688E+02  0.56608236759E+03  0.60150569960E+03  0.16500000000E+03 0.  0.
   -5000001    1    1    2    0    0  0.10696658081E+03  0.51894222688E+02  0.74752145109E+03  0.77469231286E+03  0.16500000000E+03 0.  0.
<mgrwt>
<rscale>  0 0.41032423E+03</rscale>
<asrwt>0</asrwt>
<pdfrwt beam="1">  1        2 0.19212873E+00 0.41032423E+03</pdfrwt>
<pdfrwt beam="2">  1       -2 0.44710132E-02 0.41032423E+03</pdfrwt>
<totfact> 0.43709566E+03</totfact>
</mgrwt>
</event>
<event>
 4    1  0.5531008E-005  0.7185849E+03  0.7818608E-02  0.9685967E-01
         -2   -1    0    0    0  501 -0.00000000000E+00  0.00000000000E+00  0.62780632969E+02  0.62780633021E+02  0.25500000000E-02 0. -1.
          2   -1    0    0  501    0  0.00000000000E+00 -0.00000000000E+00 -0.20562241385E+04  0.20562241385E+04  0.25500000000E-02 0.  1.
    5000001    1    1    2    0    0 -0.20698466631E+03 -0.14467591196E+03 -0.42118593137E+03  0.51806984121E+03  0.16500000000E+03 0.  0.
   -5000001    1    1    2    0    0  0.20698466631E+03  0.14467591196E+03 -0.15722575741E+04  0.16009349303E+04  0.16500000000E+03 0.  0.
<mgrwt>
<rscale>  0 0.71858487E+03</rscale>
<asrwt>0</asrwt>
<pdfrwt beam="1">  1        2 0.29374626E+00 0.71858487E+03</pdfrwt>
<pdfrwt beam="2">  1       -2 0.89686632E-02 0.71858487E+03</pdfrwt>
<totfact> 0.62876265E+02</totfact>
</mgrwt>
</event>
<event>
 4    1  0.5531008E-005  0.4315778E+03  0.7818608E-02  0.1033363E+00
          2   -1    0    0  501    0  0.00000000000E+00  0.00000000000E+00  0.23799667525E+03  0.23799667526E+03  0.25500000000E-02 0.  1.
         -2   -1    0    0    0  501 -0.00000000000E+00 -0.00000000000E+00 -0.19565337998E+03  0.19565338000E+03  0.25500000000E-02 0. -1.
    5000001    1    1    2    0    0  0.20167256504E+02 -0.13718303667E+03  0.10445648657E+02  0.21577769894E+03  0.16500000000E+03 0.  0.
   -5000001    1    1    2    0    0 -0.20167256504E+02  0.13718303667E+03  0.31897646609E+02  0.21787235631E+03  0.16500000000E+03 0.  0.
<mgrwt>
<rscale>  0 0.43157782E+03</rscale>
<asrwt>0</asrwt>
<pdfrwt beam="1">  1        2 0.33999525E-01 0.43157782E+03</pdfrwt>
<pdfrwt beam="2">  1       -2 0.27950483E-01 0.43157782E+03</pdfrwt>
<totfact> 0.17913336E+03</totfact>
</mgrwt>
</event>
<event>
 4    1  0.5531008E-005  0.4809943E+03  0.7818608E-02  0.1018862E+00
         -2   -1    0    0    0  501 -0.00000000000E+00  0.00000000000E+00  0.39568096612E+03  0.39568096613E+03  0.25500000000E-02 0. -1.
          2   -1    0    0  501    0  0.00000000000E+00 -0.00000000000E+00 -0.14617555088E+03  0.14617555090E+03  0.25500000000E-02 0.  1.
    5000001    1    1    2    0    0  0.80773748918E+02  0.88862312291E+02  0.26810599852E+03  0.33693728719E+03  0.16500000000E+03 0.  0.
   -5000001    1    1    2    0    0 -0.80773748918E+02 -0.88862312291E+02 -0.18600583276E+02  0.20491922984E+03  0.16500000000E+03 0.  0.
<mgrwt>
<rscale>  0 0.48099432E+03</rscale>
<asrwt>0</asrwt>
<pdfrwt beam="1">  1        2 0.20882222E-01 0.48099432E+03</pdfrwt>
<pdfrwt beam="2">  1       -2 0.56525851E-01 0.48099432E+03</pdfrwt>
<totfact> 0.79654876E+02</totfact>
</mgrwt>
</event>
<event>
 4    1  0.5531008E-005  0.4934697E+03  0.7818608E-02  0.1015498E+00
         -2   -1    0    0    0  501 -0.00000000000E+00  0.00000000000E+00  0.96195733400E+03  0.96195733400E+03  0.25500000000E-02 0. -1.
          2   -1    0    0  501    0  0.00000000000E+00 -0.00000000000E+00 -0.63285645314E+02  0.63285645365E+02  0.25500000000E-02 0.  1.
    5000001    1    1    2    0    0 -0.49105768138E+02  0.10004716099E+03  0.75207222260E+03  0.77798357238E+03  0.16500000000E+03 0.  0.
   -5000001    1    1    2    0    0  0.49105768138E+02 -0.10004716099E+03  0.14659946608E+03  0.24725940699E+03  0.16500000000E+03 0.  0.
<mgrwt>
<rscale>  0 0.49346972E+03</rscale>
<asrwt>0</asrwt>
<pdfrwt beam="1">  1        2 0.90408075E-02 0.49346972E+03</pdfrwt>
<pdfrwt beam="2">  1       -2 0.13742246E+00 0.49346972E+03</pdfrwt>
<totfact> 0.28922511E+02</totfact>
</mgrwt>
</event>
<event>
 4    1  0.5531008E-005  0.5012260E+03  0.7818608E-02  0.1013459E+00
         -2   -1    0    0    0  501 -0.00000000000E+00  0.00000000000E+00  0.42809208714E+02  0.42809208790E+02  0.25500000000E-02 0.  1.
          2   -1    0    0  501    0  0.00000000000E+00 -0.00000000000E+00 -0.14671344852E+04  0.14671344852E+04  0.25500000000E-02 0. -1.
    5000001    1    1    2    0    0 -0.59076276392E+02  0.12863604486E+03 -0.10877555264E+04  0.11092674717E+04  0.16500000000E+03 0.  0.
   -5000001    1    1    2    0    0  0.59076276392E+02 -0.12863604486E+03 -0.33656975007E+03  0.40067622232E+03  0.16500000000E+03 0.  0.
<mgrwt>
<rscale>  0 0.50122596E+03</rscale>
<asrwt>0</asrwt>
<pdfrwt beam="1">  1        2 0.20959061E+00 0.50122596E+03</pdfrwt>
<pdfrwt beam="2">  1       -2 0.61156022E-02 0.50122596E+03</pdfrwt>
<totfact> 0.23233784E+03</totfact>
</mgrwt>
</event>
<event>
 4    1  0.5531008E-005  0.5510092E+03  0.7818608E-02  0.1001261E+00
          2   -1    0    0  501    0  0.00000000000E+00  0.00000000000E+00  0.11905268091E+04  0.11905268091E+04  0.25500000000E-02 0.  1.
         -2   -1    0    0    0  501 -0.00000000000E+00 -0.00000000000E+00 -0.63755638354E+02  0.63755638405E+02  0.25500000000E-02 0. -1.
    5000001    1    1    2    0    0  0.37611690306E+01  0.22050692289E+03  0.54892640613E+03  0.61415197532E+03  0.16500000000E+03 0.  0.
   -5000001    1    1    2    0    0 -0.37611690306E+01 -0.22050692289E+03  0.57784476457E+03  0.64013047215E+03  0.16500000000E+03 0.  0.
<mgrwt>
<rscale>  0 0.55100924E+03</rscale>
<asrwt>0</asrwt>
<pdfrwt beam="1">  1        2 0.17007525E+00 0.55100924E+03</pdfrwt>
<pdfrwt beam="2">  1       -2 0.91079489E-02 0.55100924E+03</pdfrwt>
<totfact> 0.17412802E+03</totfact>
</mgrwt>
</event>
<event>
 4    1  0.5531008E-005  0.8557714E+03  0.7818608E-02  0.9482623E-01
         -2   -1    0    0    0  501 -0.00000000000E+00  0.00000000000E+00  0.30061605619E+03  0.30061605620E+03  0.25500000000E-02 0.  1.
          2   -1    0    0  501    0  0.00000000000E+00 -0.00000000000E+00 -0.60903662580E+03  0.60903662581E+03  0.25500000000E-02 0. -1.
    5000001    1    1    2    0    0 -0.34431258715E+03  0.19276236871E+03 -0.16734550739E+03  0.45927987905E+03  0.16500000000E+03 0.  0.
   -5000001    1    1    2    0    0  0.34431258715E+03 -0.19276236871E+03 -0.14107506223E+03  0.45037280296E+03  0.16500000000E+03 0.  0.
<mgrwt>
<rscale>  0 0.85577144E+03</rscale>
<asrwt>0</asrwt>
<pdfrwt beam="1">  1        2 0.87005232E-01 0.85577144E+03</pdfrwt>
<pdfrwt beam="2">  1       -2 0.42945151E-01 0.85577144E+03</pdfrwt>
<totfact> 0.27498733E+02</totfact>
</mgrwt>
</event>
<event>
 4    1  0.5531008E-005  0.5782764E+03  0.7818608E-02  0.9951530E-01
          2   -1    0    0  501    0  0.00000000000E+00  0.00000000000E+00  0.98505388340E+03  0.98505388340E+03  0.25500000000E-02 0.  1.
         -2   -1    0    0    0  501 -0.00000000000E+00 -0.00000000000E+00 -0.84869368712E+02  0.84869368751E+02  0.25500000000E-02 0. -1.
    5000001    1    1    2    0    0 -0.19703266856E+03 -0.85282671627E+02  0.63769215882E+03  0.69279960738E+03  0.16500000000E+03 0.  0.
   -5000001    1    1    2    0    0  0.19703266856E+03  0.85282671627E+02  0.26249235586E+03  0.37712364477E+03  0.16500000000E+03 0.  0.
<mgrwt>
<rscale>  0 0.57827641E+03</rscale>
<asrwt>0</asrwt>
<pdfrwt beam="1">  1        2 0.14072198E+00 0.57827641E+03</pdfrwt>
<pdfrwt beam="2">  1       -2 0.12124196E-01 0.57827641E+03</pdfrwt>
<totfact> 0.14415561E+03</totfact>
</mgrwt>
</event>
<event>
 4    1  0.5531008E-005  0.6274061E+03  0.7818608E-02  0.9850124E-01
         -2   -1    0    0    0  501 -0.00000000000E+00  0.00000000000E+00  0.20876409762E+03  0.20876409764E+03  0.25500000000E-02 0. -1.
          2   -1    0    0  501    0  0.00000000000E+00 -0.00000000000E+00 -0.47139138509E+03  0.47139138510E+03  0.25500000000E-02 0.  1.
    5000001    1    1    2    0    0 -0.26522774382E+03 -0.21035859888E+02 -0.15289555749E+03  0.34841112926E+03  0.16500000000E+03 0.  0.
   -5000001    1    1    2    0    0  0.26522774382E+03  0.21035859888E+02 -0.10973172998E+03  0.33174435347E+03  0.16500000000E+03 0.  0.
<mgrwt>
<rscale>  0 0.62740608E+03</rscale>
<asrwt>0</asrwt>
<pdfrwt beam="1">  1        2 0.67341626E-01 0.62740608E+03</pdfrwt>
<pdfrwt beam="2">  1       -2 0.29823443E-01 0.62740608E+03</pdfrwt>
<totfact> 0.74749073E+02</totfact>
</mgrwt>
</event>
<event>
 4    1  0.5531008E-005  0.4877976E+03  0.7818608E-02  0.1017014E+00
          2   -1    0    0  501    0  0.00000000000E+00  0.00000000000E+00  0.98772264878E+02  0.98772264910E+02  0.25500000000E-02 0.  1.
         -2   -1    0    0    0  501 -0.00000000000E+00 -0.00000000000E+00 -0.60226052076E+03  0.60226052077E+03  0.25500000000E-02 0. -1.
    5000001    1    1    2    0    0 -0.16350883525E+03  0.29839639761E+02 -0.15389100943E+03  0.28023737454E+03  0.16500000000E+03 0.  0.
   -5000001    1    1    2    0    0  0.16350883525E+03 -0.29839639761E+02 -0.34959724645E+03  0.42079541113E+03  0.16500000000E+03 0.  0.
<mgrwt>
<rscale>  0 0.48779765E+03</rscale>
<asrwt>0</asrwt>
<pdfrwt beam="1">  1        2 0.14110324E-01 0.48779765E+03</pdfrwt>
<pdfrwt beam="2">  1       -2 0.86037215E-01 0.48779765E+03</pdfrwt>
<totfact> 0.51078656E+02</totfact>
</mgrwt>
</event>
<event>
 4    1  0.5531008E-005  0.8335040E+03  0.7818608E-02  0.9512749E-01
          2   -1    0    0  501    0  0.00000000000E+00  0.00000000000E+00  0.16974261398E+04  0.16974261398E+04  0.25500000000E-02 0.  1.
         -2   -1    0    0    0  501 -0.00000000000E+00 -0.00000000000E+00 -0.10232092400E+03  0.10232092403E+03  0.25500000000E-02 0. -1.
    5000001    1    1    2    0    0 -0.80916298943E+02  0.35647256796E+03  0.10421978623E+04  0.11167011790E+04  0.16500000000E+03 0.  0.
   -5000001    1    1    2    0    0  0.80916298943E+02 -0.35647256796E+03  0.55290735356E+03  0.68304588482E+03  0.16500000000E+03 0.  0.
<mgrwt>
<rscale>  0 0.83350396E+03</rscale>
<asrwt>0</asrwt>
<pdfrwt beam="1">  1        2 0.24248944E+00 0.83350396E+03</pdfrwt>
<pdfrwt beam="2">  1       -2 0.14617276E-01 0.83350396E+03</pdfrwt>
<totfact> 0.42474826E+02</totfact>
</mgrwt>
</event>
<event>
 4    1  0.5531008E-005  0.4591687E+03  0.7818608E-02  0.1025023E+00
          2   -1    0    0  501    0  0.00000000000E+00  0.00000000000E+00  0.39831104237E+03  0.39831104238E+03  0.25500000000E-02 0.  1.
         -2   -1    0    0    0  501 -0.00000000000E+00 -0.00000000000E+00 -0.13233118261E+03  0.13233118264E+03  0.25500000000E-02 0. -1.
    5000001    1    1    2    0    0 -0.49894180836E+02 -0.15149704730E+03  0.14058452113E+03  0.26912783617E+03  0.16500000000E+03 0.  0.
   -5000001    1    1    2    0    0  0.49894180836E+02  0.15149704730E+03  0.12539533863E+03  0.26151438884E+03  0.16500000000E+03 0.  0.
<mgrwt>
<rscale>  0 0.45916869E+03</rscale>
<asrwt>0</asrwt>
<pdfrwt beam="1">  1        2 0.56901577E-01 0.45916869E+03</pdfrwt>
<pdfrwt beam="2">  1       -2 0.18904455E-01 0.45916869E+03</pdfrwt>
<totfact> 0.20307656E+03</totfact>
</mgrwt>
</event>
<event>
 4    1  0.5531008E-005  0.6461476E+03  0.7818608E-02  0.9814035E-01
         -2   -1    0    0    0  501 -0.00000000000E+00  0.00000000000E+00  0.15374113743E+03  0.15374113745E+03  0.25500000000E-02 0. -1.
          2   -1    0    0  501    0  0.00000000000E+00 -0.00000000000E+00 -0.67891175905E+03  0.67891175905E+03  0.25500000000E-02 0.  1.
    5000001    1    1    2    0    0 -0.46123073486E+02  0.21077274831E+03 -0.48800256848E+03  0.55850156327E+03  0.16500000000E+03 0.  0.
   -5000001    1    1    2    0    0  0.46123073486E+02 -0.21077274831E+03 -0.37168053147E+02  0.27415133323E+03  0.16500000000E+03 0.  0.
<mgrwt>
<rscale>  0 0.64614756E+03</rscale>
<asrwt>0</asrwt>
<pdfrwt beam="1">  1        2 0.96987392E-01 0.64614756E+03</pdfrwt>
<pdfrwt beam="2">  1       -2 0.21963020E-01 0.64614756E+03</pdfrwt>
<totfact> 0.84775801E+02</totfact>
</mgrwt>
</event>
<event>
 4    1  0.5531008E-005  0.3934127E+03  0.7818608E-02  0.1046085E+00
          2   -1    0    0  501    0  0.00000000000E+00  0.00000000000E+00  0.14957309908E+03  0.14957309910E+03  0.25500000000E-02 0.  1.
         -2   -1    0    0    0  501 -0.00000000000E+00 -0.00000000000E+00 -0.25869217782E+03  0.25869217784E+03  0.25500000000E-02 0. -1.
    5000001    1    1    2    0    0 -0.65876868613E+02 -0.65950627656E+02 -0.10926737730E+03  0.21875467275E+03  0.16500000000E+03 0.  0.
   -5000001    1    1    2    0    0  0.65876868613E+02  0.65950627656E+02  0.14829855535E+00  0.18951060419E+03  0.16500000000E+03 0.  0.
<mgrwt>
<rscale>  0 0.39341271E+03</rscale>
<asrwt>0</asrwt>
<pdfrwt beam="1">  1        2 0.21367586E-01 0.39341271E+03</pdfrwt>
<pdfrwt beam="2">  1       -2 0.36956025E-01 0.39341271E+03</pdfrwt>
<totfact> 0.17968312E+03</totfact>
</mgrwt>
</event>
<event>
 4    1  0.5531008E-005  0.8560683E+03  0.7818608E-02  0.9482228E-01
         -2   -1    0    0    0  501 -0.00000000000E+00  0.00000000000E+00  0.26612503749E+04  0.26612503749E+04  0.25500000000E-02 0. -1.
          2   -1    0    0  501    0  0.00000000000E+00 -0.00000000000E+00 -0.68844785945E+02  0.68844785992E+02  0.25500000000E-02 0.  1.
    5000001    1    1    2    0    0  0.13186335080E+03 -0.33097110169E+03  0.18398350742E+04  0.18812623192E+04  0.16500000000E+03 0.  0.
   -5000001    1    1    2    0    0 -0.13186335080E+03  0.33097110169E+03  0.75257051476E+03  0.84883284169E+03  0.16500000000E+03 0.  0.
<mgrwt>
<rscale>  0 0.85606825E+03</rscale>
<asrwt>0</asrwt>
<pdfrwt beam="1">  1        2 0.98349699E-02 0.85606825E+03</pdfrwt>
<pdfrwt beam="2">  1       -2 0.38017861E+00 0.85606825E+03</pdfrwt>
<totfact> 0.71053122E+00</totfact>
</mgrwt>
</event>
<event>
 4    1  0.5531008E-005  0.1050285E+04  0.7818608E-02  0.9255050E-01
          2   -1    0    0  501    0  0.00000000000E+00  0.00000000000E+00  0.37924205033E+04  0.37924205033E+04  0.25500000000E-02 0.  1.
         -2   -1    0    0    0  501 -0.00000000000E+00 -0.00000000000E+00 -0.72717340003E+02  0.72717340048E+02  0.25500000000E-02 0. -1.
    5000001    1    1    2    0    0  0.28592986570E+03 -0.32589419857E+03  0.95402134014E+03  0.10608226215E+04  0.16500000000E+03 0.  0.
   -5000001    1    1    2    0    0 -0.28592986570E+03  0.32589419857E+03  0.27656818232E+04  0.28043152219E+04  0.16500000000E+03 0.  0.
<mgrwt>
<rscale>  0 0.10502852E+04</rscale>
<asrwt>0</asrwt>
<pdfrwt beam="1">  1        2 0.54177421E+00 0.10502852E+04</pdfrwt>
<pdfrwt beam="2">  1       -2 0.10388194E-01 0.10502852E+04</pdfrwt>
<totfact> 0.52476973E+01</totfact>
</mgrwt>
</event>
<event>
 4    1  0.5531008E-005  0.4054173E+03  0.7818608E-02  0.1041920E+00
          2   -1    0    0  501    0  0.00000000000E+00  0.00000000000E+00  0.36079792366E+03  0.36079792367E+03  0.25500000000E-02 0.  1.
         -2   -1    0    0    0  501 -0.00000000000E+00 -0.00000000000E+00 -0.11388866053E+03  0.11388866056E+03  0.25500000000E-02 0. -1.
    5000001    1    1    2    0    0 -0.62005258845E+02 -0.92085680821E+02  0.77486398940E+02  0.21343281556E+03  0.16500000000E+03 0.  0.
   -5000001    1    1    2    0    0  0.62005258845E+02  0.92085680821E+02  0.16942286419E+03  0.26125376868E+03  0.16500000000E+03 0.  0.
<mgrwt>
<rscale>  0 0.40541728E+03</rscale>
<asrwt>0</asrwt>
<pdfrwt beam="1">  1        2 0.51542560E-01 0.40541728E+03</pdfrwt>
<pdfrwt beam="2">  1       -2 0.16269809E-01 0.40541728E+03</pdfrwt>
<totfact> 0.29172855E+03</totfact>
</mgrwt>
</event>
<event>
 4    1  0.5531008E-005  0.6856254E+03  0.7818608E-02  0.9742135E-01
         -2   -1    0    0    0  501 -0.00000000000E+00  0.00000000000E+00  0.16296154903E+03  0.16296154905E+03  0.25500000000E-02 0.  1.
          2   -1    0    0  501    0  0.00000000000E+00 -0.00000000000E+00 -0.72115499847E+03  0.72115499847E+03  0.25500000000E-02 0. -1.
    5000001    1    1    2    0    0 -0.59404983297E+02 -0.26489210261E+03 -0.44523145607E+03  0.54694865165E+03  0.16500000000E+03 0.  0.
   -5000001    1    1    2    0    0  0.59404983297E+02  0.26489210261E+03 -0.11296199337E+03  0.33716789588E+03  0.16500000000E+03 0.  0.
<mgrwt>
<rscale>  0 0.68562537E+03</rscale>
<asrwt>0</asrwt>
<pdfrwt beam="1">  1        2 0.10302214E+00 0.68562537E+03</pdfrwt>
<pdfrwt beam="2">  1       -2 0.23280222E-01 0.68562537E+03</pdfrwt>
<totfact> 0.70928025E+02</totfact>
</mgrwt>
</event>
<event>
 4    1  0.5531008E-005  0.3854287E+03  0.7818608E-02  0.1048945E+00
          2   -1    0    0  501    0  0.00000000000E+00  0.00000000000E+00  0.30787550912E+02  0.30787551018E+02  0.25500000000E-02 0.  1.
         -2   -1    0    0    0  501 -0.00000000000E+00 -0.00000000000E+00 -0.12062934703E+04  0.12062934703E+04  0.25500000000E-02 0. -1.
    5000001    1    1    2    0    0 -0.57132513149E+02 -0.75124616500E+02 -0.48595224163E+03  0.52180687348E+03  0.16500000000E+03 0.  0.
   -5000001    1    1    2    0    0  0.57132513149E+02  0.75124616500E+02 -0.68955367776E+03  0.71527414785E+03  0.16500000000E+03 0.  0.
<mgrwt>
<rscale>  0 0.38542871E+03</rscale>
<asrwt>0</asrwt>
<pdfrwt beam="1">  1        2 0.43982223E-02 0.38542871E+03</pdfrwt>
<pdfrwt beam="2">  1       -2 0.17232761E+00 0.38542871E+03</pdfrwt>
<totfact> 0.41085378E+02</totfact>
</mgrwt>
</event>
<event>
 4    1  0.5531008E-005  0.6799248E+03  0.7818608E-02  0.9752193E-01
         -2   -1    0    0    0  501 -0.00000000000E+00  0.00000000000E+00  0.46011019084E+02  0.46011019154E+02  0.25500000000E-02 0. -1.
          2   -1    0    0  501    0  0.00000000000E+00 -0.00000000000E+00 -0.25118861081E+04  0.25118861081E+04  0.25500000000E-02 0.  1.
    5000001    1    1    2    0    0  0.25390866601E+03  0.15433517395E+03 -0.12036798976E+04  0.12507434799E+04  0.16500000000E+03 0.  0.
   -5000001    1    1    2    0    0 -0.25390866601E+03 -0.15433517395E+03 -0.12621951914E+04  0.13071536473E+04  0.16500000000E+03 0.  0.
<mgrwt>
<rscale>  0 0.67992482E+03</rscale>
<asrwt>0</asrwt>
<pdfrwt beam="1">  1        2 0.35884079E+00 0.67992482E+03</pdfrwt>
<pdfrwt beam="2">  1       -2 0.65730043E-02 0.67992482E+03</pdfrwt>
<totfact> 0.60677600E+02</totfact>
</mgrwt>
</event>
<event>
 4    1  0.5531008E-005  0.7203596E+03  0.7818608E-02  0.9683034E-01
          2   -1    0    0  501    0  0.00000000000E+00  0.00000000000E+00  0.21875234702E+03  0.21875234704E+03  0.25500000000E-02 0.  1.
         -2   -1    0    0    0  501 -0.00000000000E+00 -0.00000000000E+00 -0.59304270367E+03  0.59304270368E+03  0.25500000000E-02 0. -1.
    5000001    1    1    2    0    0 -0.65793242497E+02  0.75258745188E+02  0.15561925491E+03  0.24786081172E+03  0.16500000000E+03 0.  0.
   -5000001    1    1    2    0    0  0.65793242497E+02 -0.75258745188E+02 -0.52990961156E+03  0.56393423900E+03  0.16500000000E+03 0.  0.
<mgrwt>
<rscale>  0 0.72035959E+03</rscale>
<asrwt>0</asrwt>
<pdfrwt beam="1">  1        2 0.31250336E-01 0.72035959E+03</pdfrwt>
<pdfrwt beam="2">  1       -2 0.84720385E-01 0.72035959E+03</pdfrwt>
<totfact> 0.20820646E+02</totfact>
</mgrwt>
</event>
<event>
 4    1  0.5531008E-005  0.4550379E+03  0.7818608E-02  0.1026230E+00
         -2   -1    0    0    0  501 -0.00000000000E+00  0.00000000000E+00  0.58749580373E+02  0.58749580428E+02  0.25500000000E-02 0. -1.
          2   -1    0    0  501    0  0.00000000000E+00 -0.00000000000E+00 -0.88111069032E+03  0.88111069033E+03  0.25500000000E-02 0.  1.
    5000001    1    1    2    0    0  0.80762416399E+02 -0.12373008857E+03 -0.30369391437E+03  0.37588122638E+03  0.16500000000E+03 0.  0.
   -5000001    1    1    2    0    0 -0.80762416399E+02  0.12373008857E+03 -0.51866719558E+03  0.56397904438E+03  0.16500000000E+03 0.  0.
<mgrwt>
<rscale>  0 0.45503795E+03</rscale>
<asrwt>0</asrwt>
<pdfrwt beam="1">  1        2 0.12587295E+00 0.45503795E+03</pdfrwt>
<pdfrwt beam="2">  1       -2 0.83927977E-02 0.45503795E+03</pdfrwt>
<totfact> 0.30385033E+03</totfact>
</mgrwt>
</event>
<event>
 4    1  0.5531008E-005  0.9954746E+03  0.7818608E-02  0.9313522E-01
          2   -1    0    0  501    0  0.00000000000E+00  0.00000000000E+00  0.99510418270E+03  0.99510418270E+03  0.25500000000E-02 0.  1.
         -2   -1    0    0    0  501 -0.00000000000E+00 -0.00000000000E+00 -0.24896131258E+03  0.24896131260E+03  0.25500000000E-02 0. -1.
    5000001    1    1    2    0    0 -0.42910842024E+03 -0.10671193064E+03  0.17548913025E+03  0.50353044327E+03  0.16500000000E+03 0.  0.
   -5000001    1    1    2    0    0  0.42910842024E+03  0.10671193064E+03  0.57065373987E+03  0.74053505203E+03  0.16500000000E+03 0.  0.
<mgrwt>
<rscale>  0 0.99547465E+03</rscale>
<asrwt>0</asrwt>
<pdfrwt beam="1">  1        2 0.14215774E+00 0.99547465E+03</pdfrwt>
<pdfrwt beam="2">  1       -2 0.35565901E-01 0.99547465E+03</pdfrwt>
<totfact> 0.20934558E+02</totfact>
</mgrwt>
</event>
<event>
 4    1  0.5531008E-005  0.4453486E+03  0.7818608E-02  0.1029118E+00
          2   -1    0    0  501    0  0.00000000000E+00  0.00000000000E+00  0.29106170940E+03  0.29106170941E+03  0.25500000000E-02 0.  1.
         -2   -1    0    0    0  501 -0.00000000000E+00 -0.00000000000E+00 -0.17035506228E+03  0.17035506230E+03  0.25500000000E-02 0. -1.
    5000001    1    1    2    0    0 -0.13637295030E+03 -0.61128262678E+02  0.65491023840E+02  0.23205240847E+03  0.16500000000E+03 0.  0.
   -5000001    1    1    2    0    0  0.13637295030E+03  0.61128262678E+02  0.55215623277E+02  0.22936436324E+03  0.16500000000E+03 0.  0.
<mgrwt>
<rscale>  0 0.44534856E+03</rscale>
<asrwt>0</asrwt>
<pdfrwt beam="1">  1        2 0.41580244E-01 0.44534856E+03</pdfrwt>
<pdfrwt beam="2">  1       -2 0.24336438E-01 0.44534856E+03</pdfrwt>
<totfact> 0.18416236E+03</totfact>
</mgrwt>
</event>
<event>
 4    1  0.5531008E-005  0.3992222E+03  0.7818608E-02  0.1044049E+00
          2   -1    0    0  501    0  0.00000000000E+00  0.00000000000E+00  0.94106104628E+03  0.94106104628E+03  0.25500000000E-02 0. -1.
         -2   -1    0    0    0  501 -0.00000000000E+00 -0.00000000000E+00 -0.42340074205E+02  0.42340074282E+02  0.25500000000E-02 0.  1.
    5000001    1    1    2    0    0  0.70144475013E+02  0.80661035491E+02  0.36427361999E+03  0.41394047910E+03  0.16500000000E+03 0.  0.
   -5000001    1    1    2    0    0 -0.70144475013E+02 -0.80661035491E+02  0.53444735209E+03  0.56946064146E+03  0.16500000000E+03 0.  0.
<mgrwt>
<rscale>  0 0.39922222E+03</rscale>
<asrwt>0</asrwt>
<pdfrwt beam="1">  1        2 0.13443730E+00 0.39922222E+03</pdfrwt>
<pdfrwt beam="2">  1       -2 0.60485818E-02 0.39922222E+03</pdfrwt>
<totfact> 0.46491880E+03</totfact>
</mgrwt>
</event>
<event>
 4    1  0.5531008E-005  0.4487708E+03  0.7818608E-02  0.1028089E+00
         -2   -1    0    0    0  501 -0.00000000000E+00  0.00000000000E+00  0.17424794156E+02  0.17424794342E+02  0.25500000000E-02 0. -1.
          2   -1    0    0  501    0  0.00000000000E+00 -0.00000000000E+00 -0.28894926460E+04  0.28894926460E+04  0.25500000000E-02 0.  1.
    5000001    1    1    2    0    0  0.56874492125E+02 -0.12900530114E+03 -0.18051235042E+04  0.18181234669E+04  0.16500000000E+03 0.  0.
   -5000001    1    1    2    0    0 -0.56874492125E+02  0.12900530114E+03 -0.10669443477E+04  0.10887939735E+04  0.16500000000E+03 0.  0.
<mgrwt>
<rscale>  0 0.44877083E+03</rscale>
<asrwt>0</asrwt>
<pdfrwt beam="1">  1        2 0.41278436E+00 0.44877083E+03</pdfrwt>
<pdfrwt beam="2">  1       -2 0.24892582E-02 0.44877083E+03</pdfrwt>
<totfact> 0.17436723E+03</totfact>
</mgrwt>
</event>
<event>
 4    1  0.5531008E-005  0.6701458E+03  0.7818608E-02  0.9769694E-01
         -2   -1    0    0    0  501 -0.00000000000E+00  0.00000000000E+00  0.48164026354E+03  0.48164026355E+03  0.25500000000E-02 0.  1.
          2   -1    0    0  501    0  0.00000000000E+00 -0.00000000000E+00 -0.23310728394E+03  0.23310728395E+03  0.25500000000E-02 0. -1.
    5000001    1    1    2    0    0 -0.17511982582E+03 -0.23180306557E+03  0.97090480117E+02  0.34792409507E+03  0.16500000000E+03 0.  0.
   -5000001    1    1    2    0    0  0.17511982582E+03  0.23180306557E+03  0.15144249948E+03  0.36682345243E+03  0.16500000000E+03 0.  0.
<mgrwt>
<rscale>  0 0.67014582E+03</rscale>
<asrwt>0</asrwt>
<pdfrwt beam="1">  1        2 0.33301041E-01 0.67014582E+03</pdfrwt>
<pdfrwt beam="2">  1       -2 0.68805750E-01 0.67014582E+03</pdfrwt>
<totfact> 0.30818335E+02</totfact>
</mgrwt>
</event>
<event>
 4    1  0.5531008E-005  0.8770058E+03  0.7818608E-02  0.9454791E-01
          2   -1    0    0  501    0  0.00000000000E+00  0.00000000000E+00  0.18140658587E+04  0.18140658587E+04  0.25500000000E-02 0.  1.
         -2   -1    0    0    0  501 -0.00000000000E+00 -0.00000000000E+00 -0.10599658070E+03  0.10599658073E+03  0.25500000000E-02 0. -1.
    5000001    1    1    2    0    0 -0.67873058754E+02 -0.39945655002E+03  0.91925674593E+03  0.10180521855E+04  0.16500000000E+03 0.  0.
   -5000001    1    1    2    0    0  0.67873058754E+02  0.39945655002E+03  0.78881253208E+03  0.90201025394E+03  0.16500000000E+03 0.  0.
<mgrwt>
<rscale>  0 0.87700577E+03</rscale>
<asrwt>0</asrwt>
<pdfrwt beam="1">  1        2 0.25915224E+00 0.87700577E+03</pdfrwt>
<pdfrwt beam="2">  1       -2 0.15142370E-01 0.87700577E+03</pdfrwt>
<totfact> 0.34775703E+02</totfact>
</mgrwt>
</event>
<event>
 4    1  0.5531008E-005  0.4858043E+03  0.7818608E-02  0.1017552E+00
         -2   -1    0    0    0  501 -0.00000000000E+00  0.00000000000E+00  0.16053695738E+03  0.16053695740E+03  0.25500000000E-02 0.  1.
          2   -1    0    0  501    0  0.00000000000E+00 -0.00000000000E+00 -0.36752565806E+03  0.36752565807E+03  0.25500000000E-02 0. -1.
    5000001    1    1    2    0    0 -0.77697553444E+01 -0.14176894778E+03 -0.22065537844E+03  0.30995580280E+03  0.16500000000E+03 0.  0.
   -5000001    1    1    2    0    0  0.77697553444E+01  0.14176894778E+03  0.13666677767E+02  0.21810681267E+03  0.16500000000E+03 0.  0.
<mgrwt>
<rscale>  0 0.48580429E+03</rscale>
<asrwt>0</asrwt>
<pdfrwt beam="1">  1        2 0.52503665E-01 0.48580429E+03</pdfrwt>
<pdfrwt beam="2">  1       -2 0.22933851E-01 0.48580429E+03</pdfrwt>
<totfact> 0.15854242E+03</totfact>
</mgrwt>
</event>
<event>
 4    1  0.5531008E-005  0.4919907E+03  0.7818608E-02  0.1015891E+00
          2   -1    0    0  501    0  0.00000000000E+00  0.00000000000E+00  0.69257876881E+03  0.69257876881E+03  0.25500000000E-02 0.  1.
         -2   -1    0    0    0  501 -0.00000000000E+00 -0.00000000000E+00 -0.87374498127E+02  0.87374498164E+02  0.25500000000E-02 0. -1.
    5000001    1    1    2    0    0 -0.61622336114E+02 -0.16115731297E+03  0.39665377232E+03  0.46295594491E+03  0.16500000000E+03 0.  0.
   -5000001    1    1    2    0    0  0.61622336114E+02  0.16115731297E+03  0.20855049836E+03  0.31699732207E+03  0.16500000000E+03 0.  0.
<mgrwt>
<rscale>  0 0.49199074E+03</rscale>
<asrwt>0</asrwt>
<pdfrwt beam="1">  1        2 0.98939824E-01 0.49199074E+03</pdfrwt>
<pdfrwt beam="2">  1       -2 0.12482071E-01 0.49199074E+03</pdfrwt>
<totfact> 0.21671794E+03</totfact>
</mgrwt>
</event>
<event>
 4    1  0.5531008E-005  0.5156073E+03  0.7818608E-02  0.1009784E+00
         -2   -1    0    0    0  501 -0.00000000000E+00  0.00000000000E+00  0.61202267487E+02  0.61202267540E+02  0.25500000000E-02 0. -1.
          2   -1    0    0  501    0  0.00000000000E+00 -0.00000000000E+00 -0.10859517597E+04  0.10859517597E+04  0.25500000000E-02 0.  1.
    5000001    1    1    2    0    0  0.73344360249E+02 -0.17661460534E+03 -0.62724296533E+03  0.67618847340E+03  0.16500000000E+03 0.  0.
   -5000001    1    1    2    0    0 -0.73344360249E+02  0.17661460534E+03 -0.39750652691E+03  0.47096555388E+03  0.16500000000E+03 0.  0.
<mgrwt>
<rscale>  0 0.51560725E+03</rscale>
<asrwt>0</asrwt>
<pdfrwt beam="1">  1        2 0.15513595E+00 0.51560725E+03</pdfrwt>
<pdfrwt beam="2">  1       -2 0.87431817E-02 0.51560725E+03</pdfrwt>
<totfact> 0.21340368E+03</totfact>
</mgrwt>
</event>
<event>
 4    1  0.5531008E-005  0.5166668E+03  0.7818608E-02  0.1009518E+00
          2   -1    0    0  501    0  0.00000000000E+00  0.00000000000E+00  0.19540845187E+04  0.19540845187E+04  0.25500000000E-02 0.  1.
         -2   -1    0    0    0  501 -0.00000000000E+00 -0.00000000000E+00 -0.34152133516E+02  0.34152133611E+02  0.25500000000E-02 0. -1.
    5000001    1    1    2    0    0 -0.94123923890E+02  0.14270747828E+03  0.56967426083E+03  0.61723455902E+03  0.16500000000E+03 0.  0.
   -5000001    1    1    2    0    0  0.94123923890E+02 -0.14270747828E+03  0.13502581243E+04  0.13710020932E+04  0.16500000000E+03 0.  0.
<mgrwt>
<rscale>  0 0.51666684E+03</rscale>
<asrwt>0</asrwt>
<pdfrwt beam="1">  1        2 0.27915490E+00 0.51666684E+03</pdfrwt>
<pdfrwt beam="2">  1       -2 0.48788768E-02 0.51666684E+03</pdfrwt>
<totfact> 0.18682824E+03</totfact>
</mgrwt>
</event>
<event>
 4    1  0.5531008E-005  0.4618015E+03  0.7818608E-02  0.1024260E+00
          2   -1    0    0  501    0  0.00000000000E+00  0.00000000000E+00  0.29877908359E+04  0.29877908359E+04  0.25500000000E-02 0.  1.
         -2   -1    0    0    0  501 -0.00000000000E+00 -0.00000000000E+00 -0.17844337389E+02  0.17844337571E+02  0.25500000000E-02 0. -1.
    5000001    1    1    2    0    0 -0.14093653140E+03  0.27068356883E+02  0.19674084278E+04  0.19795243680E+04  0.16500000000E+03 0.  0.
   -5000001    1    1    2    0    0  0.14093653140E+03 -0.27068356883E+02  0.10025380707E+04  0.10261108054E+04  0.16500000000E+03 0.  0.
<mgrwt>
<rscale>  0 0.46180146E+03</rscale>
<asrwt>0</asrwt>
<pdfrwt beam="1">  1        2 0.42682695E+00 0.46180146E+03</pdfrwt>
<pdfrwt beam="2">  1       -2 0.25491929E-02 0.46180146E+03</pdfrwt>
<totfact> 0.14890737E+03</totfact>
</mgrwt>
</event>
<event>
 4    1  0.5531008E-005  0.3770453E+03  0.7818608E-02  0.1052031E+00
          2   -1    0    0  501    0  0.00000000000E+00  0.00000000000E+00  0.15539544671E+04  0.15539544671E+04  0.25500000000E-02 0.  1.
         -2   -1    0    0    0  501 -0.00000000000E+00 -0.00000000000E+00 -0.22871191375E+02  0.22871191517E+02  0.25500000000E-02 0. -1.
    5000001    1    1    2    0    0 -0.53940206494E+02  0.73527116090E+02  0.76590239745E+03  0.78876312356E+03  0.16500000000E+03 0.  0.
   -5000001    1    1    2    0    0  0.53940206494E+02 -0.73527116090E+02  0.76518087828E+03  0.78806253506E+03  0.16500000000E+03 0.  0.
<mgrwt>
<rscale>  0 0.37704530E+03</rscale>
<asrwt>0</asrwt>
<pdfrwt beam="1">  1        2 0.22199344E+00 0.37704530E+03</pdfrwt>
<pdfrwt beam="2">  1       -2 0.32673138E-02 0.37704530E+03</pdfrwt>
<totfact> 0.54801914E+03</totfact>
</mgrwt>
</event>
<event>
 4    1  0.5531008E-005  0.4364496E+03  0.7818608E-02  0.1031842E+00
         -2   -1    0    0    0  501 -0.00000000000E+00  0.00000000000E+00  0.12663611934E+03  0.12663611936E+03  0.25500000000E-02 0. -1.
          2   -1    0    0  501    0  0.00000000000E+00 -0.00000000000E+00 -0.37605434568E+03  0.37605434569E+03  0.25500000000E-02 0.  1.
    5000001    1    1    2    0    0  0.55994481886E+02  0.12006651871E+03 -0.18615064415E+03  0.28183046896E+03  0.16500000000E+03 0.  0.
   -5000001    1    1    2    0    0 -0.55994481886E+02 -0.12006651871E+03 -0.63267582188E+02  0.22085999609E+03  0.16500000000E+03 0.  0.
<mgrwt>
<rscale>  0 0.43644960E+03</rscale>
<asrwt>0</asrwt>
<pdfrwt beam="1">  1        2 0.53722049E-01 0.43644960E+03</pdfrwt>
<pdfrwt beam="2">  1       -2 0.18090874E-01 0.43644960E+03</pdfrwt>
<totfact> 0.23314421E+03</totfact>
</mgrwt>
</event>
<event>
 4    1  0.5531008E-005  0.4775421E+03  0.7818608E-02  0.1019813E+00
         -2   -1    0    0    0  501 -0.00000000000E+00  0.00000000000E+00  0.40915939444E+02  0.40915939524E+02  0.25500000000E-02 0.  1.
          2   -1    0    0  501    0  0.00000000000E+00 -0.00000000000E+00 -0.13933840055E+04  0.13933840055E+04  0.25500000000E-02 0. -1.
    5000001    1    1    2    0    0  0.63047137964E+02  0.11633973923E+03 -0.10090236941E+04  0.10309528078E+04  0.16500000000E+03 0.  0.
   -5000001    1    1    2    0    0 -0.63047137964E+02 -0.11633973923E+03 -0.34344437194E+03  0.40334713727E+03  0.16500000000E+03 0.  0.
<mgrwt>
<rscale>  0 0.47754211E+03</rscale>
<asrwt>0</asrwt>
<pdfrwt beam="1">  1        2 0.19905483E+00 0.47754211E+03</pdfrwt>
<pdfrwt beam="2">  1       -2 0.58451351E-02 0.47754211E+03</pdfrwt>
<totfact> 0.27259186E+03</totfact>
</mgrwt>
</event>
<event>
 4    1  0.5531008E-005  0.4438241E+03  0.7818608E-02  0.1029580E+00
         -2   -1    0    0    0  501 -0.00000000000E+00  0.00000000000E+00  0.17556590162E+04  0.17556590162E+04  0.25500000000E-02 0. -1.
          2   -1    0    0  501    0  0.00000000000E+00 -0.00000000000E+00 -0.28049276630E+02  0.28049276745E+02  0.25500000000E-02 0.  1.
    5000001    1    1    2    0    0  0.10511751953E+03 -0.25906129585E+02  0.45594262572E+03  0.49681938208E+03  0.16500000000E+03 0.  0.
   -5000001    1    1    2    0    0 -0.10511751953E+03  0.25906129585E+02  0.12716671139E+04  0.12868889109E+04  0.16500000000E+03 0.  0.
<mgrwt>
<rscale>  0 0.44382413E+03</rscale>
<asrwt>0</asrwt>
<pdfrwt beam="1">  1        2 0.40070380E-02 0.44382413E+03</pdfrwt>
<pdfrwt beam="2">  1       -2 0.25080852E+00 0.44382413E+03</pdfrwt>
<totfact> 0.14871147E+02</totfact>
</mgrwt>
</event>
<event>
 4    1  0.5531008E-005  0.5176526E+03  0.7818608E-02  0.1009271E+00
         -2   -1    0    0    0  501 -0.00000000000E+00  0.00000000000E+00  0.31234053682E+02  0.31234053786E+02  0.25500000000E-02 0. -1.
          2   -1    0    0  501    0  0.00000000000E+00 -0.00000000000E+00 -0.21448081471E+04  0.21448081471E+04  0.25500000000E-02 0.  1.
    5000001    1    1    2    0    0  0.18864363368E+02  0.19770609380E+03 -0.98129755624E+03  0.10146987029E+04  0.16500000000E+03 0.  0.
   -5000001    1    1    2    0    0 -0.18864363368E+02 -0.19770609380E+03 -0.11322765372E+04  0.11613434980E+04  0.16500000000E+03 0.  0.
<mgrwt>
<rscale>  0 0.51765260E+03</rscale>
<asrwt>0</asrwt>
<pdfrwt beam="1">  1        2 0.30640107E+00 0.51765260E+03</pdfrwt>
<pdfrwt beam="2">  1       -2 0.44620090E-02 0.51765260E+03</pdfrwt>
<totfact> 0.17214759E+03</totfact>
</mgrwt>
</event>
<event>
 4    1  0.5531008E-005  0.1014797E+04  0.7818608E-02  0.9292463E-01
         -2   -1    0    0    0  501 -0.00000000000E+00  0.00000000000E+00  0.16190762508E+03  0.16190762510E+03  0.25500000000E-02 0. -1.
          2   -1    0    0  501    0  0.00000000000E+00 -0.00000000000E+00 -0.15901235571E+04  0.15901235571E+04  0.25500000000E-02 0.  1.
    5000001    1    1    2    0    0 -0.18508571444E+03 -0.29141696553E+03 -0.12894382799E+04  0.13450117647E+04  0.16500000000E+03 0.  0.
   -5000001    1    1    2    0    0  0.18508571444E+03  0.29141696553E+03 -0.13877765210E+03  0.40701941748E+03  0.16500000000E+03 0.  0.
<mgrwt>
<rscale>  0 0.10147968E+04</rscale>
<asrwt>0</asrwt>
<pdfrwt beam="1">  1        2 0.22716050E+00 0.10147968E+04</pdfrwt>
<pdfrwt beam="2">  1       -2 0.23129662E-01 0.10147968E+04</pdfrwt>
<totfact> 0.21526135E+02</totfact>
</mgrwt>
</event>
<event>
 4    1  0.5531008E-005  0.5325382E+03  0.7818608E-02  0.1005618E+00
          2   -1    0    0  501    0  0.00000000000E+00  0.00000000000E+00  0.26639091817E+04  0.26639091817E+04  0.25500000000E-02 0.  1.
         -2   -1    0    0    0  501 -0.00000000000E+00 -0.00000000000E+00 -0.26614728726E+02  0.26614728848E+02  0.25500000000E-02 0. -1.
    5000001    1    1    2    0    0  0.19562005368E+03  0.63481340185E+02  0.15061355816E+04  0.15290410316E+04  0.16500000000E+03 0.  0.
   -5000001    1    1    2    0    0 -0.19562005368E+03 -0.63481340185E+02  0.11311588713E+04  0.11614828789E+04  0.16500000000E+03 0.  0.
<mgrwt>
<rscale>  0 0.53253815E+03</rscale>
<asrwt>0</asrwt>
<pdfrwt beam="1">  1        2 0.38055868E+00 0.53253815E+03</pdfrwt>
<pdfrwt beam="2">  1       -2 0.38021019E-02 0.53253815E+03</pdfrwt>
<totfact> 0.11977562E+03</totfact>
</mgrwt>
</event>
<event>
 4    1  0.5531008E-005  0.5346454E+03  0.7818608E-02  0.1005112E+00
          2   -1    0    0  501    0  0.00000000000E+00  0.00000000000E+00  0.14584888722E+04  0.14584888722E+04  0.25500000000E-02 0.  1.
         -2   -1    0    0    0  501 -0.00000000000E+00 -0.00000000000E+00 -0.48996895918E+02  0.48996895984E+02  0.25500000000E-02 0. -1.
    5000001    1    1    2    0    0 -0.14448934489E+03 -0.13769046781E+03  0.89178961896E+03  0.92862778345E+03  0.16500000000E+03 0.  0.
   -5000001    1    1    2    0    0  0.14448934489E+03  0.13769046781E+03  0.51770235732E+03  0.57885798473E+03  0.16500000000E+03 0.  0.
<mgrwt>
<rscale>  0 0.53464541E+03</rscale>
<asrwt>0</asrwt>
<pdfrwt beam="1">  1        2 0.20835551E+00 0.53464541E+03</pdfrwt>
<pdfrwt beam="2">  1       -2 0.69995579E-02 0.53464541E+03</pdfrwt>
<totfact> 0.18981595E+03</totfact>
</mgrwt>
</event>
<event>
 4    1  0.5531008E-005  0.3811549E+03  0.7818608E-02  0.1050508E+00
         -2   -1    0    0    0  501 -0.00000000000E+00  0.00000000000E+00  0.32016909629E+03  0.32016909630E+03  0.25500000000E-02 0. -1.
          2   -1    0    0  501    0  0.00000000000E+00 -0.00000000000E+00 -0.11343931655E+03  0.11343931658E+03  0.25500000000E-02 0.  1.
    5000001    1    1    2    0    0 -0.13638682760E+02  0.93578223790E+02  0.11738418706E+03  0.22348813169E+03  0.16500000000E+03 0.  0.
   -5000001    1    1    2    0    0  0.13638682760E+02 -0.93578223790E+02  0.89345592679E+02  0.21012028119E+03  0.16500000000E+03 0.  0.
<mgrwt>
<rscale>  0 0.38115489E+03</rscale>
<asrwt>0</asrwt>
<pdfrwt beam="1">  1        2 0.16205617E-01 0.38115489E+03</pdfrwt>
<pdfrwt beam="2">  1       -2 0.45738442E-01 0.38115489E+03</pdfrwt>
<totfact> 0.16419662E+03</totfact>
</mgrwt>
</event>
<event>
 4    1  0.5531008E-005  0.9290377E+03  0.7818608E-02  0.9389994E-01
         -2   -1    0    0    0  501 -0.00000000000E+00  0.00000000000E+00  0.50629360125E+03  0.50629360126E+03  0.25500000000E-02 0. -1.
          2   -1    0    0  501    0  0.00000000000E+00 -0.00000000000E+00 -0.42619095717E+03  0.42619095717E+03  0.25500000000E-02 0.  1.
    5000001    1    1    2    0    0  0.15962152442E+02 -0.41553369640E+03 -0.85431361431E+02  0.45546301790E+03  0.16500000000E+03 0.  0.
   -5000001    1    1    2    0    0 -0.15962152442E+02  0.41553369640E+03  0.16553400552E+03  0.47702154054E+03  0.16500000000E+03 0.  0.
<mgrwt>
<rscale>  0 0.92903768E+03</rscale>
<asrwt>0</asrwt>
<pdfrwt beam="1">  1        2 0.60884422E-01 0.92903768E+03</pdfrwt>
<pdfrwt beam="2">  1       -2 0.72327658E-01 0.92903768E+03</pdfrwt>
<totfact> 0.13969351E+02</totfact>
</mgrwt>
</event>
<event>
 4    1  0.5531008E-005  0.4460370E+03  0.7818608E-02  0.1028910E+00
          2   -1    0    0  501    0  0.00000000000E+00  0.00000000000E+00  0.10222444378E+04  0.10222444378E+04  0.25500000000E-02 0.  1.
         -2   -1    0    0    0  501 -0.00000000000E+00 -0.00000000000E+00 -0.48654952709E+02  0.48654952776E+02  0.25500000000E-02 0. -1.
    5000001    1    1    2    0    0 -0.96067166087E+02 -0.10313152272E+03  0.61032538797E+03  0.64775542497E+03  0.16500000000E+03 0.  0.
   -5000001    1    1    2    0    0  0.96067166087E+02  0.10313152272E+03  0.36326409716E+03  0.42314396564E+03  0.16500000000E+03 0.  0.
<mgrwt>
<rscale>  0 0.44603702E+03</rscale>
<asrwt>0</asrwt>
<pdfrwt beam="1">  1        2 0.14603491E+00 0.44603702E+03</pdfrwt>
<pdfrwt beam="2">  1       -2 0.69507078E-02 0.44603702E+03</pdfrwt>
<totfact> 0.33448925E+03</totfact>
</mgrwt>
</event>
<event>
 4    1  0.5531008E-005  0.4972441E+03  0.7818608E-02  0.1014501E+00
         -2   -1    0    0    0  501 -0.00000000000E+00  0.00000000000E+00  0.26369687789E+02  0.26369687912E+02  0.25500000000E-02 0. -1.
          2   -1    0    0  501    0  0.00000000000E+00 -0.00000000000E+00 -0.23440903508E+04  0.23440903508E+04  0.25500000000E-02 0.  1.
    5000001    1    1    2    0    0  0.13391255403E+03 -0.96987449160E+02 -0.75298202802E+03  0.78838193278E+03  0.16500000000E+03 0.  0.
   -5000001    1    1    2    0    0 -0.13391255403E+03  0.96987449160E+02 -0.15647386350E+04  0.15820781059E+04  0.16500000000E+03 0.  0.
<mgrwt>
<rscale>  0 0.49724413E+03</rscale>
<asrwt>0</asrwt>
<pdfrwt beam="1">  1        2 0.33486992E+00 0.49724413E+03</pdfrwt>
<pdfrwt beam="2">  1       -2 0.37670997E-02 0.49724413E+03</pdfrwt>
<totfact> 0.17740588E+03</totfact>
</mgrwt>
</event>
<event>
 4    1  0.5531008E-005  0.1145186E+04  0.7818608E-02  0.9162236E-01
         -2   -1    0    0    0  501 -0.00000000000E+00  0.00000000000E+00  0.25786003626E+03  0.25786003627E+03  0.25500000000E-02 0. -1.
          2   -1    0    0  501    0  0.00000000000E+00 -0.00000000000E+00 -0.12714756967E+04  0.12714756967E+04  0.25500000000E-02 0.  1.
    5000001    1    1    2    0    0 -0.13163957033E+03  0.53105171840E+03 -0.55482575717E+03  0.79649326733E+03  0.16500000000E+03 0.  0.
   -5000001    1    1    2    0    0  0.13163957033E+03 -0.53105171840E+03 -0.45878990326E+03  0.73284246563E+03  0.16500000000E+03 0.  0.
<mgrwt>
<rscale>  0 0.11451860E+04</rscale>
<asrwt>0</asrwt>
<pdfrwt beam="1">  1        2 0.18163938E+00 0.11451860E+04</pdfrwt>
<pdfrwt beam="2">  1       -2 0.36837149E-01 0.11451860E+04</pdfrwt>
<totfact> 0.13369672E+02</totfact>
</mgrwt>
</event>
<event>
 4    1  0.5531008E-005  0.5505108E+03  0.7818608E-02  0.1001376E+00
          2   -1    0    0  501    0  0.00000000000E+00  0.00000000000E+00  0.16678582137E+04  0.16678582137E+04  0.25500000000E-02 0.  1.
         -2   -1    0    0    0  501 -0.00000000000E+00 -0.00000000000E+00 -0.45426846060E+02  0.45426846132E+02  0.25500000000E-02 0. -1.
    5000001    1    1    2    0    0  0.14459895999E+03 -0.59017838367E+02  0.12948415490E+04  0.13146222276E+04  0.16500000000E+03 0.  0.
   -5000001    1    1    2    0    0 -0.14459895999E+03  0.59017838367E+02  0.32758981869E+03  0.39866283221E+03  0.16500000000E+03 0.  0.
<mgrwt>
<rscale>  0 0.55051081E+03</rscale>
<asrwt>0</asrwt>
<pdfrwt beam="1">  1        2 0.23826543E+00 0.55051081E+03</pdfrwt>
<pdfrwt beam="2">  1       -2 0.64895503E-02 0.55051081E+03</pdfrwt>
<totfact> 0.16673061E+03</totfact>
</mgrwt>
</event>
<event>
 4    1  0.5531008E-005  0.4330032E+03  0.7818608E-02  0.1032915E+00
          2   -1    0    0  501    0  0.00000000000E+00  0.00000000000E+00  0.57304368769E+03  0.57304368770E+03  0.25500000000E-02 0.  1.
         -2   -1    0    0    0  501 -0.00000000000E+00 -0.00000000000E+00 -0.81796450926E+02  0.81796450966E+02  0.25500000000E-02 0. -1.
    5000001    1    1    2    0    0 -0.13821854571E+02  0.12220110612E+03  0.34734101130E+03  0.40372630844E+03  0.16500000000E+03 0.  0.
   -5000001    1    1    2    0    0  0.13821854571E+02 -0.12220110612E+03  0.14390622547E+03  0.25111383022E+03  0.16500000000E+03 0.  0.
<mgrwt>
<rscale>  0 0.43300319E+03</rscale>
<asrwt>0</asrwt>
<pdfrwt beam="1">  1        2 0.81863386E-01 0.43300319E+03</pdfrwt>
<pdfrwt beam="2">  1       -2 0.11685207E-01 0.43300319E+03</pdfrwt>
<totfact> 0.30157738E+03</totfact>
</mgrwt>
</event>
<event>
 4    1  0.5531008E-005  0.1113039E+04  0.7818608E-02  0.9192576E-01
         -2   -1    0    0    0  501 -0.00000000000E+00  0.00000000000E+00  0.12742802850E+03  0.12742802853E+03  0.25500000000E-02 0. -1.
          2   -1    0    0  501    0  0.00000000000E+00 -0.00000000000E+00 -0.24305010726E+04  0.24305010726E+04  0.25500000000E-02 0.  1.
    5000001    1    1    2    0    0  0.19735014536E+03  0.43268493611E+03 -0.16969566123E+04  0.17700423944E+04  0.16500000000E+03 0.  0.
   -5000001    1    1    2    0    0 -0.19735014536E+03 -0.43268493611E+03 -0.60611643182E+03  0.78788670678E+03  0.16500000000E+03 0.  0.
<mgrwt>
<rscale>  0 0.11130390E+04</rscale>
<asrwt>0</asrwt>
<pdfrwt beam="1">  1        2 0.34721441E+00 0.11130390E+04</pdfrwt>
<pdfrwt beam="2">  1       -2 0.18204006E-01 0.11130390E+04</pdfrwt>
<totfact> 0.12052140E+02</totfact>
</mgrwt>
</event>
<event>
 4    1  0.5531008E-005  0.4049129E+03  0.7818608E-02  0.1042092E+00
          2   -1    0    0  501    0  0.00000000000E+00  0.00000000000E+00  0.18350521255E+03  0.18350521257E+03  0.25500000000E-02 0.  1.
         -2   -1    0    0    0  501 -0.00000000000E+00 -0.00000000000E+00 -0.22336480418E+03  0.22336480419E+03  0.25500000000E-02 0. -1.
    5000001    1    1    2    0    0 -0.33918395871E+02  0.11137407938E+03 -0.54043811017E+01  0.20201200576E+03  0.16500000000E+03 0.  0.
   -5000001    1    1    2    0    0  0.33918395871E+02 -0.11137407938E+03 -0.34455210527E+02  0.20485801100E+03  0.16500000000E+03 0.  0.
<mgrwt>
<rscale>  0 0.40491286E+03</rscale>
<asrwt>0</asrwt>
<pdfrwt beam="1">  1        2 0.26215030E-01 0.40491286E+03</pdfrwt>
<pdfrwt beam="2">  1       -2 0.31909258E-01 0.40491286E+03</pdfrwt>
<totfact> 0.18758476E+03</totfact>
</mgrwt>
</event>
<event>
 4    1  0.5531008E-005  0.3580001E+03  0.7818608E-02  0.1059379E+00
         -2   -1    0    0    0  501 -0.00000000000E+00  0.00000000000E+00  0.20423316259E+03  0.20423316261E+03  0.25500000000E-02 0. -1.
          2   -1    0    0  501    0  0.00000000000E+00 -0.00000000000E+00 -0.15688450287E+03  0.15688450289E+03  0.25500000000E-02 0.  1.
    5000001    1    1    2    0    0  0.20498955568E+02 -0.53808085024E+02  0.62747957035E+02  0.18568204896E+03  0.16500000000E+03 0.  0.
   -5000001    1    1    2    0    0 -0.20498955568E+02  0.53808085024E+02 -0.15399297318E+02  0.17543561654E+03  0.16500000000E+03 0.  0.
<mgrwt>
<rscale>  0 0.35800010E+03</rscale>
<asrwt>0</asrwt>
<pdfrwt beam="1">  1        2 0.22412072E-01 0.35800010E+03</pdfrwt>
<pdfrwt beam="2">  1       -2 0.29176166E-01 0.35800010E+03</pdfrwt>
<totfact> 0.26347388E+03</totfact>
</mgrwt>
</event>
<event>
 4    1  0.5531008E-005  0.4497720E+03  0.7818608E-02  0.1027790E+00
          2   -1    0    0  501    0  0.00000000000E+00  0.00000000000E+00  0.32640553880E+03  0.32640553881E+03  0.25500000000E-02 0.  1.
         -2   -1    0    0    0  501 -0.00000000000E+00 -0.00000000000E+00 -0.15494136937E+03  0.15494136939E+03  0.25500000000E-02 0. -1.
    5000001    1    1    2    0    0  0.86726135486E+02  0.55640050549E+02 -0.35022947853E+02  0.19765840401E+03  0.16500000000E+03 0.  0.
   -5000001    1    1    2    0    0 -0.86726135486E+02 -0.55640050549E+02  0.20648711728E+03  0.28368850418E+03  0.16500000000E+03 0.  0.
<mgrwt>
<rscale>  0 0.44977204E+03</rscale>
<asrwt>0</asrwt>
<pdfrwt beam="1">  1        2 0.46629364E-01 0.44977204E+03</pdfrwt>
<pdfrwt beam="2">  1       -2 0.22134481E-01 0.44977204E+03</pdfrwt>
<totfact> 0.19209511E+03</totfact>
</mgrwt>
</event>
<event>
 4    1  0.5531008E-005  0.7753449E+03  0.7818608E-02  0.9596406E-01
         -2   -1    0    0    0  501 -0.00000000000E+00  0.00000000000E+00  0.20294941130E+03  0.20294941131E+03  0.25500000000E-02 0. -1.
          2   -1    0    0  501    0  0.00000000000E+00 -0.00000000000E+00 -0.74052902307E+03  0.74052902308E+03  0.25500000000E-02 0.  1.
    5000001    1    1    2    0    0  0.10396085101E+03 -0.31698942648E+03 -0.13674742801E+03  0.39650348562E+03  0.16500000000E+03 0.  0.
   -5000001    1    1    2    0    0 -0.10396085101E+03  0.31698942648E+03 -0.40083218376E+03  0.54697494877E+03  0.16500000000E+03 0.  0.
<mgrwt>
<rscale>  0 0.77534490E+03</rscale>
<asrwt>0</asrwt>
<pdfrwt beam="1">  1        2 0.10578986E+00 0.77534490E+03</pdfrwt>
<pdfrwt beam="2">  1       -2 0.28992773E-01 0.77534490E+03</pdfrwt>
<totfact> 0.45976073E+02</totfact>
</mgrwt>
</event>
<event>
 4    1  0.5531008E-005  0.5146777E+03  0.7818608E-02  0.1010017E+00
         -2   -1    0    0    0  501 -0.00000000000E+00  0.00000000000E+00  0.62286414155E+02  0.62286414207E+02  0.25500000000E-02 0. -1.
          2   -1    0    0  501    0  0.00000000000E+00 -0.00000000000E+00 -0.10632058823E+04  0.10632058823E+04  0.25500000000E-02 0.  1.
    5000001    1    1    2    0    0  0.14833475205E+03  0.53280211262E+02 -0.24027482935E+03  0.33135928114E+03  0.16500000000E+03 0.  0.
   -5000001    1    1    2    0    0 -0.14833475205E+03 -0.53280211262E+02 -0.76064463884E+03  0.79413301541E+03  0.16500000000E+03 0.  0.
<mgrwt>
<rscale>  0 0.51467769E+03</rscale>
<asrwt>0</asrwt>
<pdfrwt beam="1">  1        2 0.15188654E+00 0.51467769E+03</pdfrwt>
<pdfrwt beam="2">  1       -2 0.88980598E-02 0.51467769E+03</pdfrwt>
<totfact> 0.21394946E+03</totfact>
</mgrwt>
</event>
<event>
 4    1  0.5531008E-005  0.1112917E+04  0.7818608E-02  0.9192692E-01
          2   -1    0    0  501    0  0.00000000000E+00  0.00000000000E+00  0.11108676463E+04  0.11108676463E+04  0.25500000000E-02 0.  1.
         -2   -1    0    0    0  501 -0.00000000000E+00 -0.00000000000E+00 -0.27874270715E+03  0.27874270716E+03  0.25500000000E-02 0. -1.
    5000001    1    1    2    0    0 -0.35198745896E+03 -0.30447128317E+03  0.95715937936E+02  0.50297562000E+03  0.16500000000E+03 0.  0.
   -5000001    1    1    2    0    0  0.35198745896E+03  0.30447128317E+03  0.73640900123E+03  0.88663473349E+03  0.16500000000E+03 0.  0.
<mgrwt>
<rscale>  0 0.11129173E+04</rscale>
<asrwt>0</asrwt>
<pdfrwt beam="1">  1        2 0.15869538E+00 0.11129173E+04</pdfrwt>
<pdfrwt beam="2">  1       -2 0.39820387E-01 0.11129173E+04</pdfrwt>
<totfact> 0.14233388E+02</totfact>
</mgrwt>
</event>
<event>
 4    1  0.5531008E-005  0.4435871E+03  0.7818608E-02  0.1029652E+00
          2   -1    0    0  501    0  0.00000000000E+00  0.00000000000E+00  0.26997895858E+03  0.26997895859E+03  0.25500000000E-02 0.  1.
         -2   -1    0    0    0  501 -0.00000000000E+00 -0.00000000000E+00 -0.18220816808E+03  0.18220816810E+03  0.25500000000E-02 0. -1.
    5000001    1    1    2    0    0 -0.58946585942E+02 -0.75040616910E+02 -0.71722217900E+02  0.20365380115E+03  0.16500000000E+03 0.  0.
   -5000001    1    1    2    0    0  0.58946585942E+02  0.75040616910E+02  0.15949300840E+03  0.24853332555E+03  0.16500000000E+03 0.  0.
<mgrwt>
<rscale>  0 0.44358707E+03</rscale>
<asrwt>0</asrwt>
<pdfrwt beam="1">  1        2 0.38568423E-01 0.44358707E+03</pdfrwt>
<pdfrwt beam="2">  1       -2 0.26029738E-01 0.44358707E+03</pdfrwt>
<totfact> 0.17733678E+03</totfact>
</mgrwt>
</event>
<event>
 4    1  0.5531008E-005  0.6474400E+03  0.7818608E-02  0.9811595E-01
          2   -1    0    0  501    0  0.00000000000E+00  0.00000000000E+00  0.22921517530E+03  0.22921517532E+03  0.25500000000E-02 0.  1.
         -2   -1    0    0    0  501 -0.00000000000E+00 -0.00000000000E+00 -0.45718888909E+03  0.45718888910E+03  0.25500000000E-02 0. -1.
    5000001    1    1    2    0    0  0.81253891714E+02  0.18482543765E+03  0.89410595557E+02  0.27564813063E+03  0.16500000000E+03 0.  0.
   -5000001    1    1    2    0    0 -0.81253891714E+02 -0.18482543765E+03 -0.31738430935E+03  0.41075593379E+03  0.16500000000E+03 0.  0.
<mgrwt>
<rscale>  0 0.64743998E+03</rscale>
<asrwt>0</asrwt>
<pdfrwt beam="1">  1        2 0.32745025E-01 0.64743998E+03</pdfrwt>
<pdfrwt beam="2">  1       -2 0.65312698E-01 0.64743998E+03</pdfrwt>
<totfact> 0.35157970E+02</totfact>
</mgrwt>
</event>
<event>
 4    1  0.5531008E-005  0.5144923E+03  0.7818608E-02  0.1010064E+00
         -2   -1    0    0    0  501 -0.00000000000E+00  0.00000000000E+00  0.14580878388E+04  0.14580878388E+04  0.25500000000E-02 0. -1.
          2   -1    0    0  501    0  0.00000000000E+00 -0.00000000000E+00 -0.45385176883E+02  0.45385176954E+02  0.25500000000E-02 0.  1.
    5000001    1    1    2    0    0 -0.58427890734E+02 -0.64444998628E+02  0.12240393926E+04  0.12381697827E+04  0.16500000000E+03 0.  0.
   -5000001    1    1    2    0    0  0.58427890734E+02  0.64444998628E+02  0.18866326936E+03  0.26530323305E+03  0.16500000000E+03 0.  0.
<mgrwt>
<rscale>  0 0.51449227E+03</rscale>
<asrwt>0</asrwt>
<pdfrwt beam="1">  1        2 0.64835977E-02 0.51449227E+03</pdfrwt>
<pdfrwt beam="2">  1       -2 0.20829823E+00 0.51449227E+03</pdfrwt>
<totfact> 0.14134829E+02</totfact>
</mgrwt>
</event>
<event>
 4    1  0.5531008E-005  0.8756079E+03  0.7818608E-02  0.9456597E-01
         -2   -1    0    0    0  501 -0.00000000000E+00  0.00000000000E+00  0.61607856590E+02  0.61607856643E+02  0.25500000000E-02 0. -1.
          2   -1    0    0  501    0  0.00000000000E+00 -0.00000000000E+00 -0.31111664543E+04  0.31111664543E+04  0.25500000000E-02 0.  1.
    5000001    1    1    2    0    0  0.18725250763E+03 -0.13321733189E+02 -0.28272603120E+04  0.28382858985E+04  0.16500000000E+03 0.  0.
   -5000001    1    1    2    0    0 -0.18725250763E+03  0.13321733189E+02 -0.22229828573E+03  0.33448841239E+03  0.16500000000E+03 0.  0.
<mgrwt>
<rscale>  0 0.87560790E+03</rscale>
<asrwt>0</asrwt>
<pdfrwt beam="1">  1        2 0.44445225E+00 0.87560790E+03</pdfrwt>
<pdfrwt beam="2">  1       -2 0.88011243E-02 0.87560790E+03</pdfrwt>
<totfact> 0.17872722E+02</totfact>
</mgrwt>
</event>
<event>
 4    1  0.5531008E-005  0.4323737E+03  0.7818608E-02  0.1033113E+00
         -2   -1    0    0    0  501 -0.00000000000E+00  0.00000000000E+00  0.11556198304E+02  0.11556198586E+02  0.25500000000E-02 0. -1.
          2   -1    0    0  501    0  0.00000000000E+00 -0.00000000000E+00 -0.40443024661E+04  0.40443024661E+04  0.25500000000E-02 0.  1.
    5000001    1    1    2    0    0  0.48685655138E+02 -0.12778530115E+03 -0.17490080850E+04  0.17620878688E+04  0.16500000000E+03 0.  0.
   -5000001    1    1    2    0    0 -0.48685655138E+02  0.12778530115E+03 -0.22837381829E+04  0.22937707959E+04  0.16500000000E+03 0.  0.
<mgrwt>
<rscale>  0 0.43237374E+03</rscale>
<asrwt>0</asrwt>
<pdfrwt beam="1">  1        2 0.57775659E+00 0.43237374E+03</pdfrwt>
<pdfrwt beam="2">  1       -2 0.16508881E-02 0.43237374E+03</pdfrwt>
<totfact> 0.67255868E+02</totfact>
</mgrwt>
</event>
<event>
 4    1  0.5531008E-005  0.7983857E+03  0.7818608E-02  0.9562357E-01
         -2   -1    0    0    0  501 -0.00000000000E+00  0.00000000000E+00  0.10984673196E+03  0.10984673199E+03  0.25500000000E-02 0. -1.
          2   -1    0    0  501    0  0.00000000000E+00 -0.00000000000E+00 -0.14507025091E+04  0.14507025091E+04  0.25500000000E-02 0.  1.
    5000001    1    1    2    0    0  0.23053410293E+03 -0.27126857137E+03 -0.81402767174E+03  0.90365848681E+03  0.16500000000E+03 0.  0.
   -5000001    1    1    2    0    0 -0.23053410293E+03  0.27126857137E+03 -0.52682810540E+03  0.65689075428E+03  0.16500000000E+03 0.  0.
<mgrwt>
<rscale>  0 0.79838570E+03</rscale>
<asrwt>0</asrwt>
<pdfrwt beam="1">  1        2 0.20724320E+00 0.79838570E+03</pdfrwt>
<pdfrwt beam="2">  1       -2 0.15692391E-01 0.79838570E+03</pdfrwt>
<totfact> 0.50745213E+02</totfact>
</mgrwt>
</event>
<event>
 4    1  0.5531008E-005  0.4369523E+03  0.7818608E-02  0.1031686E+00
         -2   -1    0    0    0  501 -0.00000000000E+00  0.00000000000E+00  0.23351281051E+03  0.23351281052E+03  0.25500000000E-02 0. -1.
          2   -1    0    0  501    0  0.00000000000E+00 -0.00000000000E+00 -0.20440776811E+03  0.20440776813E+03  0.25500000000E-02 0.  1.
    5000001    1    1    2    0    0  0.14287001649E+03  0.90920360529E+01  0.11033944491E+02  0.21872643796E+03  0.16500000000E+03 0.  0.
   -5000001    1    1    2    0    0 -0.14287001649E+03 -0.90920360529E+01  0.18071097904E+02  0.21919414069E+03  0.16500000000E+03 0.  0.
<mgrwt>
<rscale>  0 0.43695232E+03</rscale>
<asrwt>0</asrwt>
<pdfrwt beam="1">  1        2 0.29201110E-01 0.43695232E+03</pdfrwt>
<pdfrwt beam="2">  1       -2 0.33358973E-01 0.43695232E+03</pdfrwt>
<totfact> 0.15316663E+03</totfact>
</mgrwt>
</event>
<event>
 4    1  0.5531008E-005  0.5088880E+03  0.7818608E-02  0.1011485E+00
          2   -1    0    0  501    0  0.00000000000E+00  0.00000000000E+00  0.25027271831E+04  0.25027271831E+04  0.25500000000E-02 0.  1.
         -2   -1    0    0    0  501 -0.00000000000E+00 -0.00000000000E+00 -0.25868481482E+02  0.25868481608E+02  0.25500000000E-02 0. -1.
    5000001    1    1    2    0    0  0.62451394140E+02 -0.15120253641E+03  0.72314183291E+03  0.75955348340E+03  0.16500000000E+03 0.  0.
   -5000001    1    1    2    0    0 -0.62451394140E+02  0.15120253641E+03  0.17537168687E+04  0.17690421813E+04  0.16500000000E+03 0.  0.
<mgrwt>
<rscale>  0 0.50888801E+03</rscale>
<asrwt>0</asrwt>
<pdfrwt beam="1">  1        2 0.35753223E+00 0.50888801E+03</pdfrwt>
<pdfrwt beam="2">  1       -2 0.36954997E-02 0.50888801E+03</pdfrwt>
<totfact> 0.15167822E+03</totfact>
</mgrwt>
</event>
<event>
 4    1  0.5531008E-005  0.3868721E+03  0.7818608E-02  0.1048423E+00
         -2   -1    0    0    0  501 -0.00000000000E+00  0.00000000000E+00  0.19836834861E+02  0.19836835025E+02  0.25500000000E-02 0. -1.
          2   -1    0    0  501    0  0.00000000000E+00 -0.00000000000E+00 -0.18862639108E+04  0.18862639108E+04  0.25500000000E-02 0.  1.
    5000001    1    1    2    0    0 -0.29372408571E+02  0.76536334650E+02 -0.12235259499E+04  0.12373202087E+04  0.16500000000E+03 0.  0.
   -5000001    1    1    2    0    0  0.29372408571E+02 -0.76536334650E+02 -0.64290112603E+03  0.66878053707E+03  0.16500000000E+03 0.  0.
<mgrwt>
<rscale>  0 0.38687210E+03</rscale>
<asrwt>0</asrwt>
<pdfrwt beam="1">  1        2 0.26946616E+00 0.38687210E+03</pdfrwt>
<pdfrwt beam="2">  1       -2 0.28338348E-02 0.38687210E+03</pdfrwt>
<totfact> 0.46309156E+03</totfact>
</mgrwt>
</event>
<event>
 4    1  0.5531008E-005  0.4703807E+03  0.7818608E-02  0.1021813E+00
         -2   -1    0    0    0  501 -0.00000000000E+00  0.00000000000E+00  0.19276357980E+03  0.19276357982E+03  0.25500000000E-02 0. -1.
          2   -1    0    0  501    0  0.00000000000E+00 -0.00000000000E+00 -0.28695509164E+03  0.28695509165E+03  0.25500000000E-02 0.  1.
    5000001    1    1    2    0    0  0.83566691552E+02  0.11325914251E+03  0.45696575577E+02  0.22163980310E+03  0.16500000000E+03 0.  0.
   -5000001    1    1    2    0    0 -0.83566691552E+02 -0.11325914251E+03 -0.13988808741E+03  0.25807886837E+03  0.16500000000E+03 0.  0.
<mgrwt>
<rscale>  0 0.47038066E+03</rscale>
<asrwt>0</asrwt>
<pdfrwt beam="1">  1        2 0.40993585E-01 0.47038066E+03</pdfrwt>
<pdfrwt beam="2">  1       -2 0.27537654E-01 0.47038066E+03</pdfrwt>
<totfact> 0.14991201E+03</totfact>
</mgrwt>
</event>
<event>
 4    1  0.5531008E-005  0.7425313E+03  0.7818608E-02  0.9647141E-01
         -2   -1    0    0    0  501 -0.00000000000E+00  0.00000000000E+00  0.68508169321E+03  0.68508169322E+03  0.25500000000E-02 0. -1.
          2   -1    0    0  501    0  0.00000000000E+00 -0.00000000000E+00 -0.20119963538E+03  0.20119963539E+03  0.25500000000E-02 0.  1.
    5000001    1    1    2    0    0  0.12881379076E+03  0.30145382346E+03  0.30888653851E+03  0.47969083173E+03  0.16500000000E+03 0.  0.
   -5000001    1    1    2    0    0 -0.12881379076E+03 -0.30145382346E+03  0.17499551932E+03  0.40659049688E+03  0.16500000000E+03 0.  0.
<mgrwt>
<rscale>  0 0.74253131E+03</rscale>
<asrwt>0</asrwt>
<pdfrwt beam="1">  1        2 0.28742805E-01 0.74253131E+03</pdfrwt>
<pdfrwt beam="2">  1       -2 0.97868813E-01 0.74253131E+03</pdfrwt>
<totfact> 0.16383255E+02</totfact>
</mgrwt>
</event>
<event>
 4    1  0.5531008E-005  0.4498361E+03  0.7818608E-02  0.1027771E+00
          2   -1    0    0  501    0  0.00000000000E+00  0.00000000000E+00  0.33860638373E+03  0.33860638374E+03  0.25500000000E-02 0.  1.
         -2   -1    0    0    0  501 -0.00000000000E+00 -0.00000000000E+00 -0.14940096285E+03  0.14940096288E+03  0.25500000000E-02 0. -1.
    5000001    1    1    2    0    0 -0.73418554714E+02 -0.13280938170E+03  0.11444412229E+03  0.25169639086E+03  0.16500000000E+03 0.  0.
   -5000001    1    1    2    0    0  0.73418554714E+02  0.13280938170E+03  0.74761298591E+02  0.23631095576E+03  0.16500000000E+03 0.  0.
<mgrwt>
<rscale>  0 0.44983606E+03</rscale>
<asrwt>0</asrwt>
<pdfrwt beam="1">  1        2 0.48372342E-01 0.44983606E+03</pdfrwt>
<pdfrwt beam="2">  1       -2 0.21342994E-01 0.44983606E+03</pdfrwt>
<totfact> 0.19667458E+03</totfact>
</mgrwt>
</event>
<event>
 4    1  0.5531008E-005  0.4281746E+03  0.7818608E-02  0.1034438E+00
          2   -1    0    0  501    0  0.00000000000E+00  0.00000000000E+00  0.31825246279E+03  0.31825246280E+03  0.25500000000E-02 0.  1.
         -2   -1    0    0    0  501 -0.00000000000E+00 -0.00000000000E+00 -0.14401576634E+03  0.14401576636E+03  0.25500000000E-02 0. -1.
    5000001    1    1    2    0    0 -0.49472717065E+02  0.10216041209E+03  0.54364695122E+01  0.20034683609E+03  0.16500000000E+03 0.  0.
   -5000001    1    1    2    0    0  0.49472717065E+02 -0.10216041209E+03  0.16880022694E+03  0.26192139307E+03  0.16500000000E+03 0.  0.
<mgrwt>
<rscale>  0 0.42817460E+03</rscale>
<asrwt>0</asrwt>
<pdfrwt beam="1">  1        2 0.45464637E-01 0.42817460E+03</pdfrwt>
<pdfrwt beam="2">  1       -2 0.20573681E-01 0.42817460E+03</pdfrwt>
<totfact> 0.22423098E+03</totfact>
</mgrwt>
</event>
<event>
 4    1  0.5531008E-005  0.9343128E+03  0.7818608E-02  0.9383677E-01
          2   -1    0    0  501    0  0.00000000000E+00  0.00000000000E+00  0.19549134378E+04  0.19549134378E+04  0.25500000000E-02 0.  1.
         -2   -1    0    0    0  501 -0.00000000000E+00 -0.00000000000E+00 -0.11163414303E+03  0.11163414306E+03  0.25500000000E-02 0. -1.
    5000001    1    1    2    0    0 -0.50267529451E+01 -0.41960864135E+03  0.11917501991E+04  0.12742017961E+04  0.16500000000E+03 0.  0.
   -5000001    1    1    2    0    0  0.50267529451E+01  0.41960864135E+03  0.65152909574E+03  0.79234578483E+03  0.16500000000E+03 0.  0.
<mgrwt>
<rscale>  0 0.93431277E+03</rscale>
<asrwt>0</asrwt>
<pdfrwt beam="1">  1        2 0.27927334E+00 0.93431277E+03</pdfrwt>
<pdfrwt beam="2">  1       -2 0.15947735E-01 0.93431277E+03</pdfrwt>
<totfact> 0.26887221E+02</totfact>
</mgrwt>
</event>
<event>
 4    1  0.5531008E-005  0.4540728E+03  0.7818608E-02  0.1026514E+00
         -2   -1    0    0    0  501 -0.00000000000E+00  0.00000000000E+00  0.23831043388E+02  0.23831043525E+02  0.25500000000E-02 0. -1.
          2   -1    0    0  501    0  0.00000000000E+00 -0.00000000000E+00 -0.21629568113E+04  0.21629568113E+04  0.25500000000E-02 0.  1.
    5000001    1    1    2    0    0  0.57220028932E+02 -0.14495099209E+03 -0.10982959188E+04  0.11215007121E+04  0.16500000000E+03 0.  0.
   -5000001    1    1    2    0    0 -0.57220028932E+02  0.14495099209E+03 -0.10408298491E+04  0.10652871428E+04  0.16500000000E+03 0.  0.
<mgrwt>
<rscale>  0 0.45407276E+03</rscale>
<asrwt>0</asrwt>
<pdfrwt beam="1">  1        2 0.30899371E+00 0.45407276E+03</pdfrwt>
<pdfrwt beam="2">  1       -2 0.34044362E-02 0.45407276E+03</pdfrwt>
<totfact> 0.25558016E+03</totfact>
</mgrwt>
</event>
<event>
 4    1  0.5531008E-005  0.3818173E+03  0.7818608E-02  0.1050264E+00
         -2   -1    0    0    0  501 -0.00000000000E+00  0.00000000000E+00  0.45903420938E+02  0.45903421009E+02  0.25500000000E-02 0. -1.
          2   -1    0    0  501    0  0.00000000000E+00 -0.00000000000E+00 -0.79397393243E+03  0.79397393244E+03  0.25500000000E-02 0.  1.
    5000001    1    1    2    0    0 -0.31133944512E+02  0.83493664571E+02 -0.29531838022E+03  0.34982632866E+03  0.16500000000E+03 0.  0.
   -5000001    1    1    2    0    0  0.31133944512E+02 -0.83493664571E+02 -0.45275213127E+03  0.49005102479E+03  0.16500000000E+03 0.  0.
<mgrwt>
<rscale>  0 0.38181734E+03</rscale>
<asrwt>0</asrwt>
<pdfrwt beam="1">  1        2 0.11342484E+00 0.38181734E+03</pdfrwt>
<pdfrwt beam="2">  1       -2 0.65576321E-02 0.38181734E+03</pdfrwt>
<totfact> 0.51065334E+03</totfact>
</mgrwt>
</event>
<event>
 4    1  0.5531008E-005  0.1267620E+04  0.7818608E-02  0.9055645E-01
         -2   -1    0    0    0  501 -0.00000000000E+00  0.00000000000E+00  0.13159228030E+04  0.13159228030E+04  0.25500000000E-02 0. -1.
          2   -1    0    0  501    0  0.00000000000E+00 -0.00000000000E+00 -0.30527245271E+03  0.30527245272E+03  0.25500000000E-02 0.  1.
    5000001    1    1    2    0    0 -0.43348004346E+03 -0.43189076872E+03  0.51484417587E+03  0.81653175665E+03  0.16500000000E+03 0.  0.
   -5000001    1    1    2    0    0  0.43348004346E+03  0.43189076872E+03  0.49580617446E+03  0.80466349912E+03  0.16500000000E+03 0.  0.
<mgrwt>
<rscale>  0 0.12676198E+04</rscale>
<asrwt>0</asrwt>
<pdfrwt beam="1">  1        2 0.43610351E-01 0.12676198E+04</pdfrwt>
<pdfrwt beam="2">  1       -2 0.18798897E+00 0.12676198E+04</pdfrwt>
<totfact> 0.18380553E+01</totfact>
</mgrwt>
</event>
<event>
 4    1  0.5531008E-005  0.7701940E+03  0.7818608E-02  0.9604191E-01
          2   -1    0    0  501    0  0.00000000000E+00  0.00000000000E+00  0.30615858775E+04  0.30615858775E+04  0.25500000000E-02 0.  1.
         -2   -1    0    0    0  501 -0.00000000000E+00 -0.00000000000E+00 -0.48438854357E+02  0.48438854424E+02  0.25500000000E-02 0. -1.
    5000001    1    1    2    0    0 -0.13619223971E+03 -0.30810160861E+03  0.18585910888E+04  0.18960645460E+04  0.16500000000E+03 0.  0.
   -5000001    1    1    2    0    0  0.13619223971E+03  0.30810160861E+03  0.11545559344E+04  0.12139601859E+04  0.16500000000E+03 0.  0.
<mgrwt>
<rscale>  0 0.77019403E+03</rscale>
<asrwt>0</asrwt>
<pdfrwt beam="1">  1        2 0.43736935E+00 0.77019403E+03</pdfrwt>
<pdfrwt beam="2">  1       -2 0.69198373E-02 0.77019403E+03</pdfrwt>
<totfact> 0.28279484E+02</totfact>
</mgrwt>
</event>
<event>
 4    1  0.5531008E-005  0.5132355E+03  0.7818608E-02  0.1010381E+00
         -2   -1    0    0    0  501 -0.00000000000E+00  0.00000000000E+00  0.65948834989E+02  0.65948835038E+02  0.25500000000E-02 0.  1.
          2   -1    0    0  501    0  0.00000000000E+00 -0.00000000000E+00 -0.99854189555E+03  0.99854189555E+03  0.25500000000E-02 0. -1.
    5000001    1    1    2    0    0  0.17381394262E+03  0.75406230252E+02 -0.35792144557E+03  0.43729869359E+03  0.16500000000E+03 0.  0.
   -5000001    1    1    2    0    0 -0.17381394262E+03 -0.75406230252E+02 -0.57467161499E+03  0.62719203700E+03  0.16500000000E+03 0.  0.
<mgrwt>
<rscale>  0 0.51323552E+03</rscale>
<asrwt>0</asrwt>
<pdfrwt beam="1">  1        2 0.14264883E+00 0.51323552E+03</pdfrwt>
<pdfrwt beam="2">  1       -2 0.94212627E-02 0.51323552E+03</pdfrwt>
<totfact> 0.21335241E+03</totfact>
</mgrwt>
</event>
<event>
 4    1  0.5531008E-005  0.4911469E+03  0.7818608E-02  0.1016116E+00
         -2   -1    0    0    0  501 -0.00000000000E+00  0.00000000000E+00  0.26224370807E+02  0.26224370931E+02  0.25500000000E-02 0. -1.
          2   -1    0    0  501    0  0.00000000000E+00 -0.00000000000E+00 -0.22996291490E+04  0.22996291491E+04  0.25500000000E-02 0.  1.
    5000001    1    1    2    0    0 -0.31585819518E+02  0.68408089844E+02 -0.35277131881E+03  0.39667358637E+03  0.16500000000E+03 0.  0.
   -5000001    1    1    2    0    0  0.31585819518E+02 -0.68408089844E+02 -0.19206334594E+04  0.19291799336E+04  0.16500000000E+03 0.  0.
<mgrwt>
<rscale>  0 0.49114693E+03</rscale>
<asrwt>0</asrwt>
<pdfrwt beam="1">  1        2 0.32851832E+00 0.49114693E+03</pdfrwt>
<pdfrwt beam="2">  1       -2 0.37463402E-02 0.49114693E+03</pdfrwt>
<totfact> 0.18843335E+03</totfact>
</mgrwt>
</event>
<event>
 4    1  0.5531008E-005  0.4046480E+03  0.7818608E-02  0.1042182E+00
          2   -1    0    0  501    0  0.00000000000E+00  0.00000000000E+00  0.17111326994E+03  0.17111326996E+03  0.25500000000E-02 0.  1.
         -2   -1    0    0    0  501 -0.00000000000E+00 -0.00000000000E+00 -0.23922745035E+03  0.23922745036E+03  0.25500000000E-02 0. -1.
    5000001    1    1    2    0    0 -0.69123656554E+02  0.90185508785E+02 -0.54020672637E+01  0.20041379249E+03  0.16500000000E+03 0.  0.
   -5000001    1    1    2    0    0  0.69123656554E+02 -0.90185508785E+02 -0.62712113147E+02  0.20992692782E+03  0.16500000000E+03 0.  0.
<mgrwt>
<rscale>  0 0.40464795E+03</rscale>
<asrwt>0</asrwt>
<pdfrwt beam="1">  1        2 0.24444753E-01 0.40464795E+03</pdfrwt>
<pdfrwt beam="2">  1       -2 0.34175350E-01 0.40464795E+03</pdfrwt>
<totfact> 0.17866053E+03</totfact>
</mgrwt>
</event>
<event>
 4    1  0.5531008E-005  0.5553807E+03  0.7818608E-02  0.1000256E+00
         -2   -1    0    0    0  501 -0.00000000000E+00  0.00000000000E+00  0.12073862853E+03  0.12073862855E+03  0.25500000000E-02 0. -1.
          2   -1    0    0  501    0  0.00000000000E+00 -0.00000000000E+00 -0.63866836985E+03  0.63866836986E+03  0.25500000000E-02 0.  1.
    5000001    1    1    2    0    0  0.57228590324E+02  0.16220836874E+03 -0.45378541578E+03  0.51257474578E+03  0.16500000000E+03 0.  0.
   -5000001    1    1    2    0    0 -0.57228590324E+02 -0.16220836874E+03 -0.64144325547E+02  0.24683225263E+03  0.16500000000E+03 0.  0.
<mgrwt>
<rscale>  0 0.55538075E+03</rscale>
<asrwt>0</asrwt>
<pdfrwt beam="1">  1        2 0.91238337E-01 0.55538075E+03</pdfrwt>
<pdfrwt beam="2">  1       -2 0.17248376E-01 0.55538075E+03</pdfrwt>
<totfact> 0.13896155E+03</totfact>
</mgrwt>
</event>
<event>
 4    1  0.5531008E-005  0.6307593E+03  0.7818608E-02  0.9843568E-01
          2   -1    0    0  501    0  0.00000000000E+00  0.00000000000E+00  0.97449494905E+02  0.97449494939E+02  0.25500000000E-02 0.  1.
         -2   -1    0    0    0  501 -0.00000000000E+00 -0.00000000000E+00 -0.10206755335E+04  0.10206755335E+04  0.25500000000E-02 0. -1.
    5000001    1    1    2    0    0  0.14042385620E+03  0.15973212619E+03 -0.17030147853E+03  0.31852912758E+03  0.16500000000E+03 0.  0.
   -5000001    1    1    2    0    0 -0.14042385620E+03 -0.15973212619E+03 -0.75292456005E+03  0.79959590085E+03  0.16500000000E+03 0.  0.
<mgrwt>
<rscale>  0 0.63075927E+03</rscale>
<asrwt>0</asrwt>
<pdfrwt beam="1">  1        2 0.13921357E-01 0.63075927E+03</pdfrwt>
<pdfrwt beam="2">  1       -2 0.14581078E+00 0.63075927E+03</pdfrwt>
<totfact> 0.14400058E+02</totfact>
</mgrwt>
</event>
<event>
 4    1  0.5531008E-005  0.3685151E+03  0.7818608E-02  0.1055262E+00
          2   -1    0    0  501    0  0.00000000000E+00  0.00000000000E+00  0.19559651423E+04  0.19559651423E+04  0.25500000000E-02 0.  1.
         -2   -1    0    0    0  501 -0.00000000000E+00 -0.00000000000E+00 -0.17357590513E+02  0.17357590700E+02  0.25500000000E-02 0. -1.
    5000001    1    1    2    0    0  0.43747019804E+02  0.45366232562E+02  0.68829459497E+03  0.71059576854E+03  0.16500000000E+03 0.  0.
   -5000001    1    1    2    0    0 -0.43747019804E+02 -0.45366232562E+02  0.12503129568E+04  0.12627269644E+04  0.16500000000E+03 0.  0.
<mgrwt>
<rscale>  0 0.36851509E+03</rscale>
<asrwt>0</asrwt>
<pdfrwt beam="1">  1        2 0.27942359E+00 0.36851509E+03</pdfrwt>
<pdfrwt beam="2">  1       -2 0.24796558E-02 0.36851509E+03</pdfrwt>
<totfact> 0.52243622E+03</totfact>
</mgrwt>
</event>
<event>
 4    1  0.5531008E-005  0.7249017E+03  0.7818608E-02  0.9675570E-01
         -2   -1    0    0    0  501 -0.00000000000E+00  0.00000000000E+00  0.10731071681E+03  0.10731071684E+03  0.25500000000E-02 0. -1.
          2   -1    0    0  501    0  0.00000000000E+00 -0.00000000000E+00 -0.12242078380E+04  0.12242078380E+04  0.25500000000E-02 0.  1.
    5000001    1    1    2    0    0 -0.30818297469E+03 -0.95521516582E+02 -0.54619338824E+03  0.65547946068E+03  0.16500000000E+03 0.  0.
   -5000001    1    1    2    0    0  0.30818297469E+03  0.95521516582E+02 -0.57070373290E+03  0.67603909411E+03  0.16500000000E+03 0.  0.
<mgrwt>
<rscale>  0 0.72490171E+03</rscale>
<asrwt>0</asrwt>
<pdfrwt beam="1">  1        2 0.17488683E+00 0.72490171E+03</pdfrwt>
<pdfrwt beam="2">  1       -2 0.15330103E-01 0.72490171E+03</pdfrwt>
<totfact> 0.70344032E+02</totfact>
</mgrwt>
</event>
<event>
 4    1  0.5531008E-005  0.4820265E+03  0.7818608E-02  0.1018580E+00
          2   -1    0    0  501    0  0.00000000000E+00  0.00000000000E+00  0.41065353642E+04  0.41065353642E+04  0.25500000000E-02 0.  1.
         -2   -1    0    0    0  501 -0.00000000000E+00 -0.00000000000E+00 -0.14145107007E+02  0.14145107237E+02  0.25500000000E-02 0. -1.
    5000001    1    1    2    0    0 -0.12594369989E+03 -0.11288994847E+03  0.16401178895E+04  0.16570508887E+04  0.16500000000E+03 0.  0.
   -5000001    1    1    2    0    0  0.12594369989E+03  0.11288994847E+03  0.24522723677E+04  0.24636295828E+04  0.16500000000E+03 0.  0.
<mgrwt>
<rscale>  0 0.48202648E+03</rscale>
<asrwt>0</asrwt>
<pdfrwt beam="1">  1        2 0.58664718E+00 0.48202648E+03</pdfrwt>
<pdfrwt beam="2">  1       -2 0.20207321E-02 0.48202648E+03</pdfrwt>
<totfact> 0.44814239E+02</totfact>
</mgrwt>
</event>
<event>
 4    1  0.5531008E-005  0.3981558E+03  0.7818608E-02  0.1044420E+00
         -2   -1    0    0    0  501 -0.00000000000E+00  0.00000000000E+00  0.25309831216E+02  0.25309831345E+02  0.25500000000E-02 0.  1.
          2   -1    0    0  501    0  0.00000000000E+00 -0.00000000000E+00 -0.15658740762E+04  0.15658740762E+04  0.25500000000E-02 0. -1.
    5000001    1    1    2    0    0  0.10368806348E+03 -0.39604685231E+02 -0.73295000707E+03  0.75944746920E+03  0.16500000000E+03 0.  0.
   -5000001    1    1    2    0    0 -0.10368806348E+03  0.39604685231E+02 -0.80761423787E+03  0.83173643831E+03  0.16500000000E+03 0.  0.
<mgrwt>
<rscale>  0 0.39815579E+03</rscale>
<asrwt>0</asrwt>
<pdfrwt beam="1">  1        2 0.22369624E+00 0.39815579E+03</pdfrwt>
<pdfrwt beam="2">  1       -2 0.36156912E-02 0.39815579E+03</pdfrwt>
<totfact> 0.46386465E+03</totfact>
</mgrwt>
</event>
<event>
 4    1  0.5531008E-005  0.4357648E+03  0.7818608E-02  0.1032054E+00
         -2   -1    0    0    0  501 -0.00000000000E+00  0.00000000000E+00  0.41860173689E+02  0.41860173766E+02  0.25500000000E-02 0. -1.
          2   -1    0    0  501    0  0.00000000000E+00 -0.00000000000E+00 -0.11340787490E+04  0.11340787490E+04  0.25500000000E-02 0.  1.
    5000001    1    1    2    0    0  0.14121646359E+03  0.12641272633E+02 -0.51352005807E+03  0.55770040471E+03  0.16500000000E+03 0.  0.
   -5000001    1    1    2    0    0 -0.14121646359E+03 -0.12641272633E+02 -0.57869851721E+03  0.61823851804E+03  0.16500000000E+03 0.  0.
<mgrwt>
<rscale>  0 0.43576477E+03</rscale>
<asrwt>0</asrwt>
<pdfrwt beam="1">  1        2 0.16201123E+00 0.43576477E+03</pdfrwt>
<pdfrwt beam="2">  1       -2 0.59800255E-02 0.43576477E+03</pdfrwt>
<totfact> 0.36422121E+03</totfact>
</mgrwt>
</event>
<event>
 4    1  0.5531008E-005  0.3958136E+03  0.7818608E-02  0.1045239E+00
         -2   -1    0    0    0  501 -0.00000000000E+00  0.00000000000E+00  0.47302898036E+02  0.47302898105E+02  0.25500000000E-02 0. -1.
          2   -1    0    0  501    0  0.00000000000E+00 -0.00000000000E+00 -0.82800640371E+03  0.82800640371E+03  0.25500000000E-02 0.  1.
    5000001    1    1    2    0    0 -0.39030700216E+02 -0.76568082525E+02 -0.24108455333E+03  0.30452065394E+03  0.16500000000E+03 0.  0.
   -5000001    1    1    2    0    0  0.39030700216E+02  0.76568082525E+02 -0.53961895234E+03  0.57078864788E+03  0.16500000000E+03 0.  0.
<mgrwt>
<rscale>  0 0.39581361E+03</rscale>
<asrwt>0</asrwt>
<pdfrwt beam="1">  1        2 0.11828662E+00 0.39581361E+03</pdfrwt>
<pdfrwt beam="2">  1       -2 0.67575574E-02 0.39581361E+03</pdfrwt>
<totfact> 0.46244569E+03</totfact>
</mgrwt>
</event>
<event>
 4    1  0.5531008E-005  0.3869922E+03  0.7818608E-02  0.1048379E+00
          2   -1    0    0  501    0  0.00000000000E+00  0.00000000000E+00  0.22677863134E+04  0.22677863134E+04  0.25500000000E-02 0.  1.
         -2   -1    0    0    0  501 -0.00000000000E+00 -0.00000000000E+00 -0.16509818536E+02  0.16509818733E+02  0.25500000000E-02 0. -1.
    5000001    1    1    2    0    0 -0.76678835163E+02 -0.65817183588E+02  0.11135480657E+04  0.11302326487E+04  0.16500000000E+03 0.  0.
   -5000001    1    1    2    0    0  0.76678835163E+02  0.65817183588E+02  0.11377284291E+04  0.11540634835E+04  0.16500000000E+03 0.  0.
<mgrwt>
<rscale>  0 0.38699220E+03</rscale>
<asrwt>0</asrwt>
<pdfrwt beam="1">  1        2 0.32396929E+00 0.38699220E+03</pdfrwt>
<pdfrwt beam="2">  1       -2 0.23585469E-02 0.38699220E+03</pdfrwt>
<totfact> 0.39460054E+03</totfact>
</mgrwt>
</event>
<event>
 4    1  0.5531008E-005  0.4942386E+03  0.7818608E-02  0.1015294E+00
         -2   -1    0    0    0  501 -0.00000000000E+00  0.00000000000E+00  0.44944088202E+02  0.44944088275E+02  0.25500000000E-02 0. -1.
          2   -1    0    0  501    0  0.00000000000E+00 -0.00000000000E+00 -0.13587536138E+04  0.13587536138E+04  0.25500000000E-02 0.  1.
    5000001    1    1    2    0    0 -0.14834725162E+03  0.71542174252E+01 -0.96522286510E+03  0.99042327780E+03  0.16500000000E+03 0.  0.
   -5000001    1    1    2    0    0  0.14834725162E+03 -0.71542174252E+01 -0.34858666052E+03  0.41327442430E+03  0.16500000000E+03 0.  0.
<mgrwt>
<rscale>  0 0.49423858E+03</rscale>
<asrwt>0</asrwt>
<pdfrwt beam="1">  1        2 0.19410763E+00 0.49423858E+03</pdfrwt>
<pdfrwt beam="2">  1       -2 0.64205849E-02 0.49423858E+03</pdfrwt>
<totfact> 0.24555445E+03</totfact>
</mgrwt>
</event>
<event>
 4    1  0.5531008E-005  0.6505784E+03  0.7818608E-02  0.9805694E-01
         -2   -1    0    0    0  501 -0.00000000000E+00  0.00000000000E+00  0.39515149201E+02  0.39515149284E+02  0.25500000000E-02 0. -1.
          2   -1    0    0  501    0  0.00000000000E+00 -0.00000000000E+00 -0.26777846604E+04  0.26777846604E+04  0.25500000000E-02 0.  1.
    5000001    1    1    2    0    0 -0.26207448387E+03 -0.87035236804E+02 -0.15207418957E+04  0.15543934768E+04  0.16500000000E+03 0.  0.
   -5000001    1    1    2    0    0  0.26207448387E+03  0.87035236804E+02 -0.11175276155E+04  0.11629063328E+04  0.16500000000E+03 0.  0.
<mgrwt>
<rscale>  0 0.65057839E+03</rscale>
<asrwt>0</asrwt>
<pdfrwt beam="1">  1        2 0.38254055E+00 0.65057839E+03</pdfrwt>
<pdfrwt beam="2">  1       -2 0.56450230E-02 0.65057839E+03</pdfrwt>
<totfact> 0.63346286E+02</totfact>
</mgrwt>
</event>
<event>
 4    1  0.5531008E-005  0.4378901E+03  0.7818608E-02  0.1031396E+00
         -2   -1    0    0    0  501 -0.00000000000E+00  0.00000000000E+00  0.38426988099E+02  0.38426988184E+02  0.25500000000E-02 0. -1.
          2   -1    0    0  501    0  0.00000000000E+00 -0.00000000000E+00 -0.12474807988E+04  0.12474807988E+04  0.25500000000E-02 0.  1.
    5000001    1    1    2    0    0  0.77756374598E+02  0.83113297277E+02 -0.34587172877E+03  0.39975758496E+03  0.16500000000E+03 0.  0.
   -5000001    1    1    2    0    0 -0.77756374598E+02 -0.83113297277E+02 -0.86318208192E+03  0.88615020201E+03  0.16500000000E+03 0.  0.
<mgrwt>
<rscale>  0 0.43789008E+03</rscale>
<asrwt>0</asrwt>
<pdfrwt beam="1">  1        2 0.17821152E+00 0.43789008E+03</pdfrwt>
<pdfrwt beam="2">  1       -2 0.54895705E-02 0.43789008E+03</pdfrwt>
<totfact> 0.35972986E+03</totfact>
</mgrwt>
</event>
<event>
 4    1  0.5531008E-005  0.3948657E+03  0.7818608E-02  0.1045572E+00
          2   -1    0    0  501    0  0.00000000000E+00  0.00000000000E+00  0.28346134793E+03  0.28346134794E+03  0.25500000000E-02 0.  1.
         -2   -1    0    0    0  501 -0.00000000000E+00 -0.00000000000E+00 -0.13751335918E+03  0.13751335920E+03  0.25500000000E-02 0. -1.
    5000001    1    1    2    0    0 -0.75368340016E+02  0.74969952300E+02  0.95686176036E+02  0.21836145427E+03  0.16500000000E+03 0.  0.
   -5000001    1    1    2    0    0  0.75368340016E+02 -0.74969952300E+02  0.50261812720E+02  0.20261325288E+03  0.16500000000E+03 0.  0.
<mgrwt>
<rscale>  0 0.39486566E+03</rscale>
<asrwt>0</asrwt>
<pdfrwt beam="1">  1        2 0.40494478E-01 0.39486566E+03</pdfrwt>
<pdfrwt beam="2">  1       -2 0.19644766E-01 0.39486566E+03</pdfrwt>
<totfact> 0.27523787E+03</totfact>
</mgrwt>
</event>
<event>
 4    1  0.5531008E-005  0.3973980E+03  0.7818608E-02  0.1044684E+00
         -2   -1    0    0    0  501 -0.00000000000E+00  0.00000000000E+00  0.13889226788E+03  0.13889226790E+03  0.25500000000E-02 0. -1.
          2   -1    0    0  501    0  0.00000000000E+00 -0.00000000000E+00 -0.28425834762E+03  0.28425834763E+03  0.25500000000E-02 0.  1.
    5000001    1    1    2    0    0 -0.48819096287E+02  0.60991200673E+02 -0.15620770855E+03  0.24026876395E+03  0.16500000000E+03 0.  0.
   -5000001    1    1    2    0    0  0.48819096287E+02 -0.60991200673E+02  0.10841628811E+02  0.18288185158E+03  0.16500000000E+03 0.  0.
<mgrwt>
<rscale>  0 0.39739797E+03</rscale>
<asrwt>0</asrwt>
<pdfrwt beam="1">  1        2 0.40608335E-01 0.39739797E+03</pdfrwt>
<pdfrwt beam="2">  1       -2 0.19841753E-01 0.39739797E+03</pdfrwt>
<totfact> 0.26975070E+03</totfact>
</mgrwt>
</event>
<event>
 4    1  0.5531008E-005  0.3767240E+03  0.7818608E-02  0.1052151E+00
         -2   -1    0    0    0  501 -0.00000000000E+00  0.00000000000E+00  0.30780160654E+02  0.30780160759E+02  0.25500000000E-02 0. -1.
          2   -1    0    0  501    0  0.00000000000E+00 -0.00000000000E+00 -0.11526983854E+04  0.11526983854E+04  0.25500000000E-02 0.  1.
    5000001    1    1    2    0    0  0.20999587154E+02  0.86493517198E+02 -0.50362088979E+03  0.53738357978E+03  0.16500000000E+03 0.  0.
   -5000001    1    1    2    0    0 -0.20999587154E+02 -0.86493517198E+02 -0.61829733495E+03  0.64609496638E+03  0.16500000000E+03 0.  0.
<mgrwt>
<rscale>  0 0.37672399E+03</rscale>
<asrwt>0</asrwt>
<pdfrwt beam="1">  1        2 0.16467117E+00 0.37672399E+03</pdfrwt>
<pdfrwt beam="2">  1       -2 0.43971665E-02 0.37672399E+03</pdfrwt>
<totfact> 0.56974770E+03</totfact>
</mgrwt>
</event>
<event>
 4    1  0.5531008E-005  0.8747612E+03  0.7818608E-02  0.9457693E-01
          2   -1    0    0  501    0  0.00000000000E+00  0.00000000000E+00  0.53798492823E+03  0.53798492823E+03  0.25500000000E-02 0. -1.
         -2   -1    0    0    0  501 -0.00000000000E+00 -0.00000000000E+00 -0.35558946933E+03  0.35558946934E+03  0.25500000000E-02 0.  1.
    5000001    1    1    2    0    0 -0.31279345822E+03  0.92149458357E+02  0.33666879796E+03  0.49689249311E+03  0.16500000000E+03 0.  0.
   -5000001    1    1    2    0    0  0.31279345822E+03 -0.92149458357E+02 -0.15427333906E+03  0.39668190446E+03  0.16500000000E+03 0.  0.
<mgrwt>
<rscale>  0 0.87476117E+03</rscale>
<asrwt>0</asrwt>
<pdfrwt beam="1">  1        2 0.76854989E-01 0.87476117E+03</pdfrwt>
<pdfrwt beam="2">  1       -2 0.50798496E-01 0.87476117E+03</pdfrwt>
<totfact> 0.22688169E+02</totfact>
</mgrwt>
</event>
<event>
 4    1  0.5531008E-005  0.6373055E+03  0.7818608E-02  0.9830896E-01
          2   -1    0    0  501    0  0.00000000000E+00  0.00000000000E+00  0.98331763296E+03  0.98331763296E+03  0.25500000000E-02 0.  1.
         -2   -1    0    0    0  501 -0.00000000000E+00 -0.00000000000E+00 -0.10326221769E+03  0.10326221772E+03  0.25500000000E-02 0. -1.
    5000001    1    1    2    0    0 -0.27082089988E+03 -0.31149183780E+02  0.44100420066E+03  0.54408081795E+03  0.16500000000E+03 0.  0.
   -5000001    1    1    2    0    0  0.27082089988E+03  0.31149183780E+02  0.43905121461E+03  0.54249903273E+03  0.16500000000E+03 0.  0.
<mgrwt>
<rscale>  0 0.63730545E+03</rscale>
<asrwt>0</asrwt>
<pdfrwt beam="1">  1        2 0.14047394E+00 0.63730545E+03</pdfrwt>
<pdfrwt beam="2">  1       -2 0.14751746E-01 0.63730545E+03</pdfrwt>
<totfact> 0.10412942E+03</totfact>
</mgrwt>
</event>
<event>
 4    1  0.5531008E-005  0.8365502E+03  0.7818608E-02  0.9508569E-01
          2   -1    0    0  501    0  0.00000000000E+00  0.00000000000E+00  0.31386949117E+03  0.31386949118E+03  0.25500000000E-02 0.  1.
         -2   -1    0    0    0  501 -0.00000000000E+00 -0.00000000000E+00 -0.55741020764E+03  0.55741020764E+03  0.25500000000E-02 0. -1.
    5000001    1    1    2    0    0 -0.12770099702E+03  0.83596513997E+02  0.24562495587E+03  0.33294525186E+03  0.16500000000E+03 0.  0.
   -5000001    1    1    2    0    0  0.12770099702E+03 -0.83596513997E+02 -0.48916567234E+03  0.53833444696E+03  0.16500000000E+03 0.  0.
<mgrwt>
<rscale>  0 0.83655020E+03</rscale>
<asrwt>0</asrwt>
<pdfrwt beam="1">  1        2 0.44838499E-01 0.83655020E+03</pdfrwt>
<pdfrwt beam="2">  1       -2 0.79630030E-01 0.83655020E+03</pdfrwt>
<totfact> 0.15938092E+02</totfact>
</mgrwt>
</event>
<event>
 4    1  0.5531008E-005  0.8832651E+03  0.7818608E-02  0.9446746E-01
          2   -1    0    0  501    0  0.00000000000E+00  0.00000000000E+00  0.82139740072E+03  0.82139740073E+03  0.25500000000E-02 0.  1.
         -2   -1    0    0    0  501 -0.00000000000E+00 -0.00000000000E+00 -0.23744817835E+03  0.23744817837E+03  0.25500000000E-02 0. -1.
    5000001    1    1    2    0    0 -0.27179635261E+03  0.24776888845E+03  0.75688831395E+02  0.41014202244E+03  0.16500000000E+03 0.  0.
   -5000001    1    1    2    0    0  0.27179635261E+03 -0.24776888845E+03  0.50826039098E+03  0.64870355665E+03  0.16500000000E+03 0.  0.
<mgrwt>
<rscale>  0 0.88326512E+03</rscale>
<asrwt>0</asrwt>
<pdfrwt beam="1">  1        2 0.11734249E+00 0.88326512E+03</pdfrwt>
<pdfrwt beam="2">  1       -2 0.33921168E-01 0.88326512E+03</pdfrwt>
<totfact> 0.29896352E+02</totfact>
</mgrwt>
</event>
<event>
 4    1  0.5531008E-005  0.5143197E+03  0.7818608E-02  0.1010107E+00
         -2   -1    0    0    0  501 -0.00000000000E+00  0.00000000000E+00  0.27753285065E+02  0.27753285183E+02  0.25500000000E-02 0. -1.
          2   -1    0    0  501    0  0.00000000000E+00 -0.00000000000E+00 -0.23828237860E+04  0.23828237860E+04  0.25500000000E-02 0.  1.
    5000001    1    1    2    0    0 -0.18041347063E+02 -0.12618887406E+03 -0.47204714404E+03  0.51604518052E+03  0.16500000000E+03 0.  0.
   -5000001    1    1    2    0    0  0.18041347063E+02  0.12618887406E+03 -0.18830233569E+04  0.18945318907E+04  0.16500000000E+03 0.  0.
<mgrwt>
<rscale>  0 0.51431970E+03</rscale>
<asrwt>0</asrwt>
<pdfrwt beam="1">  1        2 0.34040327E+00 0.51431970E+03</pdfrwt>
<pdfrwt beam="2">  1       -2 0.39647565E-02 0.51431970E+03</pdfrwt>
<totfact> 0.15668847E+03</totfact>
</mgrwt>
</event>
<event>
 4    1  0.5531008E-005  0.9960681E+03  0.7818608E-02  0.9312868E-01
         -2   -1    0    0    0  501 -0.00000000000E+00  0.00000000000E+00  0.15167609290E+03  0.15167609293E+03  0.25500000000E-02 0. -1.
          2   -1    0    0  501    0  0.00000000000E+00 -0.00000000000E+00 -0.16353133304E+04  0.16353133304E+04  0.25500000000E-02 0.  1.
    5000001    1    1    2    0    0  0.36453648874E+03 -0.19198909312E+03 -0.11472338056E+04  0.12300882360E+04  0.16500000000E+03 0.  0.
   -5000001    1    1    2    0    0 -0.36453648874E+03  0.19198909312E+03 -0.33640343186E+03  0.55690118735E+03  0.16500000000E+03 0.  0.
<mgrwt>
<rscale>  0 0.99606814E+03</rscale>
<asrwt>0</asrwt>
<pdfrwt beam="1">  1        2 0.23361618E+00 0.99606814E+03</pdfrwt>
<pdfrwt beam="2">  1       -2 0.21668014E-01 0.99606814E+03</pdfrwt>
<totfact> 0.22930367E+02</totfact>
</mgrwt>
</event>
<event>
 4    1  0.5531008E-005  0.3542056E+03  0.7818608E-02  0.1060902E+00
         -2   -1    0    0    0  501 -0.00000000000E+00  0.00000000000E+00  0.47383192830E+02  0.47383192899E+02  0.25500000000E-02 0. -1.
          2   -1    0    0  501    0  0.00000000000E+00 -0.00000000000E+00 -0.66195204662E+03  0.66195204663E+03  0.25500000000E-02 0.  1.
    5000001    1    1    2    0    0  0.13660560794E+02  0.52181287838E+02 -0.23702442352E+03  0.29379427337E+03  0.16500000000E+03 0.  0.
   -5000001    1    1    2    0    0 -0.13660560794E+02 -0.52181287838E+02 -0.37754443028E+03  0.41554096616E+03  0.16500000000E+03 0.  0.
<mgrwt>
<rscale>  0 0.35420560E+03</rscale>
<asrwt>0</asrwt>
<pdfrwt beam="1">  1        2 0.94564573E-01 0.35420560E+03</pdfrwt>
<pdfrwt beam="2">  1       -2 0.67690280E-02 0.35420560E+03</pdfrwt>
<totfact> 0.60522532E+03</totfact>
</mgrwt>
</event>
<event>
 4    1  0.5531008E-005  0.5447032E+03  0.7818608E-02  0.1002727E+00
          2   -1    0    0  501    0  0.00000000000E+00  0.00000000000E+00  0.71665205464E+02  0.71665205509E+02  0.25500000000E-02 0.  1.
         -2   -1    0    0    0  501 -0.00000000000E+00 -0.00000000000E+00 -0.10350265521E+04  0.10350265521E+04  0.25500000000E-02 0. -1.
    5000001    1    1    2    0    0 -0.14241026842E+03 -0.15702551408E+03 -0.39053089301E+03  0.47400113399E+03  0.16500000000E+03 0.  0.
   -5000001    1    1    2    0    0  0.14241026842E+03  0.15702551408E+03 -0.57283045361E+03  0.63269062361E+03  0.16500000000E+03 0.  0.
<mgrwt>
<rscale>  0 0.54470319E+03</rscale>
<asrwt>0</asrwt>
<pdfrwt beam="1">  1        2 0.10237887E-01 0.54470319E+03</pdfrwt>
<pdfrwt beam="2">  1       -2 0.14786093E+00 0.54470319E+03</pdfrwt>
<totfact> 0.20411629E+02</totfact>
</mgrwt>
</event>
<event>
 4    1  0.5531008E-005  0.3555426E+03  0.7818608E-02  0.1060363E+00
         -2   -1    0    0    0  501 -0.00000000000E+00  0.00000000000E+00  0.94985505837E+01  0.94985509260E+01  0.25500000000E-02 0. -1.
          2   -1    0    0  501    0  0.00000000000E+00 -0.00000000000E+00 -0.33271001354E+04  0.33271001354E+04  0.25500000000E-02 0.  1.
    5000001    1    1    2    0    0 -0.34036050753E+02 -0.40507029919E+02 -0.12859672064E+04  0.12975885049E+04  0.16500000000E+03 0.  0.
   -5000001    1    1    2    0    0  0.34036050753E+02  0.40507029919E+02 -0.20316343784E+04  0.20390101814E+04  0.16500000000E+03 0.  0.
<mgrwt>
<rscale>  0 0.35554257E+03</rscale>
<asrwt>0</asrwt>
<pdfrwt beam="1">  1        2 0.47529927E+00 0.35554257E+03</pdfrwt>
<pdfrwt beam="2">  1       -2 0.13569380E-02 0.35554257E+03</pdfrwt>
<totfact> 0.24954105E+03</totfact>
</mgrwt>
</event>
<event>
 4    1  0.5531008E-005  0.3692919E+03  0.7818608E-02  0.1054964E+00
          2   -1    0    0  501    0  0.00000000000E+00  0.00000000000E+00  0.22777851241E+03  0.22777851242E+03  0.25500000000E-02 0.  1.
         -2   -1    0    0    0  501 -0.00000000000E+00 -0.00000000000E+00 -0.14968107732E+03  0.14968107734E+03  0.25500000000E-02 0. -1.
    5000001    1    1    2    0    0  0.32499110340E+02  0.29900602420E+02 -0.32637293503E+02  0.17389776055E+03  0.16500000000E+03 0.  0.
   -5000001    1    1    2    0    0 -0.32499110340E+02 -0.29900602420E+02  0.11073472859E+03  0.20356182922E+03  0.16500000000E+03 0.  0.
<mgrwt>
<rscale>  0 0.36929193E+03</rscale>
<asrwt>0</asrwt>
<pdfrwt beam="1">  1        2 0.32539788E-01 0.36929193E+03</pdfrwt>
<pdfrwt beam="2">  1       -2 0.21383011E-01 0.36929193E+03</pdfrwt>
<totfact> 0.30168869E+03</totfact>
</mgrwt>
</event>
<event>
 4    1  0.5531008E-005  0.5915759E+03  0.7818608E-02  0.9923039E-01
          2   -1    0    0  501    0  0.00000000000E+00  0.00000000000E+00  0.23984452811E+04  0.23984452811E+04  0.25500000000E-02 0.  1.
         -2   -1    0    0    0  501 -0.00000000000E+00 -0.00000000000E+00 -0.36478013810E+02  0.36478013900E+02  0.25500000000E-02 0. -1.
    5000001    1    1    2    0    0  0.25809966328E+02 -0.21882315104E+03  0.73547034713E+03  0.78529698669E+03  0.16500000000E+03 0.  0.
   -5000001    1    1    2    0    0 -0.25809966328E+02  0.21882315104E+03  0.16264969201E+04  0.16496263083E+04  0.16500000000E+03 0.  0.
<mgrwt>
<rscale>  0 0.59157593E+03</rscale>
<asrwt>0</asrwt>
<pdfrwt beam="1">  1        2 0.34263513E+00 0.59157593E+03</pdfrwt>
<pdfrwt beam="2">  1       -2 0.52111435E-02 0.59157593E+03</pdfrwt>
<totfact> 0.10042629E+03</totfact>
</mgrwt>
</event>
<event>
 4    1  0.5531008E-005  0.3915292E+03  0.7818608E-02  0.1046753E+00
         -2   -1    0    0    0  501 -0.00000000000E+00  0.00000000000E+00  0.29774470998E+02  0.29774471107E+02  0.25500000000E-02 0. -1.
          2   -1    0    0  501    0  0.00000000000E+00 -0.00000000000E+00 -0.12871354935E+04  0.12871354935E+04  0.25500000000E-02 0.  1.
    5000001    1    1    2    0    0  0.96150874795E+02  0.35799795398E+02 -0.70913524323E+03  0.73527165678E+03  0.16500000000E+03 0.  0.
   -5000001    1    1    2    0    0 -0.96150874795E+02 -0.35799795398E+02 -0.54822577927E+03  0.58163830782E+03  0.16500000000E+03 0.  0.
<mgrwt>
<rscale>  0 0.39152920E+03</rscale>
<asrwt>0</asrwt>
<pdfrwt beam="1">  1        2 0.18387646E+00 0.39152920E+03</pdfrwt>
<pdfrwt beam="2">  1       -2 0.42534967E-02 0.39152920E+03</pdfrwt>
<totfact> 0.50615239E+03</totfact>
</mgrwt>
</event>
<event>
 4    1  0.5531008E-005  0.5543966E+03  0.7818608E-02  0.1000481E+00
         -2   -1    0    0    0  501 -0.00000000000E+00  0.00000000000E+00  0.17561721793E+03  0.17561721794E+03  0.25500000000E-02 0. -1.
          2   -1    0    0  501    0  0.00000000000E+00 -0.00000000000E+00 -0.43753631761E+03  0.43753631762E+03  0.25500000000E-02 0.  1.
    5000001    1    1    2    0    0  0.99126637383E+02 -0.19872259053E+03 -0.15002462074E+03  0.31472074138E+03  0.16500000000E+03 0.  0.
   -5000001    1    1    2    0    0 -0.99126637383E+02  0.19872259053E+03 -0.11189447894E+03  0.29843279418E+03  0.16500000000E+03 0.  0.
<mgrwt>
<rscale>  0 0.55439665E+03</rscale>
<asrwt>0</asrwt>
<pdfrwt beam="1">  1        2 0.62505188E-01 0.55439665E+03</pdfrwt>
<pdfrwt beam="2">  1       -2 0.25088174E-01 0.55439665E+03</pdfrwt>
<totfact> 0.11141884E+03</totfact>
</mgrwt>
</event>
<event>
 4    1  0.5531008E-005  0.9365075E+03  0.7818608E-02  0.9381062E-01
          2   -1    0    0  501    0  0.00000000000E+00  0.00000000000E+00  0.12655454156E+04  0.12655454156E+04  0.25500000000E-02 0.  1.
         -2   -1    0    0    0  501 -0.00000000000E+00 -0.00000000000E+00 -0.17325460043E+03  0.17325460045E+03  0.25500000000E-02 0. -1.
    5000001    1    1    2    0    0 -0.20115431800E+03  0.38877402989E+03  0.51435159497E+03  0.69526316544E+03  0.16500000000E+03 0.  0.
   -5000001    1    1    2    0    0  0.20115431800E+03 -0.38877402989E+03  0.57793922017E+03  0.74353685059E+03  0.16500000000E+03 0.  0.
<mgrwt>
<rscale>  0 0.93650748E+03</rscale>
<asrwt>0</asrwt>
<pdfrwt beam="1">  1        2 0.18079220E+00 0.93650748E+03</pdfrwt>
<pdfrwt beam="2">  1       -2 0.24750657E-01 0.93650748E+03</pdfrwt>
<totfact> 0.28607539E+02</totfact>
</mgrwt>
</event>
<event>
 4    1  0.5531008E-005  0.7503134E+03  0.7818608E-02  0.9634859E-01
          2   -1    0    0  501    0  0.00000000000E+00  0.00000000000E+00  0.75704711615E+03  0.75704711616E+03  0.25500000000E-02 0.  1.
         -2   -1    0    0    0  501 -0.00000000000E+00 -0.00000000000E+00 -0.18590990976E+03  0.18590990977E+03  0.25500000000E-02 0. -1.
    5000001    1    1    2    0    0  0.31007483062E+02 -0.31501822536E+03  0.14052619161E+03  0.38362814918E+03  0.16500000000E+03 0.  0.
   -5000001    1    1    2    0    0 -0.31007483062E+02  0.31501822536E+03  0.43061101479E+03  0.55932887676E+03  0.16500000000E+03 0.  0.
<mgrwt>
<rscale>  0 0.75031343E+03</rscale>
<asrwt>0</asrwt>
<pdfrwt beam="1">  1        2 0.10814959E+00 0.75031343E+03</pdfrwt>
<pdfrwt beam="2">  1       -2 0.26558558E-01 0.75031343E+03</pdfrwt>
<totfact> 0.52554752E+02</totfact>
</mgrwt>
</event>
<event>
 4    1  0.5531008E-005  0.6682631E+03  0.7818608E-02  0.9773101E-01
         -2   -1    0    0    0  501 -0.00000000000E+00  0.00000000000E+00  0.51969921822E+03  0.51969921822E+03  0.25500000000E-02 0. -1.
          2   -1    0    0  501    0  0.00000000000E+00 -0.00000000000E+00 -0.21482408338E+03  0.21482408340E+03  0.25500000000E-02 0.  1.
    5000001    1    1    2    0    0  0.28877533090E+02  0.23066282918E+03 -0.39142132654E+02  0.28774356505E+03  0.16500000000E+03 0.  0.
   -5000001    1    1    2    0    0 -0.28877533090E+02 -0.23066282918E+03  0.34401726749E+03  0.44677973657E+03  0.16500000000E+03 0.  0.
<mgrwt>
<rscale>  0 0.66826315E+03</rscale>
<asrwt>0</asrwt>
<pdfrwt beam="1">  1        2 0.30689155E-01 0.66826315E+03</pdfrwt>
<pdfrwt beam="2">  1       -2 0.74242745E-01 0.66826315E+03</pdfrwt>
<totfact> 0.28601475E+02</totfact>
</mgrwt>
</event>
<event>
 4    1  0.5531008E-005  0.4321431E+03  0.7818608E-02  0.1033185E+00
          2   -1    0    0  501    0  0.00000000000E+00  0.00000000000E+00  0.57483470326E+03  0.57483470327E+03  0.25500000000E-02 0.  1.
         -2   -1    0    0    0  501 -0.00000000000E+00 -0.00000000000E+00 -0.81217972638E+02  0.81217972678E+02  0.25500000000E-02 0. -1.
    5000001    1    1    2    0    0  0.72710151207E+02  0.11352724424E+03  0.30126504332E+03  0.36899976639E+03  0.16500000000E+03 0.  0.
   -5000001    1    1    2    0    0 -0.72710151207E+02 -0.11352724424E+03  0.19235168731E+03  0.28705290955E+03  0.16500000000E+03 0.  0.
<mgrwt>
<rscale>  0 0.43214307E+03</rscale>
<asrwt>0</asrwt>
<pdfrwt beam="1">  1        2 0.82119246E-01 0.43214307E+03</pdfrwt>
<pdfrwt beam="2">  1       -2 0.11602567E-01 0.43214307E+03</pdfrwt>
<totfact> 0.30398202E+03</totfact>
</mgrwt>
</event>
<event>
 4    1  0.5531008E-005  0.4025694E+03  0.7818608E-02  0.1042894E+00
          2   -1    0    0  501    0  0.00000000000E+00  0.00000000000E+00  0.14267063958E+03  0.14267063960E+03  0.25500000000E-02 0.  1.
         -2   -1    0    0    0  501 -0.00000000000E+00 -0.00000000000E+00 -0.28397944218E+03  0.28397944219E+03  0.25500000000E-02 0. -1.
    5000001    1    1    2    0    0 -0.94769890374E+02  0.50963860917E+02 -0.11450423194E+03  0.22784834073E+03  0.16500000000E+03 0.  0.
   -5000001    1    1    2    0    0  0.94769890374E+02 -0.50963860917E+02 -0.26804570659E+02  0.19880174106E+03  0.16500000000E+03 0.  0.
<mgrwt>
<rscale>  0 0.40256939E+03</rscale>
<asrwt>0</asrwt>
<pdfrwt beam="1">  1        2 0.20381520E-01 0.40256939E+03</pdfrwt>
<pdfrwt beam="2">  1       -2 0.40568492E-01 0.40256939E+03</pdfrwt>
<totfact> 0.15877146E+03</totfact>
</mgrwt>
</event>
<event>
 4    1  0.5531008E-005  0.3843771E+03  0.7818608E-02  0.1049328E+00
          2   -1    0    0  501    0  0.00000000000E+00  0.00000000000E+00  0.81111571811E+03  0.81111571811E+03  0.25500000000E-02 0.  1.
         -2   -1    0    0    0  501 -0.00000000000E+00 -0.00000000000E+00 -0.45537811945E+02  0.45537812017E+02  0.25500000000E-02 0. -1.
    5000001    1    1    2    0    0  0.19720118516E+02  0.93744448285E+02  0.33126206270E+03  0.38227798634E+03  0.16500000000E+03 0.  0.
   -5000001    1    1    2    0    0 -0.19720118516E+02 -0.93744448285E+02  0.43431584346E+03  0.47437554379E+03  0.16500000000E+03 0.  0.
<mgrwt>
<rscale>  0 0.38437708E+03</rscale>
<asrwt>0</asrwt>
<pdfrwt beam="1">  1        2 0.11587368E+00 0.38437708E+03</pdfrwt>
<pdfrwt beam="2">  1       -2 0.65054015E-02 0.38437708E+03</pdfrwt>
<totfact> 0.50341155E+03</totfact>
</mgrwt>
</event>
<event>
 4    1  0.5531008E-005  0.1053700E+04  0.7818608E-02  0.9251532E-01
         -2   -1    0    0    0  501 -0.00000000000E+00  0.00000000000E+00  0.12630165676E+03  0.12630165679E+03  0.25500000000E-02 0. -1.
          2   -1    0    0  501    0  0.00000000000E+00 -0.00000000000E+00 -0.21976825810E+04  0.21976825810E+04  0.25500000000E-02 0.  1.
    5000001    1    1    2    0    0  0.36019794296E+03  0.16785418817E+03 -0.36515954104E+03  0.56434393504E+03  0.16500000000E+03 0.  0.
   -5000001    1    1    2    0    0 -0.36019794296E+03 -0.16785418817E+03 -0.17062213832E+04  0.17596403028E+04  0.16500000000E+03 0.  0.
<mgrwt>
<rscale>  0 0.10537001E+04</rscale>
<asrwt>0</asrwt>
<pdfrwt beam="1">  1        2 0.31395463E+00 0.10537001E+04</pdfrwt>
<pdfrwt beam="2">  1       -2 0.18043095E-01 0.10537001E+04</pdfrwt>
<totfact> 0.16208430E+02</totfact>
</mgrwt>
</event>
<event>
 4    1  0.5531008E-005  0.4836655E+03  0.7818608E-02  0.1018133E+00
         -2   -1    0    0    0  501 -0.00000000000E+00  0.00000000000E+00  0.26136021162E+02  0.26136021287E+02  0.25500000000E-02 0. -1.
          2   -1    0    0  501    0  0.00000000000E+00 -0.00000000000E+00 -0.22376424216E+04  0.22376424216E+04  0.25500000000E-02 0.  1.
    5000001    1    1    2    0    0 -0.11197895277E+03  0.13651985663E+03 -0.10635997330E+04  0.10907091038E+04  0.16500000000E+03 0.  0.
   -5000001    1    1    2    0    0  0.11197895277E+03 -0.13651985663E+03 -0.11479066675E+04  0.11730693391E+04  0.16500000000E+03 0.  0.
<mgrwt>
<rscale>  0 0.48366546E+03</rscale>
<asrwt>0</asrwt>
<pdfrwt beam="1">  1        2 0.31966308E+00 0.48366546E+03</pdfrwt>
<pdfrwt beam="2">  1       -2 0.37337187E-02 0.48366546E+03</pdfrwt>
<totfact> 0.20354642E+03</totfact>
</mgrwt>
</event>
<event>
 4    1  0.5531008E-005  0.9463392E+03  0.7818608E-02  0.9369440E-01
          2   -1    0    0  501    0  0.00000000000E+00  0.00000000000E+00  0.10953263046E+04  0.10953263046E+04  0.25500000000E-02 0.  1.
         -2   -1    0    0    0  501 -0.00000000000E+00 -0.00000000000E+00 -0.20440434502E+03  0.20440434504E+03  0.25500000000E-02 0. -1.
    5000001    1    1    2    0    0  0.34909403078E+03 -0.25819314727E+03  0.56932969274E+03  0.73477319130E+03  0.16500000000E+03 0.  0.
   -5000001    1    1    2    0    0 -0.34909403078E+03  0.25819314727E+03  0.32159226681E+03  0.56495745831E+03  0.16500000000E+03 0.  0.
<mgrwt>
<rscale>  0 0.94633917E+03</rscale>
<asrwt>0</asrwt>
<pdfrwt beam="1">  1        2 0.15647519E+00 0.94633917E+03</pdfrwt>
<pdfrwt beam="2">  1       -2 0.29200620E-01 0.94633917E+03</pdfrwt>
<totfact> 0.26454647E+02</totfact>
</mgrwt>
</event>
<event>
 4    1  0.5531008E-005  0.7915117E+03  0.7818608E-02  0.9572386E-01
         -2   -1    0    0    0  501 -0.00000000000E+00  0.00000000000E+00  0.13232297041E+03  0.13232297043E+03  0.25500000000E-02 0. -1.
          2   -1    0    0  501    0  0.00000000000E+00 -0.00000000000E+00 -0.11836394101E+04  0.11836394101E+04  0.25500000000E-02 0.  1.
    5000001    1    1    2    0    0  0.30704325699E+03 -0.18368896657E+03 -0.46388476014E+03  0.60863065055E+03  0.16500000000E+03 0.  0.
   -5000001    1    1    2    0    0 -0.30704325699E+03  0.18368896657E+03 -0.58743167957E+03  0.70733173000E+03  0.16500000000E+03 0.  0.
<mgrwt>
<rscale>  0 0.79151167E+03</rscale>
<asrwt>0</asrwt>
<pdfrwt beam="1">  1        2 0.16909134E+00 0.79151167E+03</pdfrwt>
<pdfrwt beam="2">  1       -2 0.18903282E-01 0.79151167E+03</pdfrwt>
<totfact> 0.51627209E+02</totfact>
</mgrwt>
</event>
<event>
 4    1  0.5531008E-005  0.5213521E+03  0.7818608E-02  0.1008351E+00
         -2   -1    0    0    0  501 -0.00000000000E+00  0.00000000000E+00  0.50976921243E+02  0.50976921307E+02  0.25500000000E-02 0. -1.
          2   -1    0    0  501    0  0.00000000000E+00 -0.00000000000E+00 -0.13329952683E+04  0.13329952683E+04  0.25500000000E-02 0.  1.
    5000001    1    1    2    0    0  0.74634814647E+02 -0.11791584349E+03 -0.25401787091E+03  0.33350349390E+03  0.16500000000E+03 0.  0.
   -5000001    1    1    2    0    0 -0.74634814647E+02  0.11791584349E+03 -0.10280004761E+04  0.10504686957E+04  0.16500000000E+03 0.  0.
<mgrwt>
<rscale>  0 0.52135207E+03</rscale>
<asrwt>0</asrwt>
<pdfrwt beam="1">  1        2 0.19042787E+00 0.52135207E+03</pdfrwt>
<pdfrwt beam="2">  1       -2 0.72824182E-02 0.52135207E+03</pdfrwt>
<totfact> 0.20783889E+03</totfact>
</mgrwt>
</event>
<event>
 4    1  0.5531008E-005  0.6484680E+03  0.7818608E-02  0.9809658E-01
         -2   -1    0    0    0  501 -0.00000000000E+00  0.00000000000E+00  0.46571455376E+02  0.46571455445E+02  0.25500000000E-02 0. -1.
          2   -1    0    0  501    0  0.00000000000E+00 -0.00000000000E+00 -0.22573416328E+04  0.22573416328E+04  0.25500000000E-02 0.  1.
    5000001    1    1    2    0    0 -0.26133478711E+03  0.12735436884E+02 -0.14506638432E+04  0.14832763223E+04  0.16500000000E+03 0.  0.
   -5000001    1    1    2    0    0  0.26133478711E+03 -0.12735436884E+02 -0.76010633425E+03  0.82063676598E+03  0.16500000000E+03 0.  0.
<mgrwt>
<rscale>  0 0.64846800E+03</rscale>
<asrwt>0</asrwt>
<pdfrwt beam="1">  1        2 0.32247731E+00 0.64846800E+03</pdfrwt>
<pdfrwt beam="2">  1       -2 0.66530665E-02 0.64846800E+03</pdfrwt>
<totfact> 0.80479104E+02</totfact>
</mgrwt>
</event>
<event>
 4    1  0.5531008E-005  0.4665344E+03  0.7818608E-02  0.1022903E+00
         -2   -1    0    0    0  501 -0.00000000000E+00  0.00000000000E+00  0.16563347949E+02  0.16563348145E+02  0.25500000000E-02 0. -1.
          2   -1    0    0  501    0  0.00000000000E+00 -0.00000000000E+00 -0.32851801225E+04  0.32851801225E+04  0.25500000000E-02 0.  1.
    5000001    1    1    2    0    0  0.46336829720E+02 -0.14200836483E+03 -0.21284502303E+04  0.21400558077E+04  0.16500000000E+03 0.  0.
   -5000001    1    1    2    0    0 -0.46336829720E+02  0.14200836483E+03 -0.11401665443E+04  0.11616876629E+04  0.16500000000E+03 0.  0.
<mgrwt>
<rscale>  0 0.46653438E+03</rscale>
<asrwt>0</asrwt>
<pdfrwt beam="1">  1        2 0.46931103E+00 0.46653438E+03</pdfrwt>
<pdfrwt beam="2">  1       -2 0.23661947E-02 0.46653438E+03</pdfrwt>
<totfact> 0.11409717E+03</totfact>
</mgrwt>
</event>
<event>
 4    1  0.5531008E-005  0.4420681E+03  0.7818608E-02  0.1030114E+00
          2   -1    0    0  501    0  0.00000000000E+00  0.00000000000E+00  0.73353655667E+02  0.73353655711E+02  0.25500000000E-02 0.  1.
         -2   -1    0    0    0  501 -0.00000000000E+00 -0.00000000000E+00 -0.66603430450E+03  0.66603430450E+03  0.25500000000E-02 0. -1.
    5000001    1    1    2    0    0 -0.13676872430E+03  0.54043522433E+02 -0.29995275280E+03  0.37258964046E+03  0.16500000000E+03 0.  0.
   -5000001    1    1    2    0    0  0.13676872430E+03 -0.54043522433E+02 -0.29272789602E+03  0.36679831975E+03  0.16500000000E+03 0.  0.
<mgrwt>
<rscale>  0 0.44206810E+03</rscale>
<asrwt>0</asrwt>
<pdfrwt beam="1">  1        2 0.10479094E-01 0.44206810E+03</pdfrwt>
<pdfrwt beam="2">  1       -2 0.95147754E-01 0.44206810E+03</pdfrwt>
<totfact> 0.58566484E+02</totfact>
</mgrwt>
</event>
<event>
 4    1  0.5531008E-005  0.7769839E+03  0.7818608E-02  0.9593943E-01
         -2   -1    0    0    0  501 -0.00000000000E+00  0.00000000000E+00  0.25648293971E+03  0.25648293972E+03  0.25500000000E-02 0. -1.
          2   -1    0    0  501    0  0.00000000000E+00 -0.00000000000E+00 -0.58844461640E+03  0.58844461641E+03  0.25500000000E-02 0.  1.
    5000001    1    1    2    0    0 -0.26896834516E+03  0.22344410534E+03 -0.12486208406E+03  0.40630872369E+03  0.16500000000E+03 0.  0.
   -5000001    1    1    2    0    0  0.26896834516E+03 -0.22344410534E+03 -0.20709959263E+03  0.43861883244E+03  0.16500000000E+03 0.  0.
<mgrwt>
<rscale>  0 0.77698393E+03</rscale>
<asrwt>0</asrwt>
<pdfrwt beam="1">  1        2 0.84063516E-01 0.77698393E+03</pdfrwt>
<pdfrwt beam="2">  1       -2 0.36640420E-01 0.77698393E+03</pdfrwt>
<totfact> 0.39134088E+02</totfact>
</mgrwt>
</event>
<event>
 4    1  0.5531008E-005  0.8550795E+03  0.7818608E-02  0.9483545E-01
          2   -1    0    0  501    0  0.00000000000E+00  0.00000000000E+00  0.36201027996E+03  0.36201027997E+03  0.25500000000E-02 0.  1.
         -2   -1    0    0    0  501 -0.00000000000E+00 -0.00000000000E+00 -0.50493111752E+03  0.50493111753E+03  0.25500000000E-02 0. -1.
    5000001    1    1    2    0    0  0.33177164708E+03 -0.38724771413E+02  0.14119483116E+03  0.39841311986E+03  0.16500000000E+03 0.  0.
   -5000001    1    1    2    0    0 -0.33177164708E+03  0.38724771413E+02 -0.28411566872E+03  0.46852827763E+03  0.16500000000E+03 0.  0.
<mgrwt>
<rscale>  0 0.85507954E+03</rscale>
<asrwt>0</asrwt>
<pdfrwt beam="1">  1        2 0.51715755E-01 0.85507954E+03</pdfrwt>
<pdfrwt beam="2">  1       -2 0.72133016E-01 0.85507954E+03</pdfrwt>
<totfact> 0.16926504E+02</totfact>
</mgrwt>
</event>
<event>
 4    1  0.5531008E-005  0.6112510E+03  0.7818608E-02  0.9882335E-01
          2   -1    0    0  501    0  0.00000000000E+00  0.00000000000E+00  0.37450203366E+04  0.37450203366E+04  0.25500000000E-02 0.  1.
         -2   -1    0    0    0  501 -0.00000000000E+00 -0.00000000000E+00 -0.24941642380E+02  0.24941642510E+02  0.25500000000E-02 0. -1.
    5000001    1    1    2    0    0  0.11459783726E+03 -0.11308093348E+03  0.62248291265E+03  0.66379962214E+03  0.16500000000E+03 0.  0.
   -5000001    1    1    2    0    0 -0.11459783726E+03  0.11308093348E+03  0.30975957816E+04  0.31061623569E+04  0.16500000000E+03 0.  0.
<mgrwt>
<rscale>  0 0.61125104E+03</rscale>
<asrwt>0</asrwt>
<pdfrwt beam="1">  1        2 0.53500275E+00 0.61125104E+03</pdfrwt>
<pdfrwt beam="2">  1       -2 0.35630928E-02 0.61125104E+03</pdfrwt>
<totfact> 0.32138546E+02</totfact>
</mgrwt>
</event>
<event>
 4    1  0.5531008E-005  0.4070439E+03  0.7818608E-02  0.1041368E+00
          2   -1    0    0  501    0  0.00000000000E+00  0.00000000000E+00  0.34612467607E+02  0.34612467701E+02  0.25500000000E-02 0.  1.
         -2   -1    0    0    0  501 -0.00000000000E+00 -0.00000000000E+00 -0.11967128314E+04  0.11967128314E+04  0.25500000000E-02 0. -1.
    5000001    1    1    2    0    0 -0.25654895620E+02 -0.10984120179E+03 -0.69714725272E+03  0.72523275937E+03  0.16500000000E+03 0.  0.
   -5000001    1    1    2    0    0  0.25654895620E+02  0.10984120179E+03 -0.46495311104E+03  0.50609253970E+03  0.16500000000E+03 0.  0.
<mgrwt>
<rscale>  0 0.40704390E+03</rscale>
<asrwt>0</asrwt>
<pdfrwt beam="1">  1        2 0.49446390E-02 0.40704390E+03</pdfrwt>
<pdfrwt beam="2">  1       -2 0.17095895E+00 0.40704390E+03</pdfrwt>
<totfact> 0.35878099E+02</totfact>
</mgrwt>
</event>
<event>
 4    1  0.5531008E-005  0.4162263E+03  0.7818608E-02  0.1038302E+00
         -2   -1    0    0    0  501 -0.00000000000E+00  0.00000000000E+00  0.68709400352E+02  0.68709400399E+02  0.25500000000E-02 0. -1.
          2   -1    0    0  501    0  0.00000000000E+00 -0.00000000000E+00 -0.63035174920E+03  0.63035174921E+03  0.25500000000E-02 0.  1.
    5000001    1    1    2    0    0 -0.53879633459E+02 -0.11225179489E+03 -0.32136033127E+03  0.38210069729E+03  0.16500000000E+03 0.  0.
   -5000001    1    1    2    0    0  0.53879633459E+02  0.11225179489E+03 -0.24028201759E+03  0.31696045232E+03  0.16500000000E+03 0.  0.
<mgrwt>
<rscale>  0 0.41622634E+03</rscale>
<asrwt>0</asrwt>
<pdfrwt beam="1">  1        2 0.90050247E-01 0.41622634E+03</pdfrwt>
<pdfrwt beam="2">  1       -2 0.98156290E-02 0.41622634E+03</pdfrwt>
<totfact> 0.35765687E+03</totfact>
</mgrwt>
</event>
<event>
 4    1  0.5531008E-005  0.4669183E+03  0.7818608E-02  0.1022794E+00
         -2   -1    0    0    0  501 -0.00000000000E+00  0.00000000000E+00  0.21683515335E+02  0.21683515485E+02  0.25500000000E-02 0. -1.
          2   -1    0    0  501    0  0.00000000000E+00 -0.00000000000E+00 -0.25135765123E+04  0.25135765123E+04  0.25500000000E-02 0.  1.
    5000001    1    1    2    0    0 -0.70297543553E+02 -0.81664518178E+02 -0.19255869241E+04  0.19356448125E+04  0.16500000000E+03 0.  0.
   -5000001    1    1    2    0    0  0.70297543553E+02  0.81664518178E+02 -0.56630607291E+03  0.59961521526E+03  0.16500000000E+03 0.  0.
<mgrwt>
<rscale>  0 0.46691830E+03</rscale>
<asrwt>0</asrwt>
<pdfrwt beam="1">  1        2 0.35908217E+00 0.46691830E+03</pdfrwt>
<pdfrwt beam="2">  1       -2 0.30976467E-02 0.46691830E+03</pdfrwt>
<totfact> 0.19633606E+03</totfact>
</mgrwt>
</event>
<event>
 4    1  0.5531008E-005  0.5135278E+03  0.7818608E-02  0.1010307E+00
         -2   -1    0    0    0  501 -0.00000000000E+00  0.00000000000E+00  0.14576694181E+03  0.14576694184E+03  0.25500000000E-02 0. -1.
          2   -1    0    0  501    0  0.00000000000E+00 -0.00000000000E+00 -0.45228155252E+03  0.45228155253E+03  0.25500000000E-02 0.  1.
    5000001    1    1    2    0    0 -0.13553469389E+03  0.14045014432E+03 -0.18194503092E+03  0.31372741443E+03  0.16500000000E+03 0.  0.
   -5000001    1    1    2    0    0  0.13553469389E+03 -0.14045014432E+03 -0.12456957978E+03  0.28432107994E+03  0.16500000000E+03 0.  0.
<mgrwt>
<rscale>  0 0.51352779E+03</rscale>
<asrwt>0</asrwt>
<pdfrwt beam="1">  1        2 0.64611650E-01 0.51352779E+03</pdfrwt>
<pdfrwt beam="2">  1       -2 0.20823849E-01 0.51352779E+03</pdfrwt>
<totfact> 0.14927883E+03</totfact>
</mgrwt>
</event>
<event>
 4    1  0.5531008E-005  0.4170039E+03  0.7818608E-02  0.1038046E+00
          2   -1    0    0  501    0  0.00000000000E+00  0.00000000000E+00  0.10543260025E+04  0.10543260025E+04  0.25500000000E-02 0.  1.
         -2   -1    0    0    0  501 -0.00000000000E+00 -0.00000000000E+00 -0.41233039928E+02  0.41233040007E+02  0.25500000000E-02 0. -1.
    5000001    1    1    2    0    0  0.78990007139E+02 -0.70540756807E+02  0.69292414930E+03  0.72012797215E+03  0.16500000000E+03 0.  0.
   -5000001    1    1    2    0    0 -0.78990007139E+02  0.70540756807E+02  0.32016881331E+03  0.37543107039E+03  0.16500000000E+03 0.  0.
<mgrwt>
<rscale>  0 0.41700391E+03</rscale>
<asrwt>0</asrwt>
<pdfrwt beam="1">  1        2 0.15061800E+00 0.41700391E+03</pdfrwt>
<pdfrwt beam="2">  1       -2 0.58904342E-02 0.41700391E+03</pdfrwt>
<totfact> 0.41429828E+03</totfact>
</mgrwt>
</event>
<event>
 4    1  0.5531008E-005  0.5079219E+03  0.7818608E-02  0.1011732E+00
          2   -1    0    0  501    0  0.00000000000E+00  0.00000000000E+00  0.24141464435E+04  0.24141464435E+04  0.25500000000E-02 0.  1.
         -2   -1    0    0    0  501 -0.00000000000E+00 -0.00000000000E+00 -0.26715933550E+02  0.26715933672E+02  0.25500000000E-02 0. -1.
    5000001    1    1    2    0    0  0.17668573022E+03  0.54338628221E+02  0.92612385565E+03  0.95869751735E+03  0.16500000000E+03 0.  0.
   -5000001    1    1    2    0    0 -0.17668573022E+03 -0.54338628221E+02  0.14613066543E+04  0.14821648598E+04  0.16500000000E+03 0.  0.
<mgrwt>
<rscale>  0 0.50792195E+03</rscale>
<asrwt>0</asrwt>
<pdfrwt beam="1">  1        2 0.34487829E+00 0.50792195E+03</pdfrwt>
<pdfrwt beam="2">  1       -2 0.38165595E-02 0.50792195E+03</pdfrwt>
<totfact> 0.16018985E+03</totfact>
</mgrwt>
</event>
<event>
 4    1  0.5531008E-005  0.5454152E+03  0.7818608E-02  0.1002561E+00
         -2   -1    0    0    0  501 -0.00000000000E+00  0.00000000000E+00  0.17876233886E+03  0.17876233888E+03  0.25500000000E-02 0. -1.
          2   -1    0    0  501    0  0.00000000000E+00 -0.00000000000E+00 -0.41602410934E+03  0.41602410935E+03  0.25500000000E-02 0.  1.
    5000001    1    1    2    0    0  0.19974651413E+02  0.21300034845E+03 -0.15908768924E+03  0.31353154228E+03  0.16500000000E+03 0.  0.
   -5000001    1    1    2    0    0 -0.19974651413E+02 -0.21300034845E+03 -0.78174081243E+02  0.28125490594E+03  0.16500000000E+03 0.  0.
<mgrwt>
<rscale>  0 0.54541523E+03</rscale>
<asrwt>0</asrwt>
<pdfrwt beam="1">  1        2 0.59432016E-01 0.54541523E+03</pdfrwt>
<pdfrwt beam="2">  1       -2 0.25537477E-01 0.54541523E+03</pdfrwt>
<totfact> 0.11416071E+03</totfact>
</mgrwt>
</event>
<event>
 4    1  0.5531008E-005  0.6249011E+03  0.7818608E-02  0.9855050E-01
          2   -1    0    0  501    0  0.00000000000E+00  0.00000000000E+00  0.17327035790E+04  0.17327035790E+04  0.25500000000E-02 0.  1.
         -2   -1    0    0    0  501 -0.00000000000E+00 -0.00000000000E+00 -0.56342780088E+02  0.56342780146E+02  0.25500000000E-02 0. -1.
    5000001    1    1    2    0    0 -0.24631808198E+03 -0.92751786120E+02  0.74216149435E+03  0.80455215805E+03  0.16500000000E+03 0.  0.
   -5000001    1    1    2    0    0  0.24631808198E+03  0.92751786120E+02  0.93419930454E+03  0.98449420107E+03  0.16500000000E+03 0.  0.
<mgrwt>
<rscale>  0 0.62490107E+03</rscale>
<asrwt>0</asrwt>
<pdfrwt beam="1">  1        2 0.24752910E+00 0.62490107E+03</pdfrwt>
<pdfrwt beam="2">  1       -2 0.80489681E-02 0.62490107E+03</pdfrwt>
<totfact> 0.10956809E+03</totfact>
</mgrwt>
</event>
<event>
 4    1  0.5531008E-005  0.1330842E+04  0.7818608E-02  0.9005459E-01
         -2   -1    0    0    0  501 -0.00000000000E+00  0.00000000000E+00  0.58966194141E+03  0.58966194141E+03  0.25500000000E-02 0. -1.
          2   -1    0    0  501    0  0.00000000000E+00 -0.00000000000E+00 -0.75091321234E+03  0.75091321235E+03  0.25500000000E-02 0.  1.
    5000001    1    1    2    0    0  0.51703645291E+03  0.13525868794E+03  0.28248034280E+03  0.62661132321E+03  0.16500000000E+03 0.  0.
   -5000001    1    1    2    0    0 -0.51703645291E+03 -0.13525868794E+03 -0.44373161374E+03  0.71396383055E+03  0.16500000000E+03 0.  0.
<mgrwt>
<rscale>  0 0.13308418E+04</rscale>
<asrwt>0</asrwt>
<pdfrwt beam="1">  1        2 0.10727332E+00 0.13308418E+04</pdfrwt>
<pdfrwt beam="2">  1       -2 0.84237420E-01 0.13308418E+04</pdfrwt>
<totfact> 0.49669524E+01</totfact>
</mgrwt>
</event>
<event>
 4    1  0.5531008E-005  0.4502258E+03  0.7818608E-02  0.1027655E+00
          2   -1    0    0  501    0  0.00000000000E+00  0.00000000000E+00  0.26070073014E+03  0.26070073015E+03  0.25500000000E-02 0.  1.
         -2   -1    0    0    0  501 -0.00000000000E+00 -0.00000000000E+00 -0.19438310225E+03  0.19438310227E+03  0.25500000000E-02 0. -1.
    5000001    1    1    2    0    0  0.11312148716E+03 -0.92768935753E+02  0.78904977320E+02  0.23420832979E+03  0.16500000000E+03 0.  0.
   -5000001    1    1    2    0    0 -0.11312148716E+03  0.92768935753E+02 -0.12587349430E+02  0.22087550263E+03  0.16500000000E+03 0.  0.
<mgrwt>
<rscale>  0 0.45022580E+03</rscale>
<asrwt>0</asrwt>
<pdfrwt beam="1">  1        2 0.37242962E-01 0.45022580E+03</pdfrwt>
<pdfrwt beam="2">  1       -2 0.27769015E-01 0.45022580E+03</pdfrwt>
<totfact> 0.16401116E+03</totfact>
</mgrwt>
</event>
<event>
 4    1  0.5531008E-005  0.5938902E+03  0.7818608E-02  0.9918164E-01
         -2   -1    0    0    0  501 -0.00000000000E+00  0.00000000000E+00  0.55884532502E+02  0.55884532560E+02  0.25500000000E-02 0. -1.
          2   -1    0    0  501    0  0.00000000000E+00 -0.00000000000E+00 -0.15778316526E+04  0.15778316526E+04  0.25500000000E-02 0.  1.
    5000001    1    1    2    0    0 -0.16531797618E+03  0.76962214436E+02 -0.30315225389E+03  0.39035817493E+03  0.16500000000E+03 0.  0.
   -5000001    1    1    2    0    0  0.16531797618E+03 -0.76962214436E+02 -0.12187948662E+04  0.12433580102E+04  0.16500000000E+03 0.  0.
<mgrwt>
<rscale>  0 0.59389017E+03</rscale>
<asrwt>0</asrwt>
<pdfrwt beam="1">  1        2 0.22540449E+00 0.59389017E+03</pdfrwt>
<pdfrwt beam="2">  1       -2 0.79835057E-02 0.59389017E+03</pdfrwt>
<totfact> 0.13337912E+03</totfact>
</mgrwt>
</event>
<event>
 4    1  0.5531008E-005  0.1194234E+04  0.7818608E-02  0.9117919E-01
         -2   -1    0    0    0  501 -0.00000000000E+00  0.00000000000E+00  0.20682854305E+03  0.20682854307E+03  0.25500000000E-02 0. -1.
          2   -1    0    0  501    0  0.00000000000E+00 -0.00000000000E+00 -0.17238847850E+04  0.17238847850E+04  0.25500000000E-02 0.  1.
    5000001    1    1    2    0    0 -0.50041361582E+03 -0.24291239617E+03 -0.98661044882E+03  0.11445721457E+04  0.16500000000E+03 0.  0.
   -5000001    1    1    2    0    0  0.50041361582E+03  0.24291239617E+03 -0.53044579318E+03  0.78614118236E+03  0.16500000000E+03 0.  0.
<mgrwt>
<rscale>  0 0.11942338E+04</rscale>
<asrwt>0</asrwt>
<pdfrwt beam="1">  1        2 0.24626925E+00 0.11942338E+04</pdfrwt>
<pdfrwt beam="2">  1       -2 0.29546936E-01 0.11942338E+04</pdfrwt>
<totfact> 0.11600405E+02</totfact>
</mgrwt>
</event>
<event>
 4    1  0.5531008E-005  0.4488160E+03  0.7818608E-02  0.1028076E+00
          2   -1    0    0  501    0  0.00000000000E+00  0.00000000000E+00  0.34388090453E+03  0.34388090454E+03  0.25500000000E-02 0.  1.
         -2   -1    0    0    0  501 -0.00000000000E+00 -0.00000000000E+00 -0.14644298991E+03  0.14644298993E+03  0.25500000000E-02 0. -1.
    5000001    1    1    2    0    0 -0.56817862039E+02  0.17160816676E+02 -0.54272314162E+02  0.18355720405E+03  0.16500000000E+03 0.  0.
   -5000001    1    1    2    0    0  0.56817862039E+02 -0.17160816676E+02  0.25171022878E+03  0.30676669041E+03  0.16500000000E+03 0.  0.
<mgrwt>
<rscale>  0 0.44881599E+03</rscale>
<asrwt>0</asrwt>
<pdfrwt beam="1">  1        2 0.49125843E-01 0.44881599E+03</pdfrwt>
<pdfrwt beam="2">  1       -2 0.20920427E-01 0.44881599E+03</pdfrwt>
<totfact> 0.20022981E+03</totfact>
</mgrwt>
</event>
<event>
 4    1  0.5531008E-005  0.6212009E+03  0.7818608E-02  0.9862372E-01
         -2   -1    0    0    0  501 -0.00000000000E+00  0.00000000000E+00  0.39434455442E+02  0.39434455524E+02  0.25500000000E-02 0. -1.
          2   -1    0    0  501    0  0.00000000000E+00 -0.00000000000E+00 -0.24464046545E+04  0.24464046545E+04  0.25500000000E-02 0.  1.
    5000001    1    1    2    0    0  0.41337579790E+02  0.19643417325E+03 -0.18843855964E+04  0.19022169318E+04  0.16500000000E+03 0.  0.
   -5000001    1    1    2    0    0 -0.41337579790E+02 -0.19643417325E+03 -0.52258460272E+03  0.58362217823E+03  0.16500000000E+03 0.  0.
<mgrwt>
<rscale>  0 0.62120089E+03</rscale>
<asrwt>0</asrwt>
<pdfrwt beam="1">  1        2 0.34948628E+00 0.62120089E+03</pdfrwt>
<pdfrwt beam="2">  1       -2 0.56334952E-02 0.62120089E+03</pdfrwt>
<totfact> 0.83896905E+02</totfact>
</mgrwt>
</event>
<event>
 4    1  0.5531008E-005  0.4321044E+03  0.7818608E-02  0.1033197E+00
          2   -1    0    0  501    0  0.00000000000E+00  0.00000000000E+00  0.13177802460E+04  0.13177802460E+04  0.25500000000E-02 0.  1.
         -2   -1    0    0    0  501 -0.00000000000E+00 -0.00000000000E+00 -0.35422105699E+02  0.35422105791E+02  0.25500000000E-02 0. -1.
    5000001    1    1    2    0    0  0.13287442257E+03 -0.22068791104E+02  0.75456524122E+03  0.78405124002E+03  0.16500000000E+03 0.  0.
   -5000001    1    1    2    0    0 -0.13287442257E+03  0.22068791104E+02  0.52779289907E+03  0.56915111176E+03  0.16500000000E+03 0.  0.
<mgrwt>
<rscale>  0 0.43210439E+03</rscale>
<asrwt>0</asrwt>
<pdfrwt beam="1">  1        2 0.18825430E+00 0.43210439E+03</pdfrwt>
<pdfrwt beam="2">  1       -2 0.50603015E-02 0.43210439E+03</pdfrwt>
<totfact> 0.37375504E+03</totfact>
</mgrwt>
</event>
<event>
 4    1  0.5531008E-005  0.5761628E+03  0.7818608E-02  0.9956133E-01
          2   -1    0    0  501    0  0.00000000000E+00  0.00000000000E+00  0.21303502880E+03  0.21303502881E+03  0.25500000000E-02 0.  1.
         -2   -1    0    0    0  501 -0.00000000000E+00 -0.00000000000E+00 -0.38956455489E+03  0.38956455490E+03  0.25500000000E-02 0. -1.
    5000001    1    1    2    0    0  0.10615642164E+03  0.17091929784E+03 -0.21756288880E+03  0.33917724395E+03  0.16500000000E+03 0.  0.
   -5000001    1    1    2    0    0 -0.10615642164E+03 -0.17091929784E+03  0.41033362709E+02  0.26342233976E+03  0.16500000000E+03 0.  0.
<mgrwt>
<rscale>  0 0.57616281E+03</rscale>
<asrwt>0</asrwt>
<pdfrwt beam="1">  1        2 0.30433576E-01 0.57616281E+03</pdfrwt>
<pdfrwt beam="2">  1       -2 0.55652079E-01 0.57616281E+03</pdfrwt>
<totfact> 0.53531110E+02</totfact>
</mgrwt>
</event>
<event>
 4    1  0.5531008E-005  0.1364662E+04  0.7818608E-02  0.8979803E-01
          2   -1    0    0  501    0  0.00000000000E+00  0.00000000000E+00  0.15772173267E+04  0.15772173267E+04  0.25500000000E-02 0.  1.
         -2   -1    0    0    0  501 -0.00000000000E+00 -0.00000000000E+00 -0.29518801839E+03  0.29518801840E+03  0.25500000000E-02 0. -1.
    5000001    1    1    2    0    0 -0.23404543583E+02 -0.41785229010E+03 -0.62899379870E+02  0.45423522650E+03  0.16500000000E+03 0.  0.
   -5000001    1    1    2    0    0  0.23404543583E+02  0.41785229010E+03  0.13449286882E+04  0.14181701186E+04  0.16500000000E+03 0.  0.
<mgrwt>
<rscale>  0 0.13646621E+04</rscale>
<asrwt>0</asrwt>
<pdfrwt beam="1">  1        2 0.22531676E+00 0.13646621E+04</pdfrwt>
<pdfrwt beam="2">  1       -2 0.42169717E-01 0.13646621E+04</pdfrwt>
<totfact> 0.69209788E+01</totfact>
</mgrwt>
</event>
<event>
 4    1  0.5531008E-005  0.3938719E+03  0.7818608E-02  0.1045923E+00
          2   -1    0    0  501    0  0.00000000000E+00  0.00000000000E+00  0.75910302497E+03  0.75910302497E+03  0.25500000000E-02 0.  1.
         -2   -1    0    0    0  501 -0.00000000000E+00 -0.00000000000E+00 -0.51091564478E+02  0.51091564542E+02  0.25500000000E-02 0. -1.
    5000001    1    1    2    0    0 -0.44832427547E+02  0.91729951960E+02  0.28472326488E+03  0.34455285256E+03  0.16500000000E+03 0.  0.
   -5000001    1    1    2    0    0  0.44832427547E+02 -0.91729951960E+02  0.42328819561E+03  0.46564173695E+03  0.16500000000E+03 0.  0.
<mgrwt>
<rscale>  0 0.39387186E+03</rscale>
<asrwt>0</asrwt>
<pdfrwt beam="1">  1        2 0.10844328E+00 0.39387186E+03</pdfrwt>
<pdfrwt beam="2">  1       -2 0.72987954E-02 0.39387186E+03</pdfrwt>
<totfact> 0.45706564E+03</totfact>
</mgrwt>
</event>
<event>
 4    1  0.5531008E-005  0.9156219E+03  0.7818608E-02  0.9406261E-01
          2   -1    0    0  501    0  0.00000000000E+00  0.00000000000E+00  0.76150746713E+03  0.76150746713E+03  0.25500000000E-02 0.  1.
         -2   -1    0    0    0  501 -0.00000000000E+00 -0.00000000000E+00 -0.27523152729E+03  0.27523152730E+03  0.25500000000E-02 0. -1.
    5000001    1    1    2    0    0 -0.53016331251E+02  0.36500968311E+03 -0.55999332518E+00  0.40406449205E+03  0.16500000000E+03 0.  0.
   -5000001    1    1    2    0    0  0.53016331251E+02 -0.36500968311E+03  0.48683593316E+03  0.63267450238E+03  0.16500000000E+03 0.  0.
<mgrwt>
<rscale>  0 0.91562189E+03</rscale>
<asrwt>0</asrwt>
<pdfrwt beam="1">  1        2 0.10878678E+00 0.91562189E+03</pdfrwt>
<pdfrwt beam="2">  1       -2 0.39318790E-01 0.91562189E+03</pdfrwt>
<totfact> 0.24782652E+02</totfact>
</mgrwt>
</event>
<event>
 4    1  0.5531008E-005  0.3703562E+03  0.7818608E-02  0.1054557E+00
         -2   -1    0    0    0  501 -0.00000000000E+00  0.00000000000E+00  0.87107212639E+02  0.87107212676E+02  0.25500000000E-02 0. -1.
          2   -1    0    0  501    0  0.00000000000E+00 -0.00000000000E+00 -0.39366338273E+03  0.39366338274E+03  0.25500000000E-02 0.  1.
    5000001    1    1    2    0    0 -0.41792108145E+02  0.65681485996E+02 -0.19443684739E+03  0.26662956612E+03  0.16500000000E+03 0.  0.
   -5000001    1    1    2    0    0  0.41792108145E+02 -0.65681485996E+02 -0.11211932271E+03  0.21414102930E+03  0.16500000000E+03 0.  0.
<mgrwt>
<rscale>  0 0.37035615E+03</rscale>
<asrwt>0</asrwt>
<pdfrwt beam="1">  1        2 0.56237625E-01 0.37035615E+03</pdfrwt>
<pdfrwt beam="2">  1       -2 0.12443888E-01 0.37035615E+03</pdfrwt>
<totfact> 0.41283324E+03</totfact>
</mgrwt>
</event>
<event>
 4    1  0.5531008E-005  0.1724742E+04  0.7818608E-02  0.8747377E-01
         -2   -1    0    0    0  501 -0.00000000000E+00  0.00000000000E+00  0.91555536533E+03  0.91555536534E+03  0.25500000000E-02 0. -1.
          2   -1    0    0  501    0  0.00000000000E+00 -0.00000000000E+00 -0.81227628192E+03  0.81227628192E+03  0.25500000000E-02 0.  1.
    5000001    1    1    2    0    0 -0.41213666569E+03 -0.71673593907E+03  0.23332556628E+03  0.87477588984E+03  0.16500000000E+03 0.  0.
   -5000001    1    1    2    0    0  0.41213666569E+03  0.71673593907E+03 -0.13004648287E+03  0.85305575742E+03  0.16500000000E+03 0.  0.
<mgrwt>
<rscale>  0 0.17247422E+04</rscale>
<asrwt>0</asrwt>
<pdfrwt beam="1">  1        2 0.11603947E+00 0.17247422E+04</pdfrwt>
<pdfrwt beam="2">  1       -2 0.13079362E+00 0.17247422E+04</pdfrwt>
<totfact> 0.15175978E+01</totfact>
</mgrwt>
</event>
<event>
 4    1  0.5531008E-005  0.2188045E+04  0.7818608E-02  0.8523421E-01
         -2   -1    0    0    0  501 -0.00000000000E+00  0.00000000000E+00  0.79492571728E+03  0.79492571728E+03  0.25500000000E-02 0.  1.
          2   -1    0    0  501    0  0.00000000000E+00 -0.00000000000E+00 -0.15056563467E+04  0.15056563467E+04  0.25500000000E-02 0. -1.
    5000001    1    1    2    0    0  0.10237530549E+04 -0.26496387852E+03 -0.11702662742E+03  0.10766598376E+04  0.16500000000E+03 0.  0.
   -5000001    1    1    2    0    0 -0.10237530549E+04  0.26496387852E+03 -0.59370400202E+03  0.12239222264E+04  0.16500000000E+03 0.  0.
<mgrwt>
<rscale>  0 0.21880447E+04</rscale>
<asrwt>0</asrwt>
<pdfrwt beam="1">  1        2 0.21509376E+00 0.21880447E+04</pdfrwt>
<pdfrwt beam="2">  1       -2 0.11356082E+00 0.21880447E+04</pdfrwt>
<totfact> 0.81168014E+00</totfact>
</mgrwt>
</event>
<event>
 4    1  0.5531008E-005  0.5733179E+03  0.7818608E-02  0.9962363E-01
          2   -1    0    0  501    0  0.00000000000E+00  0.00000000000E+00  0.47600669611E+03  0.47600669611E+03  0.25500000000E-02 0.  1.
         -2   -1    0    0    0  501 -0.00000000000E+00 -0.00000000000E+00 -0.17263067375E+03  0.17263067377E+03  0.25500000000E-02 0. -1.
    5000001    1    1    2    0    0  0.89828110827E+02 -0.19205570841E+03  0.38585213210E+02  0.27141905480E+03  0.16500000000E+03 0.  0.
   -5000001    1    1    2    0    0 -0.89828110827E+02  0.19205570841E+03  0.26479080914E+03  0.37721831509E+03  0.16500000000E+03 0.  0.
<mgrwt>
<rscale>  0 0.57331791E+03</rscale>
<asrwt>0</asrwt>
<pdfrwt beam="1">  1        2 0.68000957E-01 0.57331791E+03</pdfrwt>
<pdfrwt beam="2">  1       -2 0.24661525E-01 0.57331791E+03</pdfrwt>
<totfact> 0.10451536E+03</totfact>
</mgrwt>
</event>
<event>
 4    1  0.5531008E-005  0.8595489E+03  0.7818608E-02  0.9477610E-01
         -2   -1    0    0    0  501 -0.00000000000E+00  0.00000000000E+00  0.94241171907E+02  0.94241171942E+02  0.25500000000E-02 0. -1.
          2   -1    0    0  501    0  0.00000000000E+00 -0.00000000000E+00 -0.19599297520E+04  0.19599297520E+04  0.25500000000E-02 0.  1.
    5000001    1    1    2    0    0 -0.86545368375E+02 -0.36579551021E+03 -0.62881372102E+03  0.75095149765E+03  0.16500000000E+03 0.  0.
   -5000001    1    1    2    0    0  0.86545368375E+02  0.36579551021E+03 -0.12368748591E+04  0.13032194263E+04  0.16500000000E+03 0.  0.
<mgrwt>
<rscale>  0 0.85954890E+03</rscale>
<asrwt>0</asrwt>
<pdfrwt beam="1">  1        2 0.27998994E+00 0.85954890E+03</pdfrwt>
<pdfrwt beam="2">  1       -2 0.13463026E-01 0.85954890E+03</pdfrwt>
<totfact> 0.35770788E+02</totfact>
</mgrwt>
</event>
<event>
 4    1  0.5531008E-005  0.5148520E+03  0.7818608E-02  0.1009973E+00
         -2   -1    0    0    0  501 -0.00000000000E+00  0.00000000000E+00  0.58446397857E+02  0.58446397912E+02  0.25500000000E-02 0. -1.
          2   -1    0    0  501    0  0.00000000000E+00 -0.00000000000E+00 -0.11338276502E+04  0.11338276502E+04  0.25500000000E-02 0.  1.
    5000001    1    1    2    0    0  0.29830282700E+02  0.17720841666E+03 -0.34742479201E+03  0.42452521103E+03  0.16500000000E+03 0.  0.
   -5000001    1    1    2    0    0 -0.29830282700E+02 -0.17720841666E+03 -0.72795646033E+03  0.76774883708E+03  0.16500000000E+03 0.  0.
<mgrwt>
<rscale>  0 0.51485199E+03</rscale>
<asrwt>0</asrwt>
<pdfrwt beam="1">  1        2 0.16197537E+00 0.51485199E+03</pdfrwt>
<pdfrwt beam="2">  1       -2 0.83494861E-02 0.51485199E+03</pdfrwt>
<totfact> 0.21555041E+03</totfact>
</mgrwt>
</event>
<event>
 4    1  0.5531008E-005  0.4588003E+03  0.7818608E-02  0.1025130E+00
         -2   -1    0    0    0  501 -0.00000000000E+00  0.00000000000E+00  0.49166764886E+02  0.49166764952E+02  0.25500000000E-02 0. -1.
          2   -1    0    0  501    0  0.00000000000E+00 -0.00000000000E+00 -0.10703250815E+04  0.10703250815E+04  0.25500000000E-02 0.  1.
    5000001    1    1    2    0    0 -0.18573159331E+02  0.15077137703E+03 -0.39298910740E+03  0.45248470572E+03  0.16500000000E+03 0.  0.
   -5000001    1    1    2    0    0  0.18573159331E+02 -0.15077137703E+03 -0.62816920920E+03  0.66700714072E+03  0.16500000000E+03 0.  0.
<mgrwt>
<rscale>  0 0.45880027E+03</rscale>
<asrwt>0</asrwt>
<pdfrwt beam="1">  1        2 0.15290357E+00 0.45880027E+03</pdfrwt>
<pdfrwt beam="2">  1       -2 0.70238242E-02 0.45880027E+03</pdfrwt>
<totfact> 0.30829646E+03</totfact>
</mgrwt>
</event>
<event>
 4    1  0.5531008E-005  0.4032226E+03  0.7818608E-02  0.1042669E+00
         -2   -1    0    0    0  501 -0.00000000000E+00  0.00000000000E+00  0.27322541980E+03  0.27322541981E+03  0.25500000000E-02 0. -1.
          2   -1    0    0  501    0  0.00000000000E+00 -0.00000000000E+00 -0.14876771493E+03  0.14876771495E+03  0.25500000000E-02 0.  1.
    5000001    1    1    2    0    0  0.11280639772E+03  0.26326612223E+02  0.64254813006E+02  0.21159408043E+03  0.16500000000E+03 0.  0.
   -5000001    1    1    2    0    0 -0.11280639772E+03 -0.26326612223E+02  0.60202891865E+02  0.21039905434E+03  0.16500000000E+03 0.  0.
<mgrwt>
<rscale>  0 0.40322263E+03</rscale>
<asrwt>0</asrwt>
<pdfrwt beam="1">  1        2 0.21252531E-01 0.40322263E+03</pdfrwt>
<pdfrwt beam="2">  1       -2 0.39032203E-01 0.40322263E+03</pdfrwt>
<totfact> 0.16295997E+03</totfact>
</mgrwt>
</event>
<event>
 4    1  0.5531008E-005  0.7485283E+03  0.7818608E-02  0.9637662E-01
         -2   -1    0    0    0  501 -0.00000000000E+00  0.00000000000E+00  0.24300181806E+03  0.24300181807E+03  0.25500000000E-02 0. -1.
          2   -1    0    0  501    0  0.00000000000E+00 -0.00000000000E+00 -0.57643041489E+03  0.57643041490E+03  0.25500000000E-02 0.  1.
    5000001    1    1    2    0    0  0.13659687384E+03 -0.28671892587E+03 -0.46882259015E+02  0.36095622256E+03  0.16500000000E+03 0.  0.
   -5000001    1    1    2    0    0 -0.13659687384E+03  0.28671892587E+03 -0.28654633782E+03  0.45847601040E+03  0.16500000000E+03 0.  0.
<mgrwt>
<rscale>  0 0.74852826E+03</rscale>
<asrwt>0</asrwt>
<pdfrwt beam="1">  1        2 0.82347202E-01 0.74852826E+03</pdfrwt>
<pdfrwt beam="2">  1       -2 0.34714546E-01 0.74852826E+03</pdfrwt>
<totfact> 0.44490162E+02</totfact>
</mgrwt>
</event>
<event>
 4    1  0.5531008E-005  0.8649986E+03  0.7818608E-02  0.9470425E-01
         -2   -1    0    0    0  501 -0.00000000000E+00  0.00000000000E+00  0.75435245959E+02  0.75435246002E+02  0.25500000000E-02 0. -1.
          2   -1    0    0  501    0  0.00000000000E+00 -0.00000000000E+00 -0.24796847961E+04  0.24796847961E+04  0.25500000000E-02 0.  1.
    5000001    1    1    2    0    0  0.14285286206E+03 -0.16324952365E+03 -0.21940959084E+04  0.22109588875E+04  0.16500000000E+03 0.  0.
   -5000001    1    1    2    0    0 -0.14285286206E+03  0.16324952365E+03 -0.21015364175E+03  0.34416115456E+03  0.16500000000E+03 0.  0.
<mgrwt>
<rscale>  0 0.86499857E+03</rscale>
<asrwt>0</asrwt>
<pdfrwt beam="1">  1        2 0.35424063E+00 0.86499857E+03</pdfrwt>
<pdfrwt beam="2">  1       -2 0.10776465E-01 0.86499857E+03</pdfrwt>
<totfact> 0.28055005E+02</totfact>
</mgrwt>
</event>
<event>
 4    1  0.5531008E-005  0.4076116E+03  0.7818608E-02  0.1041175E+00
          2   -1    0    0  501    0  0.00000000000E+00  0.00000000000E+00  0.13094944472E+03  0.13094944475E+03  0.25500000000E-02 0.  1.
         -2   -1    0    0    0  501 -0.00000000000E+00 -0.00000000000E+00 -0.31719729209E+03  0.31719729210E+03  0.25500000000E-02 0. -1.
    5000001    1    1    2    0    0 -0.81039622018E+02 -0.76555434413E+02 -0.45406796519E+02  0.20424233656E+03  0.16500000000E+03 0.  0.
   -5000001    1    1    2    0    0  0.81039622018E+02  0.76555434413E+02 -0.14084105085E+03  0.24390440029E+03  0.16500000000E+03 0.  0.
<mgrwt>
<rscale>  0 0.40761163E+03</rscale>
<asrwt>0</asrwt>
<pdfrwt beam="1">  1        2 0.18707064E-01 0.40761163E+03</pdfrwt>
<pdfrwt beam="2">  1       -2 0.45313898E-01 0.40761163E+03</pdfrwt>
<totfact> 0.14136395E+03</totfact>
</mgrwt>
</event>
<event>
 4    1  0.5531008E-005  0.5559721E+03  0.7818608E-02  0.1000121E+00
         -2   -1    0    0    0  501 -0.00000000000E+00  0.00000000000E+00  0.16111079322E+02  0.16111079524E+02  0.25500000000E-02 0. -1.
          2   -1    0    0  501    0  0.00000000000E+00 -0.00000000000E+00 -0.47964659170E+04  0.47964659170E+04  0.25500000000E-02 0.  1.
    5000001    1    1    2    0    0 -0.17716977329E+03 -0.82201491190E+02 -0.33346512616E+04  0.33444387048E+04  0.16500000000E+03 0.  0.
   -5000001    1    1    2    0    0  0.17716977329E+03  0.82201491190E+02 -0.14457035761E+04  0.14681382917E+04  0.16500000000E+03 0.  0.
<mgrwt>
<rscale>  0 0.55597210E+03</rscale>
<asrwt>0</asrwt>
<pdfrwt beam="1">  1        2 0.68520850E+00 0.55597210E+03</pdfrwt>
<pdfrwt beam="2">  1       -2 0.23015859E-02 0.55597210E+03</pdfrwt>
<totfact> 0.10819050E+02</totfact>
</mgrwt>
</event>
<event>
 4    1  0.5531008E-005  0.5538645E+03  0.7818608E-02  0.1000603E+00
          2   -1    0    0  501    0  0.00000000000E+00  0.00000000000E+00  0.94332446534E+03  0.94332446534E+03  0.25500000000E-02 0.  1.
         -2   -1    0    0    0  501 -0.00000000000E+00 -0.00000000000E+00 -0.81299149682E+02  0.81299149722E+02  0.25500000000E-02 0. -1.
    5000001    1    1    2    0    0 -0.11807609071E+03 -0.15976204112E+02  0.77843606778E+03  0.80460233279E+03  0.16500000000E+03 0.  0.
   -5000001    1    1    2    0    0  0.11807609071E+03  0.15976204112E+02  0.83589247873E+02  0.22002128228E+03  0.16500000000E+03 0.  0.
<mgrwt>
<rscale>  0 0.55386452E+03</rscale>
<asrwt>0</asrwt>
<pdfrwt beam="1">  1        2 0.13476064E+00 0.55386452E+03</pdfrwt>
<pdfrwt beam="2">  1       -2 0.11614164E-01 0.55386452E+03</pdfrwt>
<totfact> 0.16425079E+03</totfact>
</mgrwt>
</event>
<event>
 4    1  0.5531008E-005  0.4123617E+03  0.7818608E-02  0.1039581E+00
         -2   -1    0    0    0  501 -0.00000000000E+00  0.00000000000E+00  0.44644798917E+02  0.44644798990E+02  0.25500000000E-02 0. -1.
          2   -1    0    0  501    0  0.00000000000E+00 -0.00000000000E+00 -0.95219495028E+03  0.95219495028E+03  0.25500000000E-02 0.  1.
    5000001    1    1    2    0    0 -0.97358707048E+02  0.23504489846E+02 -0.27854548820E+03  0.33888606917E+03  0.16500000000E+03 0.  0.
   -5000001    1    1    2    0    0  0.97358707048E+02 -0.23504489846E+02 -0.62900466316E+03  0.65795368010E+03  0.16500000000E+03 0.  0.
<mgrwt>
<rscale>  0 0.41236174E+03</rscale>
<asrwt>0</asrwt>
<pdfrwt beam="1">  1        2 0.13602784E+00 0.41236174E+03</pdfrwt>
<pdfrwt beam="2">  1       -2 0.63778290E-02 0.41236174E+03</pdfrwt>
<totfact> 0.42160784E+03</totfact>
</mgrwt>
</event>
<event>
 4    1  0.5531008E-005  0.7073823E+03  0.7818608E-02  0.9704690E-01
          2   -1    0    0  501    0  0.00000000000E+00  0.00000000000E+00  0.78910894312E+03  0.78910894312E+03  0.25500000000E-02 0.  1.
         -2   -1    0    0    0  501 -0.00000000000E+00 -0.00000000000E+00 -0.15853000802E+03  0.15853000804E+03  0.25500000000E-02 0. -1.
    5000001    1    1    2    0    0 -0.11757337714E+03 -0.18764522337E+03  0.61134187006E+03  0.67081898524E+03  0.16500000000E+03 0.  0.
   -5000001    1    1    2    0    0  0.11757337714E+03  0.18764522337E+03  0.19237065035E+02  0.27681996593E+03  0.16500000000E+03 0.  0.
<mgrwt>
<rscale>  0 0.70738235E+03</rscale>
<asrwt>0</asrwt>
<pdfrwt beam="1">  1        2 0.11272985E+00 0.70738235E+03</pdfrwt>
<pdfrwt beam="2">  1       -2 0.22647144E-01 0.70738235E+03</pdfrwt>
<totfact> 0.66471959E+02</totfact>
</mgrwt>
</event>
<event>
 4    1  0.5531008E-005  0.4298802E+03  0.7818608E-02  0.1033898E+00
          2   -1    0    0  501    0  0.00000000000E+00  0.00000000000E+00  0.42174830911E+03  0.42174830912E+03  0.25500000000E-02 0.  1.
         -2   -1    0    0    0  501 -0.00000000000E+00 -0.00000000000E+00 -0.10954223938E+03  0.10954223941E+03  0.25500000000E-02 0. -1.
    5000001    1    1    2    0    0 -0.10283339118E+02 -0.13732882682E+03  0.15233393279E+03  0.26343040982E+03  0.16500000000E+03 0.  0.
   -5000001    1    1    2    0    0  0.10283339118E+02  0.13732882682E+03  0.15987213693E+03  0.26786013871E+03  0.16500000000E+03 0.  0.
<mgrwt>
<rscale>  0 0.42988024E+03</rscale>
<asrwt>0</asrwt>
<pdfrwt beam="1">  1        2 0.60249758E-01 0.42988024E+03</pdfrwt>
<pdfrwt beam="2">  1       -2 0.15648891E-01 0.42988024E+03</pdfrwt>
<totfact> 0.26262567E+03</totfact>
</mgrwt>
</event>
<event>
 4    1  0.5531008E-005  0.6048354E+03  0.7818608E-02  0.9895425E-01
          2   -1    0    0  501    0  0.00000000000E+00  0.00000000000E+00  0.10569258721E+03  0.10569258724E+03  0.25500000000E-02 0.  1.
         -2   -1    0    0    0  501 -0.00000000000E+00 -0.00000000000E+00 -0.86530632751E+03  0.86530632751E+03  0.25500000000E-02 0. -1.
    5000001    1    1    2    0    0  0.24793079157E+03 -0.52355941350E+02 -0.37251292224E+03  0.47979339224E+03  0.16500000000E+03 0.  0.
   -5000001    1    1    2    0    0 -0.24793079157E+03  0.52355941350E+02 -0.38710081806E+03  0.49120552251E+03  0.16500000000E+03 0.  0.
<mgrwt>
<rscale>  0 0.60483540E+03</rscale>
<asrwt>0</asrwt>
<pdfrwt beam="1">  1        2 0.15098942E-01 0.60483540E+03</pdfrwt>
<pdfrwt beam="2">  1       -2 0.12361519E+00 0.60483540E+03</pdfrwt>
<totfact> 0.19877036E+02</totfact>
</mgrwt>
</event>
<event>
 4    1  0.5531008E-005  0.9302315E+03  0.7818608E-02  0.9388560E-01
          2   -1    0    0  501    0  0.00000000000E+00  0.00000000000E+00  0.14740283518E+04  0.14740283518E+04  0.25500000000E-02 0. -1.
         -2   -1    0    0    0  501 -0.00000000000E+00 -0.00000000000E+00 -0.14676288458E+03  0.14676288460E+03  0.25500000000E-02 0.  1.
    5000001    1    1    2    0    0  0.28598239920E+03  0.31945298224E+03  0.79013655969E+03  0.91398956420E+03  0.16500000000E+03 0.  0.
   -5000001    1    1    2    0    0 -0.28598239920E+03 -0.31945298224E+03  0.53712890750E+03  0.70680167217E+03  0.16500000000E+03 0.  0.
<mgrwt>
<rscale>  0 0.93023148E+03</rscale>
<asrwt>0</asrwt>
<pdfrwt beam="1">  1        2 0.21057549E+00 0.93023148E+03</pdfrwt>
<pdfrwt beam="2">  1       -2 0.20966126E-01 0.93023148E+03</pdfrwt>
<totfact> 0.29654080E+02</totfact>
</mgrwt>
</event>
<event>
 4    1  0.5531008E-005  0.6411246E+03  0.7818608E-02  0.9823577E-01
          2   -1    0    0  501    0  0.00000000000E+00  0.00000000000E+00  0.39661819660E+04  0.39661819660E+04  0.25500000000E-02 0.  1.
         -2   -1    0    0    0  501 -0.00000000000E+00 -0.00000000000E+00 -0.25909096732E+02  0.25909096857E+02  0.25500000000E-02 0. -1.
    5000001    1    1    2    0    0  0.27348558491E+03 -0.26986723755E+02  0.19480829660E+04  0.19742783215E+04  0.16500000000E+03 0.  0.
   -5000001    1    1    2    0    0 -0.27348558491E+03  0.26986723755E+02  0.19921899032E+04  0.20178127413E+04  0.16500000000E+03 0.  0.
<mgrwt>
<rscale>  0 0.64112461E+03</rscale>
<asrwt>0</asrwt>
<pdfrwt beam="1">  1        2 0.56659717E+00 0.64112461E+03</pdfrwt>
<pdfrwt beam="2">  1       -2 0.37013012E-02 0.64112461E+03</pdfrwt>
<totfact> 0.21755341E+02</totfact>
</mgrwt>
</event>
<event>
 4    1  0.5531008E-005  0.6134311E+03  0.7818608E-02  0.9877926E-01
         -2   -1    0    0    0  501 -0.00000000000E+00  0.00000000000E+00  0.74679550744E+03  0.74679550745E+03  0.25500000000E-02 0. -1.
          2   -1    0    0  501    0  0.00000000000E+00 -0.00000000000E+00 -0.12597082176E+03  0.12597082178E+03  0.25500000000E-02 0.  1.
    5000001    1    1    2    0    0  0.11980804980E+03  0.20641351506E+03  0.16892847106E+03  0.33574147246E+03  0.16500000000E+03 0.  0.
   -5000001    1    1    2    0    0 -0.11980804980E+03 -0.20641351506E+03  0.45189621463E+03  0.53702485677E+03  0.16500000000E+03 0.  0.
<mgrwt>
<rscale>  0 0.61343115E+03</rscale>
<asrwt>0</asrwt>
<pdfrwt beam="1">  1        2 0.17995832E-01 0.61343115E+03</pdfrwt>
<pdfrwt beam="2">  1       -2 0.10668507E+00 0.61343115E+03</pdfrwt>
<totfact> 0.23054028E+02</totfact>
</mgrwt>
</event>
<event>
 4    1  0.5531008E-005  0.4258741E+03  0.7818608E-02  0.1035171E+00
         -2   -1    0    0    0  501 -0.00000000000E+00  0.00000000000E+00  0.77455610252E+02  0.77455610294E+02  0.25500000000E-02 0. -1.
          2   -1    0    0  501    0  0.00000000000E+00 -0.00000000000E+00 -0.58539566000E+03  0.58539566000E+03  0.25500000000E-02 0.  1.
    5000001    1    1    2    0    0  0.13079935470E+03 -0.30735647723E+02 -0.26642423065E+03  0.34096923895E+03  0.16500000000E+03 0.  0.
   -5000001    1    1    2    0    0 -0.13079935470E+03  0.30735647723E+02 -0.24151581910E+03  0.32188203135E+03  0.16500000000E+03 0.  0.
<mgrwt>
<rscale>  0 0.42587406E+03</rscale>
<asrwt>0</asrwt>
<pdfrwt beam="1">  1        2 0.83627949E-01 0.42587406E+03</pdfrwt>
<pdfrwt beam="2">  1       -2 0.11065087E-01 0.42587406E+03</pdfrwt>
<totfact> 0.32144920E+03</totfact>
</mgrwt>
</event>
<event>
 4    1  0.5531008E-005  0.5078254E+03  0.7818608E-02  0.1011756E+00
         -2   -1    0    0    0  501 -0.00000000000E+00  0.00000000000E+00  0.88018118783E+03  0.88018118783E+03  0.25500000000E-02 0. -1.
          2   -1    0    0  501    0  0.00000000000E+00 -0.00000000000E+00 -0.73248166473E+02  0.73248166517E+02  0.25500000000E-02 0.  1.
    5000001    1    1    2    0    0 -0.12366808779E+03  0.43601972964E+02  0.66932469198E+03  0.70172321557E+03  0.16500000000E+03 0.  0.
   -5000001    1    1    2    0    0  0.12366808779E+03 -0.43601972964E+02  0.13760832938E+03  0.25170613878E+03  0.16500000000E+03 0.  0.
<mgrwt>
<rscale>  0 0.50782540E+03</rscale>
<asrwt>0</asrwt>
<pdfrwt beam="1">  1        2 0.10464024E-01 0.50782540E+03</pdfrwt>
<pdfrwt beam="2">  1       -2 0.12574016E+00 0.50782540E+03</pdfrwt>
<totfact> 0.30037785E+02</totfact>
</mgrwt>
</event>
<event>
 4    1  0.5531008E-005  0.3948480E+03  0.7818608E-02  0.1045578E+00
         -2   -1    0    0    0  501 -0.00000000000E+00  0.00000000000E+00  0.21777004059E+02  0.21777004208E+02  0.25500000000E-02 0. -1.
          2   -1    0    0  501    0  0.00000000000E+00 -0.00000000000E+00 -0.17897886961E+04  0.17897886961E+04  0.25500000000E-02 0.  1.
    5000001    1    1    2    0    0  0.72290450003E+02  0.36355140558E+02 -0.55304442795E+03  0.58277846966E+03  0.16500000000E+03 0.  0.
   -5000001    1    1    2    0    0 -0.72290450003E+02 -0.36355140558E+02 -0.12149672641E+04  0.12287872306E+04  0.16500000000E+03 0.  0.
<mgrwt>
<rscale>  0 0.39484800E+03</rscale>
<asrwt>0</asrwt>
<pdfrwt beam="1">  1        2 0.25568401E+00 0.39484800E+03</pdfrwt>
<pdfrwt beam="2">  1       -2 0.31110017E-02 0.39484800E+03</pdfrwt>
<totfact> 0.44935038E+03</totfact>
</mgrwt>
</event>
<event>
 4    1  0.5531008E-005  0.5392881E+03  0.7818608E-02  0.1004004E+00
          2   -1    0    0  501    0  0.00000000000E+00  0.00000000000E+00  0.15983513731E+04  0.15983513731E+04  0.25500000000E-02 0.  1.
         -2   -1    0    0    0  501 -0.00000000000E+00 -0.00000000000E+00 -0.45489314487E+02  0.45489314558E+02  0.25500000000E-02 0. -1.
    5000001    1    1    2    0    0 -0.10134654603E+03  0.66217967421E+02  0.24124557488E+03  0.31635481504E+03  0.16500000000E+03 0.  0.
   -5000001    1    1    2    0    0  0.10134654603E+03 -0.66217967421E+02  0.13116164838E+04  0.13274858727E+04  0.16500000000E+03 0.  0.
<mgrwt>
<rscale>  0 0.53928808E+03</rscale>
<asrwt>0</asrwt>
<pdfrwt beam="1">  1        2 0.22833592E+00 0.53928808E+03</pdfrwt>
<pdfrwt beam="2">  1       -2 0.64984731E-02 0.53928808E+03</pdfrwt>
<totfact> 0.18059403E+03</totfact>
</mgrwt>
</event>
<event>
 4    1  0.5531008E-005  0.4001329E+03  0.7818608E-02  0.1043734E+00
          2   -1    0    0  501    0  0.00000000000E+00  0.00000000000E+00  0.68533734808E+03  0.68533734808E+03  0.25500000000E-02 0.  1.
         -2   -1    0    0    0  501 -0.00000000000E+00 -0.00000000000E+00 -0.58404219063E+02  0.58404219119E+02  0.25500000000E-02 0. -1.
    5000001    1    1    2    0    0 -0.46749793285E+02  0.93045609446E+02  0.23120695670E+03  0.30253047026E+03  0.16500000000E+03 0.  0.
   -5000001    1    1    2    0    0  0.46749793285E+02 -0.93045609446E+02  0.39572617232E+03  0.44121109694E+03  0.16500000000E+03 0.  0.
<mgrwt>
<rscale>  0 0.40013294E+03</rscale>
<asrwt>0</asrwt>
<pdfrwt beam="1">  1        2 0.97905326E-01 0.40013294E+03</pdfrwt>
<pdfrwt beam="2">  1       -2 0.83434607E-02 0.40013294E+03</pdfrwt>
<totfact> 0.41934391E+03</totfact>
</mgrwt>
</event>
<event>
 4    1  0.5531008E-005  0.7415911E+03  0.7818608E-02  0.9648636E-01
          2   -1    0    0  501    0  0.00000000000E+00  0.00000000000E+00  0.29273017155E+04  0.29273017155E+04  0.25500000000E-02 0.  1.
         -2   -1    0    0    0  501 -0.00000000000E+00 -0.00000000000E+00 -0.46967944489E+02  0.46967944558E+02  0.25500000000E-02 0. -1.
    5000001    1    1    2    0    0  0.26330556723E+03  0.98434152716E+02  0.73122969489E+03  0.80058789076E+03  0.16500000000E+03 0.  0.
   -5000001    1    1    2    0    0 -0.26330556723E+03 -0.98434152716E+02  0.21491040761E+04  0.21736817692E+04  0.16500000000E+03 0.  0.
<mgrwt>
<rscale>  0 0.74159111E+03</rscale>
<asrwt>0</asrwt>
<pdfrwt beam="1">  1        2 0.41818618E+00 0.74159111E+03</pdfrwt>
<pdfrwt beam="2">  1       -2 0.67097029E-02 0.74159111E+03</pdfrwt>
<totfact> 0.35267171E+02</totfact>
</mgrwt>
</event>
<event>
 4    1  0.5531008E-005  0.3761595E+03  0.7818608E-02  0.1052362E+00
          2   -1    0    0  501    0  0.00000000000E+00  0.00000000000E+00  0.27874496724E+03  0.27874496725E+03  0.25500000000E-02 0.  1.
         -2   -1    0    0    0  501 -0.00000000000E+00 -0.00000000000E+00 -0.12690453246E+03  0.12690453249E+03  0.25500000000E-02 0. -1.
    5000001    1    1    2    0    0  0.42452503486E+02 -0.77369600397E+02  0.55438339384E+02  0.19515808872E+03  0.16500000000E+03 0.  0.
   -5000001    1    1    2    0    0 -0.42452503486E+02  0.77369600397E+02  0.96402095389E+02  0.21049141102E+03  0.16500000000E+03 0.  0.
<mgrwt>
<rscale>  0 0.37615954E+03</rscale>
<asrwt>0</asrwt>
<pdfrwt beam="1">  1        2 0.39820710E-01 0.37615954E+03</pdfrwt>
<pdfrwt beam="2">  1       -2 0.18129219E-01 0.37615954E+03</pdfrwt>
<totfact> 0.32130834E+03</totfact>
</mgrwt>
</event>
<event>
 4    1  0.5531008E-005  0.4445469E+03  0.7818608E-02  0.1029361E+00
          2   -1    0    0  501    0  0.00000000000E+00  0.00000000000E+00  0.33388835109E+03  0.33388835110E+03  0.25500000000E-02 0.  1.
         -2   -1    0    0    0  501 -0.00000000000E+00 -0.00000000000E+00 -0.14797007140E+03  0.14797007142E+03  0.25500000000E-02 0. -1.
    5000001    1    1    2    0    0 -0.12315960908E+03 -0.14410136881E+02  0.18237227574E+03  0.27542800931E+03  0.16500000000E+03 0.  0.
   -5000001    1    1    2    0    0  0.12315960908E+03  0.14410136881E+02  0.35460039557E+01  0.20643041321E+03  0.16500000000E+03 0.  0.
<mgrwt>
<rscale>  0 0.44454688E+03</rscale>
<asrwt>0</asrwt>
<pdfrwt beam="1">  1        2 0.47698336E-01 0.44454688E+03</pdfrwt>
<pdfrwt beam="2">  1       -2 0.21138582E-01 0.44454688E+03</pdfrwt>
<totfact> 0.20307432E+03</totfact>
</mgrwt>
</event>
<event>
 4    1  0.5531008E-005  0.3722265E+03  0.7818608E-02  0.1053845E+00
          2   -1    0    0  501    0  0.00000000000E+00  0.00000000000E+00  0.43978263956E+03  0.43978263957E+03  0.25500000000E-02 0.  1.
         -2   -1    0    0    0  501 -0.00000000000E+00 -0.00000000000E+00 -0.78761941502E+02  0.78761941543E+02  0.25500000000E-02 0. -1.
    5000001    1    1    2    0    0 -0.22471147753E+02  0.82030823382E+02  0.19915517203E+03  0.27225317448E+03  0.16500000000E+03 0.  0.
   -5000001    1    1    2    0    0  0.22471147753E+02 -0.82030823382E+02  0.16186552603E+03  0.24629140664E+03  0.16500000000E+03 0.  0.
<mgrwt>
<rscale>  0 0.37222646E+03</rscale>
<asrwt>0</asrwt>
<pdfrwt beam="1">  1        2 0.62826095E-01 0.37222646E+03</pdfrwt>
<pdfrwt beam="2">  1       -2 0.11251705E-01 0.37222646E+03</pdfrwt>
<totfact> 0.43066530E+03</totfact>
</mgrwt>
</event>
<event>
 4    1  0.5531008E-005  0.4639250E+03  0.7818608E-02  0.1023649E+00
         -2   -1    0    0    0  501 -0.00000000000E+00  0.00000000000E+00  0.31416378948E+03  0.31416378949E+03  0.25500000000E-02 0.  1.
          2   -1    0    0  501    0  0.00000000000E+00 -0.00000000000E+00 -0.17126925322E+03  0.17126925324E+03  0.25500000000E-02 0. -1.
    5000001    1    1    2    0    0 -0.13710816986E+03 -0.83538271320E+02  0.10112234488E+03  0.25145182770E+03  0.16500000000E+03 0.  0.
   -5000001    1    1    2    0    0  0.13710816986E+03  0.83538271320E+02  0.41772191377E+02  0.23398121504E+03  0.16500000000E+03 0.  0.
<mgrwt>
<rscale>  0 0.46392498E+03</rscale>
<asrwt>0</asrwt>
<pdfrwt beam="1">  1        2 0.24467036E-01 0.46392498E+03</pdfrwt>
<pdfrwt beam="2">  1       -2 0.44880541E-01 0.46392498E+03</pdfrwt>
<totfact> 0.10583183E+03</totfact>
</mgrwt>
</event>
<event>
 4    1  0.5531008E-005  0.6500572E+03  0.7818608E-02  0.9806672E-01
         -2   -1    0    0    0  501 -0.00000000000E+00  0.00000000000E+00  0.17253982293E+03  0.17253982295E+03  0.25500000000E-02 0. -1.
          2   -1    0    0  501    0  0.00000000000E+00 -0.00000000000E+00 -0.61228517095E+03  0.61228517096E+03  0.25500000000E-02 0.  1.
    5000001    1    1    2    0    0 -0.23364949013E+02 -0.21202463572E+03 -0.82463100030E+00  0.26967767244E+03  0.16500000000E+03 0.  0.
   -5000001    1    1    2    0    0  0.23364949013E+02  0.21202463572E+03 -0.43892071702E+03  0.51514732148E+03  0.16500000000E+03 0.  0.
<mgrwt>
<rscale>  0 0.65005715E+03</rscale>
<asrwt>0</asrwt>
<pdfrwt beam="1">  1        2 0.87469309E-01 0.65005715E+03</pdfrwt>
<pdfrwt beam="2">  1       -2 0.24648546E-01 0.65005715E+03</pdfrwt>
<totfact> 0.78144162E+02</totfact>
</mgrwt>
</event>
<event>
 4    1  0.5531008E-005  0.9088565E+03  0.7818608E-02  0.9414578E-01
          2   -1    0    0  501    0  0.00000000000E+00  0.00000000000E+00  0.63584295700E+03  0.63584295700E+03  0.25500000000E-02 0.  1.
         -2   -1    0    0    0  501 -0.00000000000E+00 -0.00000000000E+00 -0.32477362840E+03  0.32477362841E+03  0.25500000000E-02 0. -1.
    5000001    1    1    2    0    0  0.22457664662E+03  0.27728740264E+03  0.39645697382E+03  0.55832437342E+03  0.16500000000E+03 0.  0.
   -5000001    1    1    2    0    0 -0.22457664662E+03 -0.27728740264E+03 -0.85387645218E+02  0.40229221199E+03  0.16500000000E+03 0.  0.
<mgrwt>
<rscale>  0 0.90885648E+03</rscale>
<asrwt>0</asrwt>
<pdfrwt beam="1">  1        2 0.90834709E-01 0.90885648E+03</pdfrwt>
<pdfrwt beam="2">  1       -2 0.46396232E-01 0.90885648E+03</pdfrwt>
<totfact> 0.22338210E+02</totfact>
</mgrwt>
</event>
<event>
 4    1  0.5531008E-005  0.9764490E+03  0.7818608E-02  0.9334759E-01
         -2   -1    0    0    0  501 -0.00000000000E+00  0.00000000000E+00  0.78346314507E+03  0.78346314507E+03  0.25500000000E-02 0. -1.
          2   -1    0    0  501    0  0.00000000000E+00 -0.00000000000E+00 -0.30424297845E+03  0.30424297846E+03  0.25500000000E-02 0.  1.
    5000001    1    1    2    0    0  0.35661107382E+03  0.27768332056E+03  0.14735672965E+03  0.50320819773E+03  0.16500000000E+03 0.  0.
   -5000001    1    1    2    0    0 -0.35661107382E+03 -0.27768332056E+03  0.33186343696E+03  0.58449792581E+03  0.16500000000E+03 0.  0.
<mgrwt>
<rscale>  0 0.97644900E+03</rscale>
<asrwt>0</asrwt>
<pdfrwt beam="1">  1        2 0.43463282E-01 0.97644900E+03</pdfrwt>
<pdfrwt beam="2">  1       -2 0.11192331E+00 0.97644900E+03</pdfrwt>
<totfact> 0.73951025E+01</totfact>
</mgrwt>
</event>
<event>
 4    1  0.5531008E-005  0.5342003E+03  0.7818608E-02  0.1005219E+00
         -2   -1    0    0    0  501 -0.00000000000E+00  0.00000000000E+00  0.10436718336E+03  0.10436718339E+03  0.25500000000E-02 0. -1.
          2   -1    0    0  501    0  0.00000000000E+00 -0.00000000000E+00 -0.68357208869E+03  0.68357208869E+03  0.25500000000E-02 0.  1.
    5000001    1    1    2    0    0  0.18180301356E+03  0.10324464888E+03 -0.25989323214E+03  0.37213073694E+03  0.16500000000E+03 0.  0.
   -5000001    1    1    2    0    0 -0.18180301356E+03 -0.10324464888E+03 -0.31931167319E+03  0.41580853514E+03  0.16500000000E+03 0.  0.
<mgrwt>
<rscale>  0 0.53420031E+03</rscale>
<asrwt>0</asrwt>
<pdfrwt beam="1">  1        2 0.97653153E-01 0.53420031E+03</pdfrwt>
<pdfrwt beam="2">  1       -2 0.14909598E-01 0.53420031E+03</pdfrwt>
<totfact> 0.16390572E+03</totfact>
</mgrwt>
</event>
<event>
 4    1  0.5531008E-005  0.3939509E+03  0.7818608E-02  0.1045895E+00
          2   -1    0    0  501    0  0.00000000000E+00  0.00000000000E+00  0.12863221281E+04  0.12863221281E+04  0.25500000000E-02 0.  1.
         -2   -1    0    0    0  501 -0.00000000000E+00 -0.00000000000E+00 -0.30162990013E+02  0.30162990121E+02  0.25500000000E-02 0. -1.
    5000001    1    1    2    0    0 -0.39804828377E+02  0.75996525937E+02  0.84502128488E+03  0.86524324222E+03  0.16500000000E+03 0.  0.
   -5000001    1    1    2    0    0  0.39804828377E+02 -0.75996525937E+02  0.41113785324E+03  0.45124187603E+03  0.16500000000E+03 0.  0.
<mgrwt>
<rscale>  0 0.39395087E+03</rscale>
<asrwt>0</asrwt>
<pdfrwt beam="1">  1        2 0.18376034E+00 0.39395087E+03</pdfrwt>
<pdfrwt beam="2">  1       -2 0.43089977E-02 0.39395087E+03</pdfrwt>
<totfact> 0.49677609E+03</totfact>
</mgrwt>
</event>
<event>
 4    1  0.5531008E-005  0.4728870E+03  0.7818608E-02  0.1021109E+00
         -2   -1    0    0    0  501 -0.00000000000E+00  0.00000000000E+00  0.28768148276E+02  0.28768148389E+02  0.25500000000E-02 0. -1.
          2   -1    0    0  501    0  0.00000000000E+00 -0.00000000000E+00 -0.19433130349E+04  0.19433130349E+04  0.25500000000E-02 0.  1.
    5000001    1    1    2    0    0 -0.16607525370E+03  0.31667951952E+02 -0.99827492202E+03  0.10258468058E+04  0.16500000000E+03 0.  0.
   -5000001    1    1    2    0    0  0.16607525370E+03 -0.31667951952E+02 -0.91626996459E+03  0.94623437746E+03  0.16500000000E+03 0.  0.
<mgrwt>
<rscale>  0 0.47288695E+03</rscale>
<asrwt>0</asrwt>
<pdfrwt beam="1">  1        2 0.27761606E+00 0.47288695E+03</pdfrwt>
<pdfrwt beam="2">  1       -2 0.41097367E-02 0.47288695E+03</pdfrwt>
<totfact> 0.24662750E+03</totfact>
</mgrwt>
</event>
<event>
 4    1  0.5531008E-005  0.5888048E+03  0.7818608E-02  0.9928909E-01
          2   -1    0    0  501    0  0.00000000000E+00  0.00000000000E+00  0.96531220470E+03  0.96531220470E+03  0.25500000000E-02 0.  1.
         -2   -1    0    0    0  501 -0.00000000000E+00 -0.00000000000E+00 -0.89787307042E+02  0.89787307078E+02  0.25500000000E-02 0. -1.
    5000001    1    1    2    0    0  0.17514641856E+03  0.12590578714E+03  0.23408606529E+03  0.35853845140E+03  0.16500000000E+03 0.  0.
   -5000001    1    1    2    0    0 -0.17514641856E+03 -0.12590578714E+03  0.64143883237E+03  0.69656106038E+03  0.16500000000E+03 0.  0.
<mgrwt>
<rscale>  0 0.58880483E+03</rscale>
<asrwt>0</asrwt>
<pdfrwt beam="1">  1        2 0.13790174E+00 0.58880483E+03</pdfrwt>
<pdfrwt beam="2">  1       -2 0.12826759E-01 0.58880483E+03</pdfrwt>
<totfact> 0.13506465E+03</totfact>
</mgrwt>
</event>
<event>
 4    1  0.5531008E-005  0.3615638E+03  0.7818608E-02  0.1057966E+00
         -2   -1    0    0    0  501 -0.00000000000E+00  0.00000000000E+00  0.39717072301E+02  0.39717072383E+02  0.25500000000E-02 0.  1.
          2   -1    0    0  501    0  0.00000000000E+00 -0.00000000000E+00 -0.82287251686E+03  0.82287251686E+03  0.25500000000E-02 0. -1.
    5000001    1    1    2    0    0 -0.71897472045E+02  0.14798962424E+02 -0.37178466112E+03  0.41332443675E+03  0.16500000000E+03 0.  0.
   -5000001    1    1    2    0    0  0.71897472045E+02 -0.14798962424E+02 -0.41137078344E+03  0.44926515249E+03  0.16500000000E+03 0.  0.
<mgrwt>
<rscale>  0 0.36156376E+03</rscale>
<asrwt>0</asrwt>
<pdfrwt beam="1">  1        2 0.11755321E+00 0.36156376E+03</pdfrwt>
<pdfrwt beam="2">  1       -2 0.56738680E-02 0.36156376E+03</pdfrwt>
<totfact> 0.61019148E+03</totfact>
</mgrwt>
</event>
<event>
 4    1  0.5531008E-005  0.7934062E+03  0.7818608E-02  0.9569611E-01
         -2   -1    0    0    0  501 -0.00000000000E+00  0.00000000000E+00  0.12718913859E+04  0.12718913859E+04  0.25500000000E-02 0.  1.
          2   -1    0    0  501    0  0.00000000000E+00 -0.00000000000E+00 -0.12373176122E+03  0.12373176125E+03  0.25500000000E-02 0. -1.
    5000001    1    1    2    0    0 -0.23661512182E+03 -0.27103289716E+03  0.62071275063E+03  0.73617583906E+03  0.16500000000E+03 0.  0.
   -5000001    1    1    2    0    0  0.23661512182E+03  0.27103289716E+03  0.52744687409E+03  0.65944730813E+03  0.16500000000E+03 0.  0.
<mgrwt>
<rscale>  0 0.79340623E+03</rscale>
<asrwt>0</asrwt>
<pdfrwt beam="1">  1        2 0.17675966E-01 0.79340623E+03</pdfrwt>
<pdfrwt beam="2">  1       -2 0.18169877E+00 0.79340623E+03</pdfrwt>
<totfact> 0.58780991E+01</totfact>
</mgrwt>
</event>
<event>
 4    1  0.5531008E-005  0.8082904E+03  0.7818608E-02  0.9548094E-01
          2   -1    0    0  501    0  0.00000000000E+00  0.00000000000E+00  0.13470490332E+04  0.13470490332E+04  0.25500000000E-02 0.  1.
         -2   -1    0    0    0  501 -0.00000000000E+00 -0.00000000000E+00 -0.12125271245E+03  0.12125271248E+03  0.25500000000E-02 0. -1.
    5000001    1    1    2    0    0 -0.95807332781E+02  0.26978575426E+03  0.19020339664E+03  0.38126858028E+03  0.16500000000E+03 0.  0.
   -5000001    1    1    2    0    0  0.95807332781E+02 -0.26978575426E+03  0.10355929241E+04  0.10870331654E+04  0.16500000000E+03 0.  0.
<mgrwt>
<rscale>  0 0.80829042E+03</rscale>
<asrwt>0</asrwt>
<pdfrwt beam="1">  1        2 0.19243555E+00 0.80829042E+03</pdfrwt>
<pdfrwt beam="2">  1       -2 0.17321818E-01 0.80829042E+03</pdfrwt>
<totfact> 0.48690062E+02</totfact>
</mgrwt>
</event>
<event>
 4    1  0.5531008E-005  0.3739266E+03  0.7818608E-02  0.1053202E+00
          2   -1    0    0  501    0  0.00000000000E+00  0.00000000000E+00  0.11893251472E+04  0.11893251472E+04  0.25500000000E-02 0.  1.
         -2   -1    0    0    0  501 -0.00000000000E+00 -0.00000000000E+00 -0.29390849209E+02  0.29390849319E+02  0.25500000000E-02 0. -1.
    5000001    1    1    2    0    0  0.74785135552E+01  0.83406846090E+02  0.66727861480E+03  0.69245821528E+03  0.16500000000E+03 0.  0.
   -5000001    1    1    2    0    0 -0.74785135552E+01 -0.83406846090E+02  0.49265568324E+03  0.52625778129E+03  0.16500000000E+03 0.  0.
<mgrwt>
<rscale>  0 0.37392660E+03</rscale>
<asrwt>0</asrwt>
<pdfrwt beam="1">  1        2 0.16990361E+00 0.37392660E+03</pdfrwt>
<pdfrwt beam="2">  1       -2 0.41986923E-02 0.37392660E+03</pdfrwt>
<totfact> 0.58321068E+03</totfact>
</mgrwt>
</event>
<event>
 4    1  0.5531008E-005  0.6266320E+03  0.7818608E-02  0.9851643E-01
         -2   -1    0    0    0  501 -0.00000000000E+00  0.00000000000E+00  0.19625273360E+03  0.19625273362E+03  0.25500000000E-02 0. -1.
          2   -1    0    0  501    0  0.00000000000E+00 -0.00000000000E+00 -0.50020655646E+03  0.50020655647E+03  0.25500000000E-02 0.  1.
    5000001    1    1    2    0    0  0.78793205583E+02 -0.25409012613E+03 -0.13741151685E+03  0.34187290973E+03  0.16500000000E+03 0.  0.
   -5000001    1    1    2    0    0 -0.78793205583E+02  0.25409012613E+03 -0.16654230601E+03  0.35458638036E+03  0.16500000000E+03 0.  0.
<mgrwt>
<rscale>  0 0.62663196E+03</rscale>
<asrwt>0</asrwt>
<pdfrwt beam="1">  1        2 0.71458079E-01 0.62663196E+03</pdfrwt>
<pdfrwt beam="2">  1       -2 0.28036105E-01 0.62663196E+03</pdfrwt>
<totfact> 0.78288781E+02</totfact>
</mgrwt>
</event>
<event>
 4    1  0.5531008E-005  0.1059606E+04  0.7818608E-02  0.9245482E-01
         -2   -1    0    0    0  501 -0.00000000000E+00  0.00000000000E+00  0.11359452338E+03  0.11359452341E+03  0.25500000000E-02 0. -1.
          2   -1    0    0  501    0  0.00000000000E+00 -0.00000000000E+00 -0.24709925401E+04  0.24709925401E+04  0.25500000000E-02 0.  1.
    5000001    1    1    2    0    0 -0.12793664878E+03 -0.48183053495E+03 -0.13500995377E+04  0.14486276997E+04  0.16500000000E+03 0.  0.
   -5000001    1    1    2    0    0  0.12793664878E+03  0.48183053495E+03 -0.10072984791E+04  0.11359593639E+04  0.16500000000E+03 0.  0.
<mgrwt>
<rscale>  0 0.10596060E+04</rscale>
<asrwt>0</asrwt>
<pdfrwt beam="1">  1        2 0.35299890E+00 0.10596060E+04</pdfrwt>
<pdfrwt beam="2">  1       -2 0.16227791E-01 0.10596060E+04</pdfrwt>
<totfact> 0.14057052E+02</totfact>
</mgrwt>
</event>
<event>
 4    1  0.5531008E-005  0.3666392E+03  0.7818608E-02  0.1055986E+00
         -2   -1    0    0    0  501 -0.00000000000E+00  0.00000000000E+00  0.23318186105E+02  0.23318186245E+02  0.25500000000E-02 0. -1.
          2   -1    0    0  501    0  0.00000000000E+00 -0.00000000000E+00 -0.14411960670E+04  0.14411960670E+04  0.25500000000E-02 0.  1.
    5000001    1    1    2    0    0  0.71864751005E+02  0.10500518135E+02 -0.57608139709E+03  0.60363033339E+03  0.16500000000E+03 0.  0.
   -5000001    1    1    2    0    0 -0.71864751005E+02 -0.10500518135E+02 -0.84179648380E+03  0.86088391985E+03  0.16500000000E+03 0.  0.
<mgrwt>
<rscale>  0 0.36663921E+03</rscale>
<asrwt>0</asrwt>
<pdfrwt beam="1">  1        2 0.20588510E+00 0.36663921E+03</pdfrwt>
<pdfrwt beam="2">  1       -2 0.33311704E-02 0.36663921E+03</pdfrwt>
<totfact> 0.60778211E+03</totfact>
</mgrwt>
</event>
<event>
 4    1  0.5531008E-005  0.1206616E+04  0.7818608E-02  0.9107085E-01
         -2   -1    0    0    0  501 -0.00000000000E+00  0.00000000000E+00  0.28227286178E+03  0.28227286179E+03  0.25500000000E-02 0. -1.
          2   -1    0    0  501    0  0.00000000000E+00 -0.00000000000E+00 -0.12894641259E+04  0.12894641259E+04  0.25500000000E-02 0.  1.
    5000001    1    1    2    0    0  0.48448607260E+03 -0.74970325595E+02 -0.99142525079E+02  0.52668922957E+03  0.16500000000E+03 0.  0.
   -5000001    1    1    2    0    0 -0.48448607260E+03  0.74970325595E+02 -0.90804873901E+03  0.10450477581E+04  0.16500000000E+03 0.  0.
<mgrwt>
<rscale>  0 0.12066163E+04</rscale>
<asrwt>0</asrwt>
<pdfrwt beam="1">  1        2 0.18420916E+00 0.12066163E+04</pdfrwt>
<pdfrwt beam="2">  1       -2 0.40324695E-01 0.12066163E+04</pdfrwt>
<totfact> 0.10917859E+02</totfact>
</mgrwt>
</event>
<event>
 4    1  0.5531008E-005  0.4671648E+03  0.7818608E-02  0.1022723E+00
          2   -1    0    0  501    0  0.00000000000E+00  0.00000000000E+00  0.97384255895E+02  0.97384255928E+02  0.25500000000E-02 0.  1.
         -2   -1    0    0    0  501 -0.00000000000E+00 -0.00000000000E+00 -0.56026251277E+03  0.56026251277E+03  0.25500000000E-02 0. -1.
    5000001    1    1    2    0    0 -0.64456965053E+02 -0.15337332055E+02 -0.18196380606E+02  0.17873455840E+03  0.16500000000E+03 0.  0.
   -5000001    1    1    2    0    0  0.64456965053E+02  0.15337332055E+02 -0.44468187627E+03  0.47891221030E+03  0.16500000000E+03 0.  0.
<mgrwt>
<rscale>  0 0.46716484E+03</rscale>
<asrwt>0</asrwt>
<pdfrwt beam="1">  1        2 0.13912037E-01 0.46716484E+03</pdfrwt>
<pdfrwt beam="2">  1       -2 0.80037500E-01 0.46716484E+03</pdfrwt>
<totfact> 0.61130815E+02</totfact>
</mgrwt>
</event>
<event>
 4    1  0.5531008E-005  0.1037954E+04  0.7818608E-02  0.9267869E-01
          2   -1    0    0  501    0  0.00000000000E+00  0.00000000000E+00  0.25963175090E+04  0.25963175090E+04  0.25500000000E-02 0.  1.
         -2   -1    0    0    0  501 -0.00000000000E+00 -0.00000000000E+00 -0.10373822908E+03  0.10373822911E+03  0.25500000000E-02 0. -1.
    5000001    1    1    2    0    0 -0.14871936807E+03 -0.44860147089E+03  0.16025062506E+04  0.16788722445E+04  0.16500000000E+03 0.  0.
   -5000001    1    1    2    0    0  0.14871936807E+03  0.44860147089E+03  0.89007302934E+03  0.10211834936E+04  0.16500000000E+03 0.  0.
<mgrwt>
<rscale>  0 0.10379545E+04</rscale>
<asrwt>0</asrwt>
<pdfrwt beam="1">  1        2 0.37090249E+00 0.10379545E+04</pdfrwt>
<pdfrwt beam="2">  1       -2 0.14819747E-01 0.10379545E+04</pdfrwt>
<totfact> 0.14134338E+02</totfact>
</mgrwt>
</event>
<event>
 4    1  0.5531008E-005  0.6914288E+03  0.7818608E-02  0.9732003E-01
         -2   -1    0    0    0  501 -0.00000000000E+00  0.00000000000E+00  0.54684186916E+02  0.54684186975E+02  0.25500000000E-02 0. -1.
          2   -1    0    0  501    0  0.00000000000E+00 -0.00000000000E+00 -0.21856122835E+04  0.21856122835E+04  0.25500000000E-02 0.  1.
    5000001    1    1    2    0    0 -0.26529682534E+03 -0.38601024008E+02 -0.60244760673E+03  0.67973565703E+03  0.16500000000E+03 0.  0.
   -5000001    1    1    2    0    0  0.26529682534E+03  0.38601024008E+02 -0.15284804899E+04  0.15605608134E+04  0.16500000000E+03 0.  0.
<mgrwt>
<rscale>  0 0.69142875E+03</rscale>
<asrwt>0</asrwt>
<pdfrwt beam="1">  1        2 0.31223027E+00 0.69142875E+03</pdfrwt>
<pdfrwt beam="2">  1       -2 0.78120280E-02 0.69142875E+03</pdfrwt>
<totfact> 0.67617333E+02</totfact>
</mgrwt>
</event>
<event>
 4    1  0.5531008E-005  0.9962484E+03  0.7818608E-02  0.9312669E-01
          2   -1    0    0  501    0  0.00000000000E+00  0.00000000000E+00  0.53890700892E+03  0.53890700893E+03  0.25500000000E-02 0.  1.
         -2   -1    0    0    0  501 -0.00000000000E+00 -0.00000000000E+00 -0.46042768635E+03  0.46042768636E+03  0.25500000000E-02 0. -1.
    5000001    1    1    2    0    0  0.20368099659E+03 -0.40279907994E+03 -0.92199320948E+02  0.48934523801E+03  0.16500000000E+03 0.  0.
   -5000001    1    1    2    0    0 -0.20368099659E+03  0.40279907994E+03  0.17067864352E+03  0.50998945728E+03  0.16500000000E+03 0.  0.
<mgrwt>
<rscale>  0 0.99624838E+03</rscale>
<asrwt>0</asrwt>
<pdfrwt beam="1">  1        2 0.76986716E-01 0.99624838E+03</pdfrwt>
<pdfrwt beam="2">  1       -2 0.65775383E-01 0.99624838E+03</pdfrwt>
<totfact> 0.13093892E+02</totfact>
</mgrwt>
</event>
<event>
 4    1  0.5531008E-005  0.3515511E+03  0.7818608E-02  0.1061980E+00
          2   -1    0    0  501    0  0.00000000000E+00  0.00000000000E+00  0.10065478049E+04  0.10065478049E+04  0.25500000000E-02 0.  1.
         -2   -1    0    0    0  501 -0.00000000000E+00 -0.00000000000E+00 -0.30696058726E+02  0.30696058832E+02  0.25500000000E-02 0. -1.
    5000001    1    1    2    0    0 -0.28205660666E+02  0.46642655670E+02  0.56604135466E+03  0.59211393482E+03  0.16500000000E+03 0.  0.
   -5000001    1    1    2    0    0  0.28205660666E+02 -0.46642655670E+02  0.40981039148E+03  0.44512992889E+03  0.16500000000E+03 0.  0.
<mgrwt>
<rscale>  0 0.35155114E+03</rscale>
<asrwt>0</asrwt>
<pdfrwt beam="1">  1        2 0.14379256E+00 0.35155114E+03</pdfrwt>
<pdfrwt beam="2">  1       -2 0.43851508E-02 0.35155114E+03</pdfrwt>
<totfact> 0.69362945E+03</totfact>
</mgrwt>
</event>
<event>
 4    1  0.5531008E-005  0.5319869E+03  0.7818608E-02  0.1005751E+00
          2   -1    0    0  501    0  0.00000000000E+00  0.00000000000E+00  0.21852027351E+04  0.21852027351E+04  0.25500000000E-02 0.  1.
         -2   -1    0    0    0  501 -0.00000000000E+00 -0.00000000000E+00 -0.32378008847E+02  0.32378008947E+02  0.25500000000E-02 0. -1.
    5000001    1    1    2    0    0 -0.31062423632E+02 -0.15842964431E+03  0.16272632429E+04  0.16435557453E+04  0.16500000000E+03 0.  0.
   -5000001    1    1    2    0    0  0.31062423632E+02  0.15842964431E+03  0.52556148341E+03  0.57402499876E+03  0.16500000000E+03 0.  0.
<mgrwt>
<rscale>  0 0.53198689E+03</rscale>
<asrwt>0</asrwt>
<pdfrwt beam="1">  1        2 0.31217185E+00 0.53198689E+03</pdfrwt>
<pdfrwt beam="2">  1       -2 0.46254294E-02 0.53198689E+03</pdfrwt>
<totfact> 0.15534012E+03</totfact>
</mgrwt>
</event>
<event>
 4    1  0.5531008E-005  0.4449685E+03  0.7818608E-02  0.1029233E+00
          2   -1    0    0  501    0  0.00000000000E+00  0.00000000000E+00  0.94664365241E+02  0.94664365275E+02  0.25500000000E-02 0.  1.
         -2   -1    0    0    0  501 -0.00000000000E+00 -0.00000000000E+00 -0.52289190948E+03  0.52289190949E+03  0.25500000000E-02 0. -1.
    5000001    1    1    2    0    0 -0.14254213241E+03 -0.13832586761E+02 -0.15581300905E+03  0.26835106439E+03  0.16500000000E+03 0.  0.
   -5000001    1    1    2    0    0  0.14254213241E+03  0.13832586761E+02 -0.27241453519E+03  0.34920521037E+03  0.16500000000E+03 0.  0.
<mgrwt>
<rscale>  0 0.44496845E+03</rscale>
<asrwt>0</asrwt>
<pdfrwt beam="1">  1        2 0.13523481E-01 0.44496845E+03</pdfrwt>
<pdfrwt beam="2">  1       -2 0.74698843E-01 0.44496845E+03</pdfrwt>
<totfact> 0.73701320E+02</totfact>
</mgrwt>
</event>
<event>
 4    1  0.5531008E-005  0.6175167E+03  0.7818608E-02  0.9869716E-01
         -2   -1    0    0    0  501 -0.00000000000E+00  0.00000000000E+00  0.89277542648E+02  0.89277542685E+02  0.25500000000E-02 0. -1.
          2   -1    0    0  501    0  0.00000000000E+00 -0.00000000000E+00 -0.10678128999E+04  0.10678128999E+04  0.25500000000E-02 0.  1.
    5000001    1    1    2    0    0  0.15374379554E+03 -0.17438638002E+03 -0.71144259242E+03  0.76643546793E+03  0.16500000000E+03 0.  0.
   -5000001    1    1    2    0    0 -0.15374379554E+03  0.17438638002E+03 -0.26709276487E+03  0.39065497469E+03  0.16500000000E+03 0.  0.
<mgrwt>
<rscale>  0 0.61751668E+03</rscale>
<asrwt>0</asrwt>
<pdfrwt beam="1">  1        2 0.15254469E+00 0.61751668E+03</pdfrwt>
<pdfrwt beam="2">  1       -2 0.12753935E-01 0.61751668E+03</pdfrwt>
<totfact> 0.11813357E+03</totfact>
</mgrwt>
</event>
<event>
 4    1  0.5531008E-005  0.9958450E+03  0.7818608E-02  0.9313114E-01
         -2   -1    0    0    0  501 -0.00000000000E+00  0.00000000000E+00  0.12808763308E+03  0.12808763311E+03  0.25500000000E-02 0. -1.
          2   -1    0    0  501    0  0.00000000000E+00 -0.00000000000E+00 -0.19356028834E+04  0.19356028834E+04  0.25500000000E-02 0.  1.
    5000001    1    1    2    0    0 -0.17780300321E+02 -0.46882238716E+03 -0.85336950030E+03  0.98771203993E+03  0.16500000000E+03 0.  0.
   -5000001    1    1    2    0    0  0.17780300321E+02  0.46882238716E+03 -0.95414574999E+03  0.10759784766E+04  0.16500000000E+03 0.  0.
<mgrwt>
<rscale>  0 0.99584495E+03</rscale>
<asrwt>0</asrwt>
<pdfrwt beam="1">  1        2 0.27651468E+00 0.99584495E+03</pdfrwt>
<pdfrwt beam="2">  1       -2 0.18298234E-01 0.99584495E+03</pdfrwt>
<totfact> 0.21618684E+02</totfact>
</mgrwt>
</event>
<event>
 4    1  0.5531008E-005  0.6848966E+03  0.7818608E-02  0.9743415E-01
         -2   -1    0    0    0  501 -0.00000000000E+00  0.00000000000E+00  0.44436162604E+02  0.44436162677E+02  0.25500000000E-02 0. -1.
          2   -1    0    0  501    0  0.00000000000E+00 -0.00000000000E+00 -0.26390859892E+04  0.26390859892E+04  0.25500000000E-02 0.  1.
    5000001    1    1    2    0    0 -0.19914456027E+03 -0.18404701957E+03 -0.79381712575E+03  0.85492835397E+03  0.16500000000E+03 0.  0.
   -5000001    1    1    2    0    0  0.19914456027E+03  0.18404701957E+03 -0.18008327008E+04  0.18285937979E+04  0.16500000000E+03 0.  0.
<mgrwt>
<rscale>  0 0.68489665E+03</rscale>
<asrwt>0</asrwt>
<pdfrwt beam="1">  1        2 0.37701218E+00 0.68489665E+03</pdfrwt>
<pdfrwt beam="2">  1       -2 0.63480249E-02 0.68489665E+03</pdfrwt>
<totfact> 0.55045007E+02</totfact>
</mgrwt>
</event>
<event>
 4    1  0.5531008E-005  0.5384933E+03  0.7818608E-02  0.1004193E+00
          2   -1    0    0  501    0  0.00000000000E+00  0.00000000000E+00  0.24755456478E+04  0.24755456478E+04  0.25500000000E-02 0.  1.
         -2   -1    0    0    0  501 -0.00000000000E+00 -0.00000000000E+00 -0.29283947889E+02  0.29283948000E+02  0.25500000000E-02 0. -1.
    5000001    1    1    2    0    0  0.15597634094E+03 -0.14456688733E+03  0.12527499688E+04  0.12813413628E+04  0.16500000000E+03 0.  0.
   -5000001    1    1    2    0    0 -0.15597634094E+03  0.14456688733E+03  0.11935117311E+04  0.12234882329E+04  0.16500000000E+03 0.  0.
<mgrwt>
<rscale>  0 0.53849327E+03</rscale>
<asrwt>0</asrwt>
<pdfrwt beam="1">  1        2 0.35364937E+00 0.53849327E+03</pdfrwt>
<pdfrwt beam="2">  1       -2 0.41834213E-02 0.53849327E+03</pdfrwt>
<totfact> 0.12927555E+03</totfact>
</mgrwt>
</event>
<event>
 4    1  0.5531008E-005  0.4934311E+03  0.7818608E-02  0.1015508E+00
          2   -1    0    0  501    0  0.00000000000E+00  0.00000000000E+00  0.45513436941E+03  0.45513436941E+03  0.25500000000E-02 0.  1.
         -2   -1    0    0    0  501 -0.00000000000E+00 -0.00000000000E+00 -0.13373756482E+03  0.13373756484E+03  0.25500000000E-02 0. -1.
    5000001    1    1    2    0    0  0.31995385691E+02  0.17264113006E+03  0.22401617805E+03  0.32899378797E+03  0.16500000000E+03 0.  0.
   -5000001    1    1    2    0    0 -0.31995385691E+02 -0.17264113006E+03  0.97380626534E+02  0.25987814628E+03  0.16500000000E+03 0.  0.
<mgrwt>
<rscale>  0 0.49343110E+03</rscale>
<asrwt>0</asrwt>
<pdfrwt beam="1">  1        2 0.65019197E-01 0.49343110E+03</pdfrwt>
<pdfrwt beam="2">  1       -2 0.19105366E-01 0.49343110E+03</pdfrwt>
<totfact> 0.17210088E+03</totfact>
</mgrwt>
</event>
<event>
 4    1  0.5531008E-005  0.5271628E+03  0.7818608E-02  0.1006923E+00
          2   -1    0    0  501    0  0.00000000000E+00  0.00000000000E+00  0.47492682705E+03  0.47492682706E+03  0.25500000000E-02 0.  1.
         -2   -1    0    0    0  501 -0.00000000000E+00 -0.00000000000E+00 -0.14628604547E+03  0.14628604549E+03  0.25500000000E-02 0. -1.
    5000001    1    1    2    0    0 -0.10911759139E+03 -0.15600409634E+03  0.72993849060E+02  0.26229187716E+03  0.16500000000E+03 0.  0.
   -5000001    1    1    2    0    0  0.10911759139E+03  0.15600409634E+03  0.25564693253E+03  0.35892099539E+03  0.16500000000E+03 0.  0.
<mgrwt>
<rscale>  0 0.52716285E+03</rscale>
<asrwt>0</asrwt>
<pdfrwt beam="1">  1        2 0.67846690E-01 0.52716285E+03</pdfrwt>
<pdfrwt beam="2">  1       -2 0.20898006E-01 0.52716285E+03</pdfrwt>
<totfact> 0.14044977E+03</totfact>
</mgrwt>
</event>
<event>
 4    1  0.5531008E-005  0.1806403E+04  0.7818608E-02  0.8702902E-01
         -2   -1    0    0    0  501 -0.00000000000E+00  0.00000000000E+00  0.52792448191E+03  0.52792448191E+03  0.25500000000E-02 0. -1.
          2   -1    0    0  501    0  0.00000000000E+00 -0.00000000000E+00 -0.15452452419E+04  0.15452452419E+04  0.25500000000E-02 0.  1.
    5000001    1    1    2    0    0 -0.85746857550E+03 -0.46360901177E+02 -0.76821366292E+03  0.11639497081E+04  0.16500000000E+03 0.  0.
   -5000001    1    1    2    0    0  0.85746857550E+03  0.46360901177E+02 -0.24910709707E+03  0.90922001569E+03  0.16500000000E+03 0.  0.
<mgrwt>
<rscale>  0 0.18064028E+04</rscale>
<asrwt>0</asrwt>
<pdfrwt beam="1">  1        2 0.22074932E+00 0.18064028E+04</pdfrwt>
<pdfrwt beam="2">  1       -2 0.75417784E-01 0.18064028E+04</pdfrwt>
<totfact> 0.20647353E+01</totfact>
</mgrwt>
</event>
<event>
 4    1  0.5531008E-005  0.5885525E+03  0.7818608E-02  0.9929445E-01
          2   -1    0    0  501    0  0.00000000000E+00  0.00000000000E+00  0.18957047853E+03  0.18957047855E+03  0.25500000000E-02 0.  1.
         -2   -1    0    0    0  501 -0.00000000000E+00 -0.00000000000E+00 -0.45681435719E+03  0.45681435719E+03  0.25500000000E-02 0. -1.
    5000001    1    1    2    0    0 -0.99181047464E+02  0.22064126753E+03 -0.10152586211E+03  0.30992248997E+03  0.16500000000E+03 0.  0.
   -5000001    1    1    2    0    0  0.99181047464E+02 -0.22064126753E+03 -0.16571801654E+03  0.33646234577E+03  0.16500000000E+03 0.  0.
<mgrwt>
<rscale>  0 0.58855252E+03</rscale>
<asrwt>0</asrwt>
<pdfrwt beam="1">  1        2 0.27081497E-01 0.58855252E+03</pdfrwt>
<pdfrwt beam="2">  1       -2 0.65259194E-01 0.58855252E+03</pdfrwt>
<totfact> 0.43668296E+02</totfact>
</mgrwt>
</event>
<event>
 4    1  0.5531008E-005  0.5873440E+03  0.7818608E-02  0.9932017E-01
         -2   -1    0    0    0  501 -0.00000000000E+00  0.00000000000E+00  0.17678651389E+02  0.17678651573E+02  0.25500000000E-02 0. -1.
          2   -1    0    0  501    0  0.00000000000E+00 -0.00000000000E+00 -0.48783832843E+04  0.48783832843E+04  0.25500000000E-02 0.  1.
    5000001    1    1    2    0    0  0.47361357757E+02  0.13106685230E+03 -0.77159275918E+03  0.80125027550E+03  0.16500000000E+03 0.  0.
   -5000001    1    1    2    0    0 -0.47361357757E+02 -0.13106685230E+03 -0.40891118737E+04  0.40948116604E+04  0.16500000000E+03 0.  0.
<mgrwt>
<rscale>  0 0.58734398E+03</rscale>
<asrwt>0</asrwt>
<pdfrwt beam="1">  1        2 0.69691104E+00 0.58734398E+03</pdfrwt>
<pdfrwt beam="2">  1       -2 0.25255248E-02 0.58734398E+03</pdfrwt>
<totfact> 0.79207568E+01</totfact>
</mgrwt>
</event>
<event>
 4    1  0.5531008E-005  0.5270518E+03  0.7818608E-02  0.1006950E+00
          2   -1    0    0  501    0  0.00000000000E+00  0.00000000000E+00  0.75272597603E+03  0.75272597604E+03  0.25500000000E-02 0.  1.
         -2   -1    0    0    0  501 -0.00000000000E+00 -0.00000000000E+00 -0.92259196566E+02  0.92259196601E+02  0.25500000000E-02 0. -1.
    5000001    1    1    2    0    0  0.24223063688E+02  0.17453656248E+03  0.49968444157E+03  0.55494081631E+03  0.16500000000E+03 0.  0.
   -5000001    1    1    2    0    0 -0.24223063688E+02 -0.17453656248E+03  0.16078233789E+03  0.29004435633E+03  0.16500000000E+03 0.  0.
<mgrwt>
<rscale>  0 0.52705178E+03</rscale>
<asrwt>0</asrwt>
<pdfrwt beam="1">  1        2 0.10753228E+00 0.52705178E+03</pdfrwt>
<pdfrwt beam="2">  1       -2 0.13179885E-01 0.52705178E+03</pdfrwt>
<totfact> 0.17885945E+03</totfact>
</mgrwt>
</event>
<event>
 4    1  0.5531008E-005  0.4902061E+03  0.7818608E-02  0.1016367E+00
         -2   -1    0    0    0  501 -0.00000000000E+00  0.00000000000E+00  0.37556905222E+02  0.37556905308E+02  0.25500000000E-02 0. -1.
          2   -1    0    0  501    0  0.00000000000E+00 -0.00000000000E+00 -0.15995858187E+04  0.15995858187E+04  0.25500000000E-02 0.  1.
    5000001    1    1    2    0    0  0.95305810132E+01  0.13681999348E+03 -0.11767368824E+04  0.11961376313E+04  0.16500000000E+03 0.  0.
   -5000001    1    1    2    0    0 -0.95305810132E+01 -0.13681999348E+03 -0.38529203106E+03  0.44100509270E+03  0.16500000000E+03 0.  0.
<mgrwt>
<rscale>  0 0.49020605E+03</rscale>
<asrwt>0</asrwt>
<pdfrwt beam="1">  1        2 0.22851222E+00 0.49020605E+03</pdfrwt>
<pdfrwt beam="2">  1       -2 0.53652732E-02 0.49020605E+03</pdfrwt>
<totfact> 0.24344452E+03</totfact>
</mgrwt>
</event>
<event>
 4    1  0.5531008E-005  0.4154325E+03  0.7818608E-02  0.1038563E+00
          2   -1    0    0  501    0  0.00000000000E+00  0.00000000000E+00  0.14704037836E+04  0.14704037836E+04  0.25500000000E-02 0.  1.
         -2   -1    0    0    0  501 -0.00000000000E+00 -0.00000000000E+00 -0.29342993981E+02  0.29342994092E+02  0.25500000000E-02 0. -1.
    5000001    1    1    2    0    0 -0.92387620491E+02 -0.85863807356E+02  0.73353853967E+03  0.76237251722E+03  0.16500000000E+03 0.  0.
   -5000001    1    1    2    0    0  0.92387620491E+02  0.85863807356E+02  0.70752224992E+03  0.73737426044E+03  0.16500000000E+03 0.  0.
<mgrwt>
<rscale>  0 0.41543254E+03</rscale>
<asrwt>0</asrwt>
<pdfrwt beam="1">  1        2 0.21005774E+00 0.41543254E+03</pdfrwt>
<pdfrwt beam="2">  1       -2 0.41918552E-02 0.41543254E+03</pdfrwt>
<totfact> 0.41471064E+03</totfact>
</mgrwt>
</event>
<event>
 4    1  0.5531008E-005  0.4850363E+03  0.7818608E-02  0.1017760E+00
          2   -1    0    0  501    0  0.00000000000E+00  0.00000000000E+00  0.31067330821E+04  0.31067330821E+04  0.25500000000E-02 0.  1.
         -2   -1    0    0    0  501 -0.00000000000E+00 -0.00000000000E+00 -0.18931482896E+02  0.18931483068E+02  0.25500000000E-02 0. -1.
    5000001    1    1    2    0    0 -0.17389511127E+03 -0.32112769790E+01  0.17798180893E+04  0.17958917709E+04  0.16500000000E+03 0.  0.
   -5000001    1    1    2    0    0  0.17389511127E+03  0.32112769790E+01  0.13079835100E+04  0.13297727943E+04  0.16500000000E+03 0.  0.
<mgrwt>
<rscale>  0 0.48503635E+03</rscale>
<asrwt>0</asrwt>
<pdfrwt beam="1">  1        2 0.44381865E+00 0.48503635E+03</pdfrwt>
<pdfrwt beam="2">  1       -2 0.27044998E-02 0.48503635E+03</pdfrwt>
<totfact> 0.11711326E+03</totfact>
</mgrwt>
</event>
<event>
 4    1  0.5531008E-005  0.7198648E+03  0.7818608E-02  0.9683851E-01
          2   -1    0    0  501    0  0.00000000000E+00  0.00000000000E+00  0.11767396301E+04  0.11767396301E+04  0.25500000000E-02 0.  1.
         -2   -1    0    0    0  501 -0.00000000000E+00 -0.00000000000E+00 -0.11009346104E+03  0.11009346107E+03  0.25500000000E-02 0. -1.
    5000001    1    1    2    0    0 -0.26093730643E+03 -0.67229544573E+02  0.84148777915E+03  0.89885191884E+03  0.16500000000E+03 0.  0.
   -5000001    1    1    2    0    0  0.26093730643E+03  0.67229544573E+02  0.22515838994E+03  0.38798117237E+03  0.16500000000E+03 0.  0.
<mgrwt>
<rscale>  0 0.71986482E+03</rscale>
<asrwt>0</asrwt>
<pdfrwt beam="1">  1        2 0.16810565E+00 0.71986482E+03</pdfrwt>
<pdfrwt beam="2">  1       -2 0.15727638E-01 0.71986482E+03</pdfrwt>
<totfact> 0.71652808E+02</totfact>
</mgrwt>
</event>
<event>
 4    1  0.5531008E-005  0.4218049E+03  0.7818608E-02  0.1036480E+00
          2   -1    0    0  501    0  0.00000000000E+00  0.00000000000E+00  0.75460742239E+03  0.75460742240E+03  0.25500000000E-02 0.  1.
         -2   -1    0    0    0  501 -0.00000000000E+00 -0.00000000000E+00 -0.58944337609E+02  0.58944337665E+02  0.25500000000E-02 0. -1.
    5000001    1    1    2    0    0  0.35040840884E+02  0.84366518326E+02  0.16577992429E+03  0.25110466591E+03  0.16500000000E+03 0.  0.
   -5000001    1    1    2    0    0 -0.35040840884E+02 -0.84366518326E+02  0.52988316049E+03  0.56244709415E+03  0.16500000000E+03 0.  0.
<mgrwt>
<rscale>  0 0.42180486E+03</rscale>
<asrwt>0</asrwt>
<pdfrwt beam="1">  1        2 0.10780105E+00 0.42180486E+03</pdfrwt>
<pdfrwt beam="2">  1       -2 0.84206201E-02 0.42180486E+03</pdfrwt>
<totfact> 0.36787575E+03</totfact>
</mgrwt>
</event>
<event>
 4    1  0.5531008E-005  0.5491947E+03  0.7818608E-02  0.1001680E+00
         -2   -1    0    0    0  501 -0.00000000000E+00  0.00000000000E+00  0.89783935319E+02  0.89783935355E+02  0.25500000000E-02 0. -1.
          2   -1    0    0  501    0  0.00000000000E+00 -0.00000000000E+00 -0.83983516997E+03  0.83983516997E+03  0.25500000000E-02 0.  1.
    5000001    1    1    2    0    0 -0.19034495260E+03  0.68520886739E+02 -0.51917718956E+03  0.58111639717E+03  0.16500000000E+03 0.  0.
   -5000001    1    1    2    0    0  0.19034495260E+03 -0.68520886739E+02 -0.23087404509E+03  0.34850270816E+03  0.16500000000E+03 0.  0.
<mgrwt>
<rscale>  0 0.54919471E+03</rscale>
<asrwt>0</asrwt>
<pdfrwt beam="1">  1        2 0.11997645E+00 0.54919471E+03</pdfrwt>
<pdfrwt beam="2">  1       -2 0.12826277E-01 0.54919471E+03</pdfrwt>
<totfact> 0.16277999E+03</totfact>
</mgrwt>
</event>
<event>
 4    1  0.5531008E-005  0.3966474E+03  0.7818608E-02  0.1044947E+00
         -2   -1    0    0    0  501 -0.00000000000E+00  0.00000000000E+00  0.32308137514E+02  0.32308137614E+02  0.25500000000E-02 0. -1.
          2   -1    0    0  501    0  0.00000000000E+00 -0.00000000000E+00 -0.12174113612E+04  0.12174113612E+04  0.25500000000E-02 0.  1.
    5000001    1    1    2    0    0 -0.94556413367E+02  0.53663610346E+02 -0.64589031878E+03  0.67544059863E+03  0.16500000000E+03 0.  0.
   -5000001    1    1    2    0    0  0.94556413367E+02 -0.53663610346E+02 -0.53921290494E+03  0.57427890022E+03  0.16500000000E+03 0.  0.
<mgrwt>
<rscale>  0 0.39664742E+03</rscale>
<asrwt>0</asrwt>
<pdfrwt beam="1">  1        2 0.17391588E+00 0.39664742E+03</pdfrwt>
<pdfrwt beam="2">  1       -2 0.46154490E-02 0.39664742E+03</pdfrwt>
<totfact> 0.48752437E+03</totfact>
</mgrwt>
</event>
<event>
 4    1  0.5531008E-005  0.4312590E+03  0.7818608E-02  0.1033463E+00
         -2   -1    0    0    0  501 -0.00000000000E+00  0.00000000000E+00  0.55599470379E+03  0.55599470380E+03  0.25500000000E-02 0. -1.
          2   -1    0    0  501    0  0.00000000000E+00 -0.00000000000E+00 -0.83626856020E+02  0.83626856058E+02  0.25500000000E-02 0.  1.
    5000001    1    1    2    0    0  0.68706773186E+02  0.11241556295E+03  0.17131059857E+03  0.27190108617E+03  0.16500000000E+03 0.  0.
   -5000001    1    1    2    0    0 -0.68706773186E+02 -0.11241556295E+03  0.30105724920E+03  0.36772047369E+03  0.16500000000E+03 0.  0.
<mgrwt>
<rscale>  0 0.43125904E+03</rscale>
<asrwt>0</asrwt>
<pdfrwt beam="1">  1        2 0.11946694E-01 0.43125904E+03</pdfrwt>
<pdfrwt beam="2">  1       -2 0.79427813E-01 0.43125904E+03</pdfrwt>
<totfact> 0.74918053E+02</totfact>
</mgrwt>
</event>
<event>
 4    1  0.5531008E-005  0.3803969E+03  0.7818608E-02  0.1050787E+00
         -2   -1    0    0    0  501 -0.00000000000E+00  0.00000000000E+00  0.12996170184E+02  0.12996170434E+02  0.25500000000E-02 0. -1.
          2   -1    0    0  501    0  0.00000000000E+00 -0.00000000000E+00 -0.27835474624E+04  0.27835474624E+04  0.25500000000E-02 0.  1.
    5000001    1    1    2    0    0 -0.68351906538E+02  0.13698966008E+02 -0.91506835711E+03  0.93243484651E+03  0.16500000000E+03 0.  0.
   -5000001    1    1    2    0    0  0.68351906538E+02 -0.13698966008E+02 -0.18554829351E+04  0.18641087863E+04  0.16500000000E+03 0.  0.
<mgrwt>
<rscale>  0 0.38039693E+03</rscale>
<asrwt>0</asrwt>
<pdfrwt beam="1">  1        2 0.39764926E+00 0.38039693E+03</pdfrwt>
<pdfrwt beam="2">  1       -2 0.18565975E-02 0.38039693E+03</pdfrwt>
<totfact> 0.30851158E+03</totfact>
</mgrwt>
</event>
<event>
 4    1  0.5531008E-005  0.8073347E+03  0.7818608E-02  0.9549461E-01
          2   -1    0    0  501    0  0.00000000000E+00  0.00000000000E+00  0.22048633498E+04  0.22048633498E+04  0.25500000000E-02 0.  1.
         -2   -1    0    0    0  501 -0.00000000000E+00 -0.00000000000E+00 -0.73903601759E+02  0.73903601803E+02  0.25500000000E-02 0. -1.
    5000001    1    1    2    0    0 -0.34607596072E+03 -0.93067561212E+02  0.82444737484E+03  0.91398501926E+03  0.16500000000E+03 0.  0.
   -5000001    1    1    2    0    0  0.34607596072E+03  0.93067561212E+02  0.13065123732E+04  0.13647819323E+04  0.16500000000E+03 0.  0.
<mgrwt>
<rscale>  0 0.80733473E+03</rscale>
<asrwt>0</asrwt>
<pdfrwt beam="1">  1        2 0.31498043E+00 0.80733473E+03</pdfrwt>
<pdfrwt beam="2">  1       -2 0.10557659E-01 0.80733473E+03</pdfrwt>
<totfact> 0.40314044E+02</totfact>
</mgrwt>
</event>
<event>
 4    1  0.5531008E-005  0.5502027E+03  0.7818608E-02  0.1001447E+00
          2   -1    0    0  501    0  0.00000000000E+00  0.00000000000E+00  0.35401612624E+03  0.35401612625E+03  0.25500000000E-02 0.  1.
         -2   -1    0    0    0  501 -0.00000000000E+00 -0.00000000000E+00 -0.21377768468E+03  0.21377768469E+03  0.25500000000E-02 0. -1.
    5000001    1    1    2    0    0 -0.19591824510E+03  0.68373587403E+02  0.14593119160E+03  0.30262157706E+03  0.16500000000E+03 0.  0.
   -5000001    1    1    2    0    0  0.19591824510E+03 -0.68373587403E+02 -0.56927500409E+01  0.26517223388E+03  0.16500000000E+03 0.  0.
<mgrwt>
<rscale>  0 0.55020268E+03</rscale>
<asrwt>0</asrwt>
<pdfrwt beam="1">  1        2 0.50573732E-01 0.55020268E+03</pdfrwt>
<pdfrwt beam="2">  1       -2 0.30539669E-01 0.55020268E+03</pdfrwt>
<totfact> 0.98504400E+02</totfact>
</mgrwt>
</event>
<event>
 4    1  0.5531008E-005  0.6901681E+03  0.7818608E-02  0.9734195E-01
          2   -1    0    0  501    0  0.00000000000E+00  0.00000000000E+00  0.11974178467E+04  0.11974178467E+04  0.25500000000E-02 0.  1.
         -2   -1    0    0    0  501 -0.00000000000E+00 -0.00000000000E+00 -0.99449817091E+02  0.99449817123E+02  0.25500000000E-02 0. -1.
    5000001    1    1    2    0    0 -0.21525019046E+02  0.25115891793E+03  0.86516833430E+03  0.91612519624E+03  0.16500000000E+03 0.  0.
   -5000001    1    1    2    0    0  0.21525019046E+02 -0.25115891793E+03  0.23279969534E+03  0.38074246762E+03  0.16500000000E+03 0.  0.
<mgrwt>
<rscale>  0 0.69016805E+03</rscale>
<asrwt>0</asrwt>
<pdfrwt beam="1">  1        2 0.17105968E+00 0.69016805E+03</pdfrwt>
<pdfrwt beam="2">  1       -2 0.14207117E-01 0.69016805E+03</pdfrwt>
<totfact> 0.82899067E+02</totfact>
</mgrwt>
</event>
<event>
 4    1  0.5531008E-005  0.4572795E+03  0.7818608E-02  0.1025573E+00
          2   -1    0    0  501    0  0.00000000000E+00  0.00000000000E+00  0.16265985936E+04  0.16265985936E+04  0.25500000000E-02 0.  1.
         -2   -1    0    0    0  501 -0.00000000000E+00 -0.00000000000E+00 -0.32138309940E+02  0.32138310041E+02  0.25500000000E-02 0. -1.
    5000001    1    1    2    0    0 -0.86498515927E+02 -0.11546207298E+03  0.10333639379E+04  0.10563519829E+04  0.16500000000E+03 0.  0.
   -5000001    1    1    2    0    0  0.86498515927E+02  0.11546207298E+03  0.56109634579E+03  0.60238492080E+03  0.16500000000E+03 0.  0.
<mgrwt>
<rscale>  0 0.45727948E+03</rscale>
<asrwt>0</asrwt>
<pdfrwt beam="1">  1        2 0.23237126E+00 0.45727948E+03</pdfrwt>
<pdfrwt beam="2">  1       -2 0.45911864E-02 0.45727948E+03</pdfrwt>
<totfact> 0.30011706E+03</totfact>
</mgrwt>
</event>
<event>
 4    1  0.5531008E-005  0.6036454E+03  0.7818608E-02  0.9897872E-01
          2   -1    0    0  501    0  0.00000000000E+00  0.00000000000E+00  0.66121364922E+02  0.66121364972E+02  0.25500000000E-02 0.  1.
         -2   -1    0    0    0  501 -0.00000000000E+00 -0.00000000000E+00 -0.13777231354E+04  0.13777231354E+04  0.25500000000E-02 0. -1.
    5000001    1    1    2    0    0 -0.24402471070E+03  0.59756351216E+02 -0.59016348033E+03  0.66229662120E+03  0.16500000000E+03 0.  0.
   -5000001    1    1    2    0    0  0.24402471070E+03 -0.59756351216E+02 -0.72143829016E+03  0.78154787918E+03  0.16500000000E+03 0.  0.
<mgrwt>
<rscale>  0 0.60364537E+03</rscale>
<asrwt>0</asrwt>
<pdfrwt beam="1">  1        2 0.94459101E-02 0.60364537E+03</pdfrwt>
<pdfrwt beam="2">  1       -2 0.19681757E+00 0.60364537E+03</pdfrwt>
<totfact> 0.10224481E+02</totfact>
</mgrwt>
</event>
<event>
 4    1  0.5531008E-005  0.7093911E+03  0.7818608E-02  0.9701306E-01
         -2   -1    0    0    0  501 -0.00000000000E+00  0.00000000000E+00  0.45919062886E+03  0.45919062887E+03  0.25500000000E-02 0. -1.
          2   -1    0    0  501    0  0.00000000000E+00 -0.00000000000E+00 -0.27397974034E+03  0.27397974035E+03  0.25500000000E-02 0.  1.
    5000001    1    1    2    0    0 -0.22791686315E+02 -0.31304559893E+03  0.84150683281E+02  0.36444937299E+03  0.16500000000E+03 0.  0.
   -5000001    1    1    2    0    0  0.22791686315E+02  0.31304559893E+03  0.10106020525E+03  0.36872099623E+03  0.16500000000E+03 0.  0.
<mgrwt>
<rscale>  0 0.70939109E+03</rscale>
<asrwt>0</asrwt>
<pdfrwt beam="1">  1        2 0.39139963E-01 0.70939109E+03</pdfrwt>
<pdfrwt beam="2">  1       -2 0.65598661E-01 0.70939109E+03</pdfrwt>
<totfact> 0.28500788E+02</totfact>
</mgrwt>
</event>
<event>
 4    1  0.5531008E-005  0.4879393E+03  0.7818608E-02  0.1016976E+00
         -2   -1    0    0    0  501 -0.00000000000E+00  0.00000000000E+00  0.89380585340E+02  0.89380585377E+02  0.25500000000E-02 0.  1.
          2   -1    0    0  501    0  0.00000000000E+00 -0.00000000000E+00 -0.66592969842E+03  0.66592969842E+03  0.25500000000E-02 0. -1.
    5000001    1    1    2    0    0  0.18426288543E+02  0.14690600768E+03 -0.13060073638E+03  0.25729837844E+03  0.16500000000E+03 0.  0.
   -5000001    1    1    2    0    0 -0.18426288543E+02 -0.14690600768E+03 -0.44594837670E+03  0.49801190536E+03  0.16500000000E+03 0.  0.
<mgrwt>
<rscale>  0 0.48793928E+03</rscale>
<asrwt>0</asrwt>
<pdfrwt beam="1">  1        2 0.95132812E-01 0.48793928E+03</pdfrwt>
<pdfrwt beam="2">  1       -2 0.12768655E-01 0.48793928E+03</pdfrwt>
<totfact> 0.21886405E+03</totfact>
</mgrwt>
</event>
<event>
 4    1  0.5531008E-005  0.5637690E+03  0.7818608E-02  0.9983563E-01
         -2   -1    0    0    0  501 -0.00000000000E+00  0.00000000000E+00  0.23514319386E+02  0.23514319524E+02  0.25500000000E-02 0. -1.
          2   -1    0    0  501    0  0.00000000000E+00 -0.00000000000E+00 -0.33791690167E+04  0.33791690167E+04  0.25500000000E-02 0.  1.
    5000001    1    1    2    0    0  0.18345402534E+03 -0.10036645316E+03 -0.11212071676E+04  0.11524145596E+04  0.16500000000E+03 0.  0.
   -5000001    1    1    2    0    0 -0.18345402534E+03  0.10036645316E+03 -0.22344475297E+04  0.22502687767E+04  0.16500000000E+03 0.  0.
<mgrwt>
<rscale>  0 0.56376896E+03</rscale>
<asrwt>0</asrwt>
<pdfrwt beam="1">  1        2 0.48273812E+00 0.56376896E+03</pdfrwt>
<pdfrwt beam="2">  1       -2 0.33591907E-02 0.56376896E+03</pdfrwt>
<totfact> 0.58715516E+02</totfact>
</mgrwt>
</event>
<event>
 4    1  0.5531008E-005  0.4042162E+03  0.7818608E-02  0.1042329E+00
          2   -1    0    0  501    0  0.00000000000E+00  0.00000000000E+00  0.11099629367E+04  0.11099629367E+04  0.25500000000E-02 0.  1.
         -2   -1    0    0    0  501 -0.00000000000E+00 -0.00000000000E+00 -0.36800950105E+02  0.36800950193E+02  0.25500000000E-02 0. -1.
    5000001    1    1    2    0    0 -0.10167423108E+03  0.13704345258E+02  0.69446827649E+03  0.72113566366E+03  0.16500000000E+03 0.  0.
   -5000001    1    1    2    0    0  0.10167423108E+03 -0.13704345258E+02  0.37869371011E+03  0.42562822325E+03  0.16500000000E+03 0.  0.
<mgrwt>
<rscale>  0 0.40421623E+03</rscale>
<asrwt>0</asrwt>
<pdfrwt beam="1">  1        2 0.15856613E+00 0.40421623E+03</pdfrwt>
<pdfrwt beam="2">  1       -2 0.52572788E-02 0.40421623E+03</pdfrwt>
<totfact> 0.45850642E+03</totfact>
</mgrwt>
</event>
<event>
 4    1  0.5531008E-005  0.4121320E+03  0.7818608E-02  0.1039658E+00
          2   -1    0    0  501    0  0.00000000000E+00  0.00000000000E+00  0.30096288502E+04  0.30096288502E+04  0.25500000000E-02 0.  1.
         -2   -1    0    0    0  501 -0.00000000000E+00 -0.00000000000E+00 -0.14109113032E+02  0.14109113263E+02  0.25500000000E-02 0. -1.
    5000001    1    1    2    0    0  0.58908972622E+02 -0.92683432090E+02  0.10841748058E+04  0.11021435910E+04  0.16500000000E+03 0.  0.
   -5000001    1    1    2    0    0 -0.58908972622E+02  0.92683432090E+02  0.19113449313E+04  0.19215943724E+04  0.16500000000E+03 0.  0.
<mgrwt>
<rscale>  0 0.41213199E+03</rscale>
<asrwt>0</asrwt>
<pdfrwt beam="1">  1        2 0.42994684E+00 0.41213199E+03</pdfrwt>
<pdfrwt beam="2">  1       -2 0.20155882E-02 0.41213199E+03</pdfrwt>
<totfact> 0.20681848E+03</totfact>
</mgrwt>
</event>
<event>
 4    1  0.5531008E-005  0.7371794E+03  0.7818608E-02  0.9655681E-01
          2   -1    0    0  501    0  0.00000000000E+00  0.00000000000E+00  0.26003787348E+04  0.26003787348E+04  0.25500000000E-02 0. -1.
         -2   -1    0    0    0  501 -0.00000000000E+00 -0.00000000000E+00 -0.52245612141E+02  0.52245612203E+02  0.25500000000E-02 0.  1.
    5000001    1    1    2    0    0  0.14893157233E+03 -0.23368729807E+03  0.63195629373E+03  0.70949568265E+03  0.16500000000E+03 0.  0.
   -5000001    1    1    2    0    0 -0.14893157233E+03  0.23368729807E+03  0.19161768290E+04  0.19431286644E+04  0.16500000000E+03 0.  0.
<mgrwt>
<rscale>  0 0.73717943E+03</rscale>
<asrwt>0</asrwt>
<pdfrwt beam="1">  1        2 0.37148274E+00 0.73717943E+03</pdfrwt>
<pdfrwt beam="2">  1       -2 0.74636576E-02 0.73717943E+03</pdfrwt>
<totfact> 0.44426617E+02</totfact>
</mgrwt>
</event>
<event>
 4    1  0.5531008E-005  0.5334212E+03  0.7818608E-02  0.1005406E+00
         -2   -1    0    0    0  501 -0.00000000000E+00  0.00000000000E+00  0.40604042355E+02  0.40604042435E+02  0.25500000000E-02 0. -1.
          2   -1    0    0  501    0  0.00000000000E+00 -0.00000000000E+00 -0.17519077473E+04  0.17519077473E+04  0.25500000000E-02 0.  1.
    5000001    1    1    2    0    0 -0.17377184860E+03  0.10487255025E+03 -0.68056761971E+03  0.72910369095E+03  0.16500000000E+03 0.  0.
   -5000001    1    1    2    0    0  0.17377184860E+03 -0.10487255025E+03 -0.10307360853E+04  0.10634080988E+04  0.16500000000E+03 0.  0.
<mgrwt>
<rscale>  0 0.53342117E+03</rscale>
<asrwt>0</asrwt>
<pdfrwt beam="1">  1        2 0.25027249E+00 0.53342117E+03</pdfrwt>
<pdfrwt beam="2">  1       -2 0.58005786E-02 0.53342117E+03</pdfrwt>
<totfact> 0.18029193E+03</totfact>
</mgrwt>
</event>
<event>
 4    1  0.5531008E-005  0.6163981E+03  0.7818608E-02  0.9871957E-01
          2   -1    0    0  501    0  0.00000000000E+00  0.00000000000E+00  0.10572648660E+04  0.10572648660E+04  0.25500000000E-02 0.  1.
         -2   -1    0    0    0  501 -0.00000000000E+00 -0.00000000000E+00 -0.89841869923E+02  0.89841869959E+02  0.25500000000E-02 0. -1.
    5000001    1    1    2    0    0  0.11191298899E+03 -0.23021758564E+03  0.39569270417E+03  0.49932191017E+03  0.16500000000E+03 0.  0.
   -5000001    1    1    2    0    0 -0.11191298899E+03  0.23021758564E+03  0.57173029188E+03  0.64778482577E+03  0.16500000000E+03 0.  0.
<mgrwt>
<rscale>  0 0.61639809E+03</rscale>
<asrwt>0</asrwt>
<pdfrwt beam="1">  1        2 0.15103784E+00 0.61639809E+03</pdfrwt>
<pdfrwt beam="2">  1       -2 0.12834553E-01 0.61639809E+03</pdfrwt>
<totfact> 0.11860269E+03</totfact>
</mgrwt>
</event>
<event>
 4    1  0.5531008E-005  0.4242348E+03  0.7818608E-02  0.1035697E+00
          2   -1    0    0  501    0  0.00000000000E+00  0.00000000000E+00  0.54309048890E+03  0.54309048890E+03  0.25500000000E-02 0.  1.
         -2   -1    0    0    0  501 -0.00000000000E+00 -0.00000000000E+00 -0.82847674136E+02  0.82847674175E+02  0.25500000000E-02 0. -1.
    5000001    1    1    2    0    0  0.63342697216E+02  0.10674556231E+03  0.15841576852E+03  0.26024501547E+03  0.16500000000E+03 0.  0.
   -5000001    1    1    2    0    0 -0.63342697216E+02 -0.10674556231E+03  0.30182704624E+03  0.36569314761E+03  0.16500000000E+03 0.  0.
<mgrwt>
<rscale>  0 0.42423476E+03</rscale>
<asrwt>0</asrwt>
<pdfrwt beam="1">  1        2 0.77584355E-01 0.42423476E+03</pdfrwt>
<pdfrwt beam="2">  1       -2 0.11835382E-01 0.42423476E+03</pdfrwt>
<totfact> 0.31402150E+03</totfact>
</mgrwt>
</event>
<event>
 4    1  0.5531008E-005  0.5248556E+03  0.7818608E-02  0.1007487E+00
         -2   -1    0    0    0  501 -0.00000000000E+00  0.00000000000E+00  0.19887188337E+03  0.19887188339E+03  0.25500000000E-02 0. -1.
          2   -1    0    0  501    0  0.00000000000E+00 -0.00000000000E+00 -0.34629503279E+03  0.34629503280E+03  0.25500000000E-02 0.  1.
    5000001    1    1    2    0    0 -0.62163151920E+02  0.46300203934E+02 -0.26979024981E+03  0.32560673401E+03  0.16500000000E+03 0.  0.
   -5000001    1    1    2    0    0  0.62163151920E+02 -0.46300203934E+02  0.12236710039E+03  0.21956018218E+03  0.16500000000E+03 0.  0.
<mgrwt>
<rscale>  0 0.52485558E+03</rscale>
<asrwt>0</asrwt>
<pdfrwt beam="1">  1        2 0.49470719E-01 0.52485558E+03</pdfrwt>
<pdfrwt beam="2">  1       -2 0.28410269E-01 0.52485558E+03</pdfrwt>
<totfact> 0.11527161E+03</totfact>
</mgrwt>
</event>
<event>
 4    1  0.5531008E-005  0.5181768E+03  0.7818608E-02  0.1009140E+00
         -2   -1    0    0    0  501 -0.00000000000E+00  0.00000000000E+00  0.68645104816E+02  0.68645104863E+02  0.25500000000E-02 0. -1.
          2   -1    0    0  501    0  0.00000000000E+00 -0.00000000000E+00 -0.97788165180E+03  0.97788165180E+03  0.25500000000E-02 0.  1.
    5000001    1    1    2    0    0 -0.36274729670E+02 -0.14877962956E+03 -0.71365579384E+03  0.74831866625E+03  0.16500000000E+03 0.  0.
   -5000001    1    1    2    0    0  0.36274729670E+02  0.14877962956E+03 -0.19558075314E+03  0.29820809041E+03  0.16500000000E+03 0.  0.
<mgrwt>
<rscale>  0 0.51817676E+03</rscale>
<asrwt>0</asrwt>
<pdfrwt beam="1">  1        2 0.13969737E+00 0.51817676E+03</pdfrwt>
<pdfrwt beam="2">  1       -2 0.98064441E-02 0.51817676E+03</pdfrwt>
<totfact> 0.20590120E+03</totfact>
</mgrwt>
</event>
<event>
 4    1  0.5531008E-005  0.4482410E+03  0.7818608E-02  0.1028248E+00
         -2   -1    0    0    0  501 -0.00000000000E+00  0.00000000000E+00  0.11796976546E+03  0.11796976548E+03  0.25500000000E-02 0. -1.
          2   -1    0    0  501    0  0.00000000000E+00 -0.00000000000E+00 -0.42578714293E+03  0.42578714294E+03  0.25500000000E-02 0.  1.
    5000001    1    1    2    0    0 -0.13604809454E+03 -0.64445420705E+02 -0.13145133780E+03  0.25916548861E+03  0.16500000000E+03 0.  0.
   -5000001    1    1    2    0    0  0.13604809454E+03  0.64445420705E+02 -0.17636603968E+03  0.28459141981E+03  0.16500000000E+03 0.  0.
<mgrwt>
<rscale>  0 0.44824105E+03</rscale>
<asrwt>0</asrwt>
<pdfrwt beam="1">  1        2 0.60826734E-01 0.44824105E+03</pdfrwt>
<pdfrwt beam="2">  1       -2 0.16852824E-01 0.44824105E+03</pdfrwt>
<totfact> 0.22945832E+03</totfact>
</mgrwt>
</event>
<event>
 4    1  0.5531008E-005  0.7066012E+03  0.7818608E-02  0.9706009E-01
         -2   -1    0    0    0  501 -0.00000000000E+00  0.00000000000E+00  0.46803560157E+03  0.46803560158E+03  0.25500000000E-02 0. -1.
          2   -1    0    0  501    0  0.00000000000E+00 -0.00000000000E+00 -0.26669195351E+03  0.26669195352E+03  0.25500000000E-02 0.  1.
    5000001    1    1    2    0    0  0.46281560421E+01 -0.29659531928E+03 -0.12403492165E+01  0.33943591694E+03  0.16500000000E+03 0.  0.
   -5000001    1    1    2    0    0 -0.46281560421E+01  0.29659531928E+03  0.20258399728E+03  0.39529163816E+03  0.16500000000E+03 0.  0.
<mgrwt>
<rscale>  0 0.70660124E+03</rscale>
<asrwt>0</asrwt>
<pdfrwt beam="1">  1        2 0.38098851E-01 0.70660124E+03</pdfrwt>
<pdfrwt beam="2">  1       -2 0.66862228E-01 0.70660124E+03</pdfrwt>
<totfact> 0.28189020E+02</totfact>
</mgrwt>
</event>
<event>
 4    1  0.5531008E-005  0.5963496E+03  0.7818608E-02  0.9913009E-01
         -2   -1    0    0    0  501 -0.00000000000E+00  0.00000000000E+00  0.66020351483E+02  0.66020351532E+02  0.25500000000E-02 0. -1.
          2   -1    0    0  501    0  0.00000000000E+00 -0.00000000000E+00 -0.13466789443E+04  0.13466789443E+04  0.25500000000E-02 0.  1.
    5000001    1    1    2    0    0 -0.20473661565E+03 -0.12785892570E+03 -0.77882919685E+03  0.83190438425E+03  0.16500000000E+03 0.  0.
   -5000001    1    1    2    0    0  0.20473661565E+03  0.12785892570E+03 -0.50182939600E+03  0.58079491162E+03  0.16500000000E+03 0.  0.
<mgrwt>
<rscale>  0 0.59634962E+03</rscale>
<asrwt>0</asrwt>
<pdfrwt beam="1">  1        2 0.19238269E+00 0.59634962E+03</pdfrwt>
<pdfrwt beam="2">  1       -2 0.94314796E-02 0.59634962E+03</pdfrwt>
<totfact> 0.13501884E+03</totfact>
</mgrwt>
</event>
<event>
 4    1  0.5531008E-005  0.5631826E+03  0.7818608E-02  0.9984879E-01
         -2   -1    0    0    0  501 -0.00000000000E+00  0.00000000000E+00  0.10486184170E+03  0.10486184173E+03  0.25500000000E-02 0. -1.
          2   -1    0    0  501    0  0.00000000000E+00 -0.00000000000E+00 -0.75617278953E+03  0.75617278953E+03  0.25500000000E-02 0.  1.
    5000001    1    1    2    0    0  0.11974900352E+03 -0.15949456144E+03 -0.49514902344E+03  0.55872703030E+03  0.16500000000E+03 0.  0.
   -5000001    1    1    2    0    0 -0.11974900352E+03  0.15949456144E+03 -0.15616192438E+03  0.30230760096E+03  0.16500000000E+03 0.  0.
<mgrwt>
<rscale>  0 0.56318264E+03</rscale>
<asrwt>0</asrwt>
<pdfrwt beam="1">  1        2 0.10802468E+00 0.56318264E+03</pdfrwt>
<pdfrwt beam="2">  1       -2 0.14980264E-01 0.56318264E+03</pdfrwt>
<totfact> 0.14360087E+03</totfact>
</mgrwt>
</event>
<event>
 4    1  0.5531008E-005  0.4243275E+03  0.7818608E-02  0.1035667E+00
         -2   -1    0    0    0  501 -0.00000000000E+00  0.00000000000E+00  0.53632748656E+02  0.53632748716E+02  0.25500000000E-02 0. -1.
          2   -1    0    0  501    0  0.00000000000E+00 -0.00000000000E+00 -0.83929048629E+03  0.83929048630E+03  0.25500000000E-02 0.  1.
    5000001    1    1    2    0    0  0.48518005963E+02 -0.12421560591E+03 -0.38815078902E+03  0.44234550825E+03  0.16500000000E+03 0.  0.
   -5000001    1    1    2    0    0 -0.48518005963E+02  0.12421560591E+03 -0.39750694862E+03  0.45057772676E+03  0.16500000000E+03 0.  0.
<mgrwt>
<rscale>  0 0.42432749E+03</rscale>
<asrwt>0</asrwt>
<pdfrwt beam="1">  1        2 0.11989863E+00 0.42432749E+03</pdfrwt>
<pdfrwt beam="2">  1       -2 0.76618218E-02 0.42432749E+03</pdfrwt>
<totfact> 0.37361017E+03</totfact>
</mgrwt>
</event>
<event>
 4    1  0.5531008E-005  0.7536673E+03  0.7818608E-02  0.9629614E-01
          2   -1    0    0  501    0  0.00000000000E+00  0.00000000000E+00  0.38663290145E+03  0.38663290146E+03  0.25500000000E-02 0.  1.
         -2   -1    0    0    0  501 -0.00000000000E+00 -0.00000000000E+00 -0.36728276630E+03  0.36728276631E+03  0.25500000000E-02 0. -1.
    5000001    1    1    2    0    0  0.19880586425E+03 -0.25971360765E+03  0.98042572993E+02  0.37922589017E+03  0.16500000000E+03 0.  0.
   -5000001    1    1    2    0    0 -0.19880586425E+03  0.25971360765E+03 -0.78692437838E+02  0.37468977759E+03  0.16500000000E+03 0.  0.
<mgrwt>
<rscale>  0 0.75366730E+03</rscale>
<asrwt>0</asrwt>
<pdfrwt beam="1">  1        2 0.55233271E-01 0.75366730E+03</pdfrwt>
<pdfrwt beam="2">  1       -2 0.52468967E-01 0.75366730E+03</pdfrwt>
<totfact> 0.31030338E+02</totfact>
</mgrwt>
</event>
<event>
 4    1  0.5531008E-005  0.4399720E+03  0.7818608E-02  0.1030755E+00
         -2   -1    0    0    0  501 -0.00000000000E+00  0.00000000000E+00  0.16541819253E+02  0.16541819449E+02  0.25500000000E-02 0. -1.
          2   -1    0    0  501    0  0.00000000000E+00 -0.00000000000E+00 -0.29255446345E+04  0.29255446345E+04  0.25500000000E-02 0.  1.
    5000001    1    1    2    0    0  0.54939785406E+02  0.13469260997E+03 -0.14738262756E+04  0.14901507876E+04  0.16500000000E+03 0.  0.
   -5000001    1    1    2    0    0 -0.54939785406E+02 -0.13469260997E+03 -0.14351765396E+04  0.14519356663E+04  0.16500000000E+03 0.  0.
<mgrwt>
<rscale>  0 0.43997196E+03</rscale>
<asrwt>0</asrwt>
<pdfrwt beam="1">  1        2 0.41793462E+00 0.43997196E+03</pdfrwt>
<pdfrwt beam="2">  1       -2 0.23631189E-02 0.43997196E+03</pdfrwt>
<totfact> 0.18049573E+03</totfact>
</mgrwt>
</event>
<event>
 4    1  0.5531008E-005  0.5002301E+03  0.7818608E-02  0.1013719E+00
         -2   -1    0    0    0  501 -0.00000000000E+00  0.00000000000E+00  0.19437372082E+03  0.19437372084E+03  0.25500000000E-02 0. -1.
          2   -1    0    0  501    0  0.00000000000E+00 -0.00000000000E+00 -0.32184155320E+03  0.32184155321E+03  0.25500000000E-02 0.  1.
    5000001    1    1    2    0    0  0.55009742628E+02  0.14298002195E+03 -0.17613270078E+03  0.28586200648E+03  0.16500000000E+03 0.  0.
   -5000001    1    1    2    0    0 -0.55009742628E+02 -0.14298002195E+03  0.48664868409E+02  0.23035326757E+03  0.16500000000E+03 0.  0.
<mgrwt>
<rscale>  0 0.50023011E+03</rscale>
<asrwt>0</asrwt>
<pdfrwt beam="1">  1        2 0.45977365E-01 0.50023011E+03</pdfrwt>
<pdfrwt beam="2">  1       -2 0.27767674E-01 0.50023011E+03</pdfrwt>
<totfact> 0.13024458E+03</totfact>
</mgrwt>
</event>
<event>
 4    1  0.5531008E-005  0.7635613E+03  0.7818608E-02  0.9614312E-01
         -2   -1    0    0    0  501 -0.00000000000E+00  0.00000000000E+00  0.17455663262E+03  0.17455663263E+03  0.25500000000E-02 0. -1.
          2   -1    0    0  501    0  0.00000000000E+00 -0.00000000000E+00 -0.83500960184E+03  0.83500960184E+03  0.25500000000E-02 0.  1.
    5000001    1    1    2    0    0 -0.16997988479E+03 -0.26756903530E+03 -0.50783784021E+03  0.62097554045E+03  0.16500000000E+03 0.  0.
   -5000001    1    1    2    0    0  0.16997988479E+03  0.26756903530E+03 -0.15261512901E+03  0.38859069403E+03  0.16500000000E+03 0.  0.
<mgrwt>
<rscale>  0 0.76356130E+03</rscale>
<asrwt>0</asrwt>
<pdfrwt beam="1">  1        2 0.11928708E+00 0.76356130E+03</pdfrwt>
<pdfrwt beam="2">  1       -2 0.24936662E-01 0.76356130E+03</pdfrwt>
<totfact> 0.51913280E+02</totfact>
</mgrwt>
</event>
<event>
 4    1  0.5531008E-005  0.1314492E+04  0.7818608E-02  0.9018151E-01
          2   -1    0    0  501    0  0.00000000000E+00  0.00000000000E+00  0.97724890627E+03  0.97724890628E+03  0.25500000000E-02 0.  1.
         -2   -1    0    0    0  501 -0.00000000000E+00 -0.00000000000E+00 -0.44202888647E+03  0.44202888648E+03  0.25500000000E-02 0. -1.
    5000001    1    1    2    0    0 -0.46454729671E+03 -0.43037434583E+03  0.33347247890E+03  0.73447611439E+03  0.16500000000E+03 0.  0.
   -5000001    1    1    2    0    0  0.46454729671E+03  0.43037434583E+03  0.20174754091E+03  0.68480167836E+03  0.16500000000E+03 0.  0.
<mgrwt>
<rscale>  0 0.13144919E+04</rscale>
<asrwt>0</asrwt>
<pdfrwt beam="1">  1        2 0.13960698E+00 0.13144919E+04</pdfrwt>
<pdfrwt beam="2">  1       -2 0.63146985E-01 0.13144919E+04</pdfrwt>
<totfact> 0.66076954E+01</totfact>
</mgrwt>
</event>
<event>
 4    1  0.5531008E-005  0.6167284E+03  0.7818608E-02  0.9871295E-01
         -2   -1    0    0    0  501 -0.00000000000E+00  0.00000000000E+00  0.69192332625E+02  0.69192332672E+02  0.25500000000E-02 0. -1.
          2   -1    0    0  501    0  0.00000000000E+00 -0.00000000000E+00 -0.13742633853E+04  0.13742633853E+04  0.25500000000E-02 0.  1.
    5000001    1    1    2    0    0  0.19405212388E+03  0.17322377394E+03 -0.68570029163E+03  0.75171310523E+03  0.16500000000E+03 0.  0.
   -5000001    1    1    2    0    0 -0.19405212388E+03 -0.17322377394E+03 -0.61937076105E+03  0.69174261275E+03  0.16500000000E+03 0.  0.
<mgrwt>
<rscale>  0 0.61672843E+03</rscale>
<asrwt>0</asrwt>
<pdfrwt beam="1">  1        2 0.19632332E+00 0.61672843E+03</pdfrwt>
<pdfrwt beam="2">  1       -2 0.98846197E-02 0.61672843E+03</pdfrwt>
<totfact> 0.12088519E+03</totfact>
</mgrwt>
</event>
<event>
 4    1  0.5531008E-005  0.3687651E+03  0.7818608E-02  0.1055166E+00
         -2   -1    0    0    0  501 -0.00000000000E+00  0.00000000000E+00  0.72434487833E+02  0.72434487878E+02  0.25500000000E-02 0. -1.
          2   -1    0    0  501    0  0.00000000000E+00 -0.00000000000E+00 -0.46934722498E+03  0.46934722499E+03  0.25500000000E-02 0.  1.
    5000001    1    1    2    0    0  0.65054126641E+02  0.24833569195E+02 -0.13402690358E+03  0.22368941959E+03  0.16500000000E+03 0.  0.
   -5000001    1    1    2    0    0 -0.65054126641E+02 -0.24833569195E+02 -0.26288583357E+03  0.31809229328E+03  0.16500000000E+03 0.  0.
<mgrwt>
<rscale>  0 0.36876511E+03</rscale>
<asrwt>0</asrwt>
<pdfrwt beam="1">  1        2 0.67049602E-01 0.36876511E+03</pdfrwt>
<pdfrwt beam="2">  1       -2 0.10347784E-01 0.36876511E+03</pdfrwt>
<totfact> 0.45861278E+03</totfact>
</mgrwt>
</event>
<event>
 4    1  0.5531008E-005  0.5920240E+03  0.7818608E-02  0.9922093E-01
          2   -1    0    0  501    0  0.00000000000E+00  0.00000000000E+00  0.13349213602E+04  0.13349213602E+04  0.25500000000E-02 0.  1.
         -2   -1    0    0    0  501 -0.00000000000E+00 -0.00000000000E+00 -0.65639157072E+02  0.65639157122E+02  0.25500000000E-02 0. -1.
    5000001    1    1    2    0    0  0.11114170985E+03 -0.21702052562E+03  0.70746998256E+03  0.76628269224E+03  0.16500000000E+03 0.  0.
   -5000001    1    1    2    0    0 -0.11114170985E+03  0.21702052562E+03  0.56181222053E+03  0.63427782505E+03  0.16500000000E+03 0.  0.
<mgrwt>
<rscale>  0 0.59202403E+03</rscale>
<asrwt>0</asrwt>
<pdfrwt beam="1">  1        2 0.19070303E+00 0.59202403E+03</pdfrwt>
<pdfrwt beam="2">  1       -2 0.93770236E-02 0.59202403E+03</pdfrwt>
<totfact> 0.13830330E+03</totfact>
</mgrwt>
</event>
<event>
 4    1  0.5531008E-005  0.9552247E+03  0.7818608E-02  0.9359065E-01
         -2   -1    0    0    0  501 -0.00000000000E+00  0.00000000000E+00  0.13040219814E+03  0.13040219817E+03  0.25500000000E-02 0. -1.
          2   -1    0    0  501    0  0.00000000000E+00 -0.00000000000E+00 -0.17493074441E+04  0.17493074441E+04  0.25500000000E-02 0.  1.
    5000001    1    1    2    0    0  0.20118362676E+03  0.38668740875E+03 -0.60413320431E+03  0.76302289108E+03  0.16500000000E+03 0.  0.
   -5000001    1    1    2    0    0 -0.20118362676E+03 -0.38668740875E+03 -0.10147720416E+04  0.11166867511E+04  0.16500000000E+03 0.  0.
<mgrwt>
<rscale>  0 0.95522466E+03</rscale>
<asrwt>0</asrwt>
<pdfrwt beam="1">  1        2 0.24990105E+00 0.95522466E+03</pdfrwt>
<pdfrwt beam="2">  1       -2 0.18628887E-01 0.95522466E+03</pdfrwt>
<totfact> 0.26172773E+02</totfact>
</mgrwt>
</event>
<event>
 4    1  0.5531008E-005  0.6053286E+03  0.7818608E-02  0.9894412E-01
          2   -1    0    0  501    0  0.00000000000E+00  0.00000000000E+00  0.37304577750E+03  0.37304577751E+03  0.25500000000E-02 0.  1.
         -2   -1    0    0    0  501 -0.00000000000E+00 -0.00000000000E+00 -0.24556145814E+03  0.24556145816E+03  0.25500000000E-02 0. -1.
    5000001    1    1    2    0    0 -0.16434477325E+03 -0.17368443525E+03  0.15048750436E+03  0.32718034249E+03  0.16500000000E+03 0.  0.
   -5000001    1    1    2    0    0  0.16434477325E+03  0.17368443525E+03 -0.23003185002E+02  0.29142689317E+03  0.16500000000E+03 0.  0.
<mgrwt>
<rscale>  0 0.60532856E+03</rscale>
<asrwt>0</asrwt>
<pdfrwt beam="1">  1        2 0.53292254E-01 0.60532856E+03</pdfrwt>
<pdfrwt beam="2">  1       -2 0.35080208E-01 0.60532856E+03</pdfrwt>
<totfact> 0.71675131E+02</totfact>
</mgrwt>
</event>
<event>
 4    1  0.5531008E-005  0.6730023E+03  0.7818608E-02  0.9764549E-01
          2   -1    0    0  501    0  0.00000000000E+00  0.00000000000E+00  0.67864469874E+03  0.67864469874E+03  0.25500000000E-02 0.  1.
         -2   -1    0    0    0  501 -0.00000000000E+00 -0.00000000000E+00 -0.16685169652E+03  0.16685169654E+03  0.25500000000E-02 0. -1.
    5000001    1    1    2    0    0 -0.92446252346E+02 -0.24092712294E+03  0.80842027251E+02  0.31678481894E+03  0.16500000000E+03 0.  0.
   -5000001    1    1    2    0    0  0.92446252346E+02  0.24092712294E+03  0.43095097496E+03  0.52871157634E+03  0.16500000000E+03 0.  0.
<mgrwt>
<rscale>  0 0.67300229E+03</rscale>
<asrwt>0</asrwt>
<pdfrwt beam="1">  1        2 0.96949241E-01 0.67300229E+03</pdfrwt>
<pdfrwt beam="2">  1       -2 0.23835957E-01 0.67300229E+03</pdfrwt>
<totfact> 0.73297565E+02</totfact>
</mgrwt>
</event>
<event>
 4    1  0.5531008E-005  0.3731985E+03  0.7818608E-02  0.1053477E+00
         -2   -1    0    0    0  501 -0.00000000000E+00  0.00000000000E+00  0.55071451182E+02  0.55071451241E+02  0.25500000000E-02 0. -1.
          2   -1    0    0  501    0  0.00000000000E+00 -0.00000000000E+00 -0.63225642855E+03  0.63225642855E+03  0.25500000000E-02 0.  1.
    5000001    1    1    2    0    0  0.41095344356E+02  0.50362071287E+02 -0.39549352094E+03  0.43343429797E+03  0.16500000000E+03 0.  0.
   -5000001    1    1    2    0    0 -0.41095344356E+02 -0.50362071287E+02 -0.18169145642E+03  0.25389358182E+03  0.16500000000E+03 0.  0.
<mgrwt>
<rscale>  0 0.37319849E+03</rscale>
<asrwt>0</asrwt>
<pdfrwt beam="1">  1        2 0.90322343E-01 0.37319849E+03</pdfrwt>
<pdfrwt beam="2">  1       -2 0.78673505E-02 0.37319849E+03</pdfrwt>
<totfact> 0.50546598E+03</totfact>
</mgrwt>
</event>
<event>
 4    1  0.5531008E-005  0.3712352E+03  0.7818608E-02  0.1054222E+00
         -2   -1    0    0    0  501 -0.00000000000E+00  0.00000000000E+00  0.49838453908E+02  0.49838453973E+02  0.25500000000E-02 0. -1.
          2   -1    0    0  501    0  0.00000000000E+00 -0.00000000000E+00 -0.69131143801E+03  0.69131143802E+03  0.25500000000E-02 0.  1.
    5000001    1    1    2    0    0 -0.23738540247E+02  0.81588266884E+02 -0.31483779561E+03  0.36546956252E+03  0.16500000000E+03 0.  0.
   -5000001    1    1    2    0    0  0.23738540247E+02 -0.81588266884E+02 -0.32663518850E+03  0.37568032947E+03  0.16500000000E+03 0.  0.
<mgrwt>
<rscale>  0 0.37123520E+03</rscale>
<asrwt>0</asrwt>
<pdfrwt beam="1">  1        2 0.98758771E-01 0.37123520E+03</pdfrwt>
<pdfrwt beam="2">  1       -2 0.71197796E-02 0.37123520E+03</pdfrwt>
<totfact> 0.53180293E+03</totfact>
</mgrwt>
</event>
<event>
 4    1  0.5531008E-005  0.4968470E+03  0.7818608E-02  0.1014605E+00
         -2   -1    0    0    0  501 -0.00000000000E+00  0.00000000000E+00  0.47284213523E+03  0.47284213524E+03  0.25500000000E-02 0. -1.
          2   -1    0    0  501    0  0.00000000000E+00 -0.00000000000E+00 -0.13051760628E+03  0.13051760630E+03  0.25500000000E-02 0.  1.
    5000001    1    1    2    0    0  0.80726994503E+02  0.14598504026E+03  0.72052813502E+02  0.24544874731E+03  0.16500000000E+03 0.  0.
   -5000001    1    1    2    0    0 -0.80726994503E+02 -0.14598504026E+03  0.27027171545E+03  0.35791099423E+03  0.16500000000E+03 0.  0.
<mgrwt>
<rscale>  0 0.49684695E+03</rscale>
<asrwt>0</asrwt>
<pdfrwt beam="1">  1        2 0.18645372E-01 0.49684695E+03</pdfrwt>
<pdfrwt beam="2">  1       -2 0.67548878E-01 0.49684695E+03</pdfrwt>
<totfact> 0.62446646E+02</totfact>
</mgrwt>
</event>
<event>
 4    1  0.5531008E-005  0.5942915E+03  0.7818608E-02  0.9917321E-01
         -2   -1    0    0    0  501 -0.00000000000E+00  0.00000000000E+00  0.49033144003E+02  0.49033144069E+02  0.25500000000E-02 0. -1.
          2   -1    0    0  501    0  0.00000000000E+00 -0.00000000000E+00 -0.18007328630E+04  0.18007328630E+04  0.25500000000E-02 0.  1.
    5000001    1    1    2    0    0  0.22260386147E+03 -0.87982658336E+02 -0.10671434193E+04  0.11060350377E+04  0.16500000000E+03 0.  0.
   -5000001    1    1    2    0    0 -0.22260386147E+03  0.87982658336E+02 -0.68455629967E+03  0.74373096932E+03  0.16500000000E+03 0.  0.
<mgrwt>
<rscale>  0 0.59429149E+03</rscale>
<asrwt>0</asrwt>
<pdfrwt beam="1">  1        2 0.25724751E+00 0.59429149E+03</pdfrwt>
<pdfrwt beam="2">  1       -2 0.70047360E-02 0.59429149E+03</pdfrwt>
<totfact> 0.12637913E+03</totfact>
</mgrwt>
</event>
<event>
 4    1  0.5531008E-005  0.5061184E+03  0.7818608E-02  0.1012194E+00
         -2   -1    0    0    0  501 -0.00000000000E+00  0.00000000000E+00  0.13984920202E+03  0.13984920204E+03  0.25500000000E-02 0. -1.
          2   -1    0    0  501    0  0.00000000000E+00 -0.00000000000E+00 -0.45791438723E+03  0.45791438724E+03  0.25500000000E-02 0.  1.
    5000001    1    1    2    0    0 -0.18462413820E+03 -0.52127245812E+02 -0.16288504976E+03  0.30093165603E+03  0.16500000000E+03 0.  0.
   -5000001    1    1    2    0    0  0.18462413820E+03  0.52127245812E+02 -0.15518013545E+03  0.29683193326E+03  0.16500000000E+03 0.  0.
<mgrwt>
<rscale>  0 0.50611841E+03</rscale>
<asrwt>0</asrwt>
<pdfrwt beam="1">  1        2 0.65416341E-01 0.50611841E+03</pdfrwt>
<pdfrwt beam="2">  1       -2 0.19978458E-01 0.50611841E+03</pdfrwt>
<totfact> 0.15823192E+03</totfact>
</mgrwt>
</event>
<event>
 4    1  0.5531008E-005  0.6276887E+03  0.7818608E-02  0.9849570E-01
          2   -1    0    0  501    0  0.00000000000E+00  0.00000000000E+00  0.35032642898E+04  0.35032642898E+04  0.25500000000E-02 0.  1.
         -2   -1    0    0    0  501 -0.00000000000E+00 -0.00000000000E+00 -0.28116140202E+02  0.28116140318E+02  0.25500000000E-02 0. -1.
    5000001    1    1    2    0    0 -0.24408925852E+03 -0.70980117394E-01  0.23459558050E+04  0.23643843195E+04  0.16500000000E+03 0.  0.
   -5000001    1    1    2    0    0  0.24408925852E+03  0.70980117394E-01  0.11291923446E+04  0.11669961107E+04  0.16500000000E+03 0.  0.
<mgrwt>
<rscale>  0 0.62768868E+03</rscale>
<asrwt>0</asrwt>
<pdfrwt beam="1">  1        2 0.50046610E+00 0.62768868E+03</pdfrwt>
<pdfrwt beam="2">  1       -2 0.40165932E-02 0.62768868E+03</pdfrwt>
<totfact> 0.37487665E+02</totfact>
</mgrwt>
</event>
<event>
 4    1  0.5531008E-005  0.3984701E+03  0.7818608E-02  0.1044311E+00
         -2   -1    0    0    0  501 -0.00000000000E+00  0.00000000000E+00  0.10488180233E+03  0.10488180236E+03  0.25500000000E-02 0. -1.
          2   -1    0    0  501    0  0.00000000000E+00 -0.00000000000E+00 -0.37846985773E+03  0.37846985774E+03  0.25500000000E-02 0.  1.
    5000001    1    1    2    0    0  0.13174277839E+02  0.97237374979E+02 -0.20144840429E+03  0.27827168070E+03  0.16500000000E+03 0.  0.
   -5000001    1    1    2    0    0 -0.13174277839E+02 -0.97237374979E+02 -0.72139651112E+02  0.20507997940E+03  0.16500000000E+03 0.  0.
<mgrwt>
<rscale>  0 0.39847008E+03</rscale>
<asrwt>0</asrwt>
<pdfrwt beam="1">  1        2 0.54067122E-01 0.39847008E+03</pdfrwt>
<pdfrwt beam="2">  1       -2 0.14983115E-01 0.39847008E+03</pdfrwt>
<totfact> 0.31774024E+03</totfact>
</mgrwt>
</event>
<event>
 4    1  0.5531008E-005  0.3877531E+03  0.7818608E-02  0.1048105E+00
         -2   -1    0    0    0  501 -0.00000000000E+00  0.00000000000E+00  0.11255506825E+04  0.11255506825E+04  0.25500000000E-02 0. -1.
          2   -1    0    0  501    0  0.00000000000E+00 -0.00000000000E+00 -0.33395317683E+02  0.33395317780E+02  0.25500000000E-02 0.  1.
    5000001    1    1    2    0    0 -0.54627499609E+02 -0.84061605479E+02  0.49323240863E+03  0.52967322582E+03  0.16500000000E+03 0.  0.
   -5000001    1    1    2    0    0  0.54627499609E+02  0.84061605479E+02  0.59892295618E+03  0.62927277445E+03  0.16500000000E+03 0.  0.
<mgrwt>
<rscale>  0 0.38775313E+03</rscale>
<asrwt>0</asrwt>
<pdfrwt beam="1">  1        2 0.47707590E-02 0.38775313E+03</pdfrwt>
<pdfrwt beam="2">  1       -2 0.16079298E+00 0.38775313E+03</pdfrwt>
<totfact> 0.44428215E+02</totfact>
</mgrwt>
</event>
<event>
 4    1  0.5531008E-005  0.4801132E+03  0.7818608E-02  0.1019104E+00
          2   -1    0    0  501    0  0.00000000000E+00  0.00000000000E+00  0.18157687419E+04  0.18157687419E+04  0.25500000000E-02 0.  1.
         -2   -1    0    0    0  501 -0.00000000000E+00 -0.00000000000E+00 -0.31737065494E+02  0.31737065596E+02  0.25500000000E-02 0. -1.
    5000001    1    1    2    0    0 -0.13477626112E+03  0.17810873221E+02  0.47188377520E+03  0.51805517569E+03  0.16500000000E+03 0.  0.
   -5000001    1    1    2    0    0  0.13477626112E+03 -0.17810873221E+02  0.13121479012E+04  0.13294506318E+04  0.16500000000E+03 0.  0.
<mgrwt>
<rscale>  0 0.48011320E+03</rscale>
<asrwt>0</asrwt>
<pdfrwt beam="1">  1        2 0.25939559E+00 0.48011320E+03</pdfrwt>
<pdfrwt beam="2">  1       -2 0.45338655E-02 0.48011320E+03</pdfrwt>
<totfact> 0.24559893E+03</totfact>
</mgrwt>
</event>
<event>
 4    1  0.5531008E-005  0.5117042E+03  0.7818608E-02  0.1010768E+00
          2   -1    0    0  501    0  0.00000000000E+00  0.00000000000E+00  0.57327071264E+03  0.57327071264E+03  0.25500000000E-02 0.  1.
         -2   -1    0    0    0  501 -0.00000000000E+00 -0.00000000000E+00 -0.11418739676E+03  0.11418739678E+03  0.25500000000E-02 0. -1.
    5000001    1    1    2    0    0  0.13707549422E+03  0.98375075861E+02  0.36232049272E+03  0.43239852695E+03  0.16500000000E+03 0.  0.
   -5000001    1    1    2    0    0 -0.13707549422E+03 -0.98375075861E+02  0.96762823158E+02  0.25505958247E+03  0.16500000000E+03 0.  0.
<mgrwt>
<rscale>  0 0.51170417E+03</rscale>
<asrwt>0</asrwt>
<pdfrwt beam="1">  1        2 0.81895818E-01 0.51170417E+03</pdfrwt>
<pdfrwt beam="2">  1       -2 0.16312485E-01 0.51170417E+03</pdfrwt>
<totfact> 0.17345748E+03</totfact>
</mgrwt>
</event>
<event>
 4    1  0.5531008E-005  0.1251480E+04  0.7818608E-02  0.9068952E-01
          2   -1    0    0  501    0  0.00000000000E+00  0.00000000000E+00  0.91755813790E+03  0.91755813790E+03  0.25500000000E-02 0.  1.
         -2   -1    0    0    0  501 -0.00000000000E+00 -0.00000000000E+00 -0.42673100822E+03  0.42673100823E+03  0.25500000000E-02 0. -1.
    5000001    1    1    2    0    0  0.48448290660E+03  0.27007139373E+03  0.50110701119E+03  0.76550341682E+03  0.16500000000E+03 0.  0.
   -5000001    1    1    2    0    0 -0.48448290660E+03 -0.27007139373E+03 -0.10279881513E+02  0.57878572931E+03  0.16500000000E+03 0.  0.
<mgrwt>
<rscale>  0 0.12514799E+04</rscale>
<asrwt>0</asrwt>
<pdfrwt beam="1">  1        2 0.13107973E+00 0.12514799E+04</pdfrwt>
<pdfrwt beam="2">  1       -2 0.60961573E-01 0.12514799E+04</pdfrwt>
<totfact> 0.78063489E+01</totfact>
</mgrwt>
</event>
<event>
 4    1  0.5531008E-005  0.7024999E+03  0.7818608E-02  0.9712967E-01
          2   -1    0    0  501    0  0.00000000000E+00  0.00000000000E+00  0.19025918161E+03  0.19025918163E+03  0.25500000000E-02 0.  1.
         -2   -1    0    0    0  501 -0.00000000000E+00 -0.00000000000E+00 -0.64846547218E+03  0.64846547218E+03  0.25500000000E-02 0. -1.
    5000001    1    1    2    0    0 -0.14851368756E+03 -0.25808006910E+03 -0.12577696194E+03  0.36291387630E+03  0.16500000000E+03 0.  0.
   -5000001    1    1    2    0    0  0.14851368756E+03  0.25808006910E+03 -0.33242932863E+03  0.47581077751E+03  0.16500000000E+03 0.  0.
<mgrwt>
<rscale>  0 0.70249985E+03</rscale>
<asrwt>0</asrwt>
<pdfrwt beam="1">  1        2 0.27179883E-01 0.70249985E+03</pdfrwt>
<pdfrwt beam="2">  1       -2 0.92637924E-01 0.70249985E+03</pdfrwt>
<totfact> 0.19872704E+02</totfact>
</mgrwt>
</event>
<event>
 4    1  0.5531008E-005  0.4354469E+03  0.7818608E-02  0.1032153E+00
          2   -1    0    0  501    0  0.00000000000E+00  0.00000000000E+00  0.22759029118E+04  0.22759029118E+04  0.25500000000E-02 0.  1.
         -2   -1    0    0    0  501 -0.00000000000E+00 -0.00000000000E+00 -0.20828437456E+02  0.20828437612E+02  0.25500000000E-02 0. -1.
    5000001    1    1    2    0    0 -0.20566200859E+02  0.97021236245E+02  0.59114075187E+03  0.62169805969E+03  0.16500000000E+03 0.  0.
   -5000001    1    1    2    0    0  0.20566200859E+02 -0.97021236245E+02  0.16639337225E+04  0.16750332898E+04  0.16500000000E+03 0.  0.
<mgrwt>
<rscale>  0 0.43544690E+03</rscale>
<asrwt>0</asrwt>
<pdfrwt beam="1">  1        2 0.32512882E+00 0.43544690E+03</pdfrwt>
<pdfrwt beam="2">  1       -2 0.29754926E-02 0.43544690E+03</pdfrwt>
<totfact> 0.27539885E+03</totfact>
</mgrwt>
</event>
<event>
 4    1  0.5531008E-005  0.6545998E+03  0.7818608E-02  0.9798186E-01
         -2   -1    0    0    0  501 -0.00000000000E+00  0.00000000000E+00  0.63719438647E+02  0.63719438698E+02  0.25500000000E-02 0. -1.
          2   -1    0    0  501    0  0.00000000000E+00 -0.00000000000E+00 -0.16812016110E+04  0.16812016110E+04  0.25500000000E-02 0.  1.
    5000001    1    1    2    0    0 -0.23525851039E+03  0.15653385390E+03 -0.82774178106E+03  0.89007351957E+03  0.16500000000E+03 0.  0.
   -5000001    1    1    2    0    0  0.23525851039E+03 -0.15653385390E+03 -0.78974039128E+03  0.85484753012E+03  0.16500000000E+03 0.  0.
<mgrwt>
<rscale>  0 0.65459980E+03</rscale>
<asrwt>0</asrwt>
<pdfrwt beam="1">  1        2 0.24017163E+00 0.65459980E+03</pdfrwt>
<pdfrwt beam="2">  1       -2 0.91027780E-02 0.65459980E+03</pdfrwt>
<totfact> 0.95417315E+02</totfact>
</mgrwt>
</event>
<event>
 4    1  0.5531008E-005  0.4389087E+03  0.7818608E-02  0.1031082E+00
         -2   -1    0    0    0  501 -0.00000000000E+00  0.00000000000E+00  0.20451474729E+02  0.20451474888E+02  0.25500000000E-02 0. -1.
          2   -1    0    0  501    0  0.00000000000E+00 -0.00000000000E+00 -0.23548532375E+04  0.23548532375E+04  0.25500000000E-02 0.  1.
    5000001    1    1    2    0    0  0.10494817359E+03 -0.98077996464E+02 -0.10731828210E+04  0.10952532949E+04  0.16500000000E+03 0.  0.
   -5000001    1    1    2    0    0 -0.10494817359E+03  0.98077996464E+02 -0.12612189417E+04  0.12800514175E+04  0.16500000000E+03 0.  0.
<mgrwt>
<rscale>  0 0.43890875E+03</rscale>
<asrwt>0</asrwt>
<pdfrwt beam="1">  1        2 0.33640743E+00 0.43890875E+03</pdfrwt>
<pdfrwt beam="2">  1       -2 0.29216408E-02 0.43890875E+03</pdfrwt>
<totfact> 0.25840594E+03</totfact>
</mgrwt>
</event>
<event>
 4    1  0.5531008E-005  0.6608817E+03  0.7818608E-02  0.9786572E-01
          2   -1    0    0  501    0  0.00000000000E+00  0.00000000000E+00  0.14771928482E+04  0.14771928482E+04  0.25500000000E-02 0.  1.
         -2   -1    0    0    0  501 -0.00000000000E+00 -0.00000000000E+00 -0.73918008289E+02  0.73918008333E+02  0.25500000000E-02 0. -1.
    5000001    1    1    2    0    0  0.10248102648E+03 -0.15358246422E+03  0.18809178930E+03  0.31095571277E+03  0.16500000000E+03 0.  0.
   -5000001    1    1    2    0    0 -0.10248102648E+03  0.15358246422E+03  0.12151830506E+04  0.12401551438E+04  0.16500000000E+03 0.  0.
<mgrwt>
<rscale>  0 0.66088169E+03</rscale>
<asrwt>0</asrwt>
<pdfrwt beam="1">  1        2 0.21102753E+00 0.66088169E+03</pdfrwt>
<pdfrwt beam="2">  1       -2 0.10559716E-01 0.66088169E+03</pdfrwt>
<totfact> 0.95606854E+02</totfact>
</mgrwt>
</event>
<event>
 4    1  0.5531008E-005  0.9099829E+03  0.7818608E-02  0.9413188E-01
         -2   -1    0    0    0  501 -0.00000000000E+00  0.00000000000E+00  0.34377031984E+03  0.34377031985E+03  0.25500000000E-02 0. -1.
          2   -1    0    0  501    0  0.00000000000E+00 -0.00000000000E+00 -0.60219637362E+03  0.60219637363E+03  0.25500000000E-02 0.  1.
    5000001    1    1    2    0    0 -0.18685579313E+01 -0.42401214988E+03 -0.12758747305E+03  0.47253926613E+03  0.16500000000E+03 0.  0.
   -5000001    1    1    2    0    0  0.18685579313E+01  0.42401214988E+03 -0.13083858073E+03  0.47342742735E+03  0.16500000000E+03 0.  0.
<mgrwt>
<rscale>  0 0.90998294E+03</rscale>
<asrwt>0</asrwt>
<pdfrwt beam="1">  1        2 0.86028053E-01 0.90998294E+03</pdfrwt>
<pdfrwt beam="2">  1       -2 0.49110046E-01 0.90998294E+03</pdfrwt>
<totfact> 0.21255370E+02</totfact>
</mgrwt>
</event>
<event>
 4    1  0.5531008E-005  0.3640238E+03  0.7818608E-02  0.1057002E+00
         -2   -1    0    0    0  501 -0.00000000000E+00  0.00000000000E+00  0.21817048067E+02  0.21817048217E+02  0.25500000000E-02 0. -1.
          2   -1    0    0  501    0  0.00000000000E+00 -0.00000000000E+00 -0.15184609949E+04  0.15184609949E+04  0.25500000000E-02 0.  1.
    5000001    1    1    2    0    0 -0.12233547059E+02 -0.58583398442E+02 -0.54444468629E+03  0.57203731580E+03  0.16500000000E+03 0.  0.
   -5000001    1    1    2    0    0  0.12233547059E+02  0.58583398442E+02 -0.95219926056E+03  0.96824072733E+03  0.16500000000E+03 0.  0.
<mgrwt>
<rscale>  0 0.36402383E+03</rscale>
<asrwt>0</asrwt>
<pdfrwt beam="1">  1        2 0.21692293E+00 0.36402383E+03</pdfrwt>
<pdfrwt beam="2">  1       -2 0.31167221E-02 0.36402383E+03</pdfrwt>
<totfact> 0.61314433E+03</totfact>
</mgrwt>
</event>
<event>
 4    1  0.5531008E-005  0.4253637E+03  0.7818608E-02  0.1035335E+00
         -2   -1    0    0    0  501 -0.00000000000E+00  0.00000000000E+00  0.10992300708E+03  0.10992300711E+03  0.25500000000E-02 0. -1.
          2   -1    0    0  501    0  0.00000000000E+00 -0.00000000000E+00 -0.41150229937E+03  0.41150229937E+03  0.25500000000E-02 0.  1.
    5000001    1    1    2    0    0  0.12638213603E+03  0.41925958911E+02 -0.17124087286E+03  0.27254112878E+03  0.16500000000E+03 0.  0.
   -5000001    1    1    2    0    0 -0.12638213603E+03 -0.41925958911E+02 -0.13033841942E+03  0.24888417771E+03  0.16500000000E+03 0.  0.
<mgrwt>
<rscale>  0 0.42536370E+03</rscale>
<asrwt>0</asrwt>
<pdfrwt beam="1">  1        2 0.58786042E-01 0.42536370E+03</pdfrwt>
<pdfrwt beam="2">  1       -2 0.15703287E-01 0.42536370E+03</pdfrwt>
<totfact> 0.26823738E+03</totfact>
</mgrwt>
</event>
<event>
 4    1  0.5531008E-005  0.4586985E+03  0.7818608E-02  0.1025159E+00
         -2   -1    0    0    0  501 -0.00000000000E+00  0.00000000000E+00  0.25444966677E+02  0.25444966805E+02  0.25500000000E-02 0. -1.
          2   -1    0    0  501    0  0.00000000000E+00 -0.00000000000E+00 -0.20672491982E+04  0.20672491982E+04  0.25500000000E-02 0.  1.
    5000001    1    1    2    0    0  0.15517359190E+03  0.11632853923E+02 -0.11764150643E+04  0.11980782823E+04  0.16500000000E+03 0.  0.
   -5000001    1    1    2    0    0 -0.15517359190E+03 -0.11632853923E+02 -0.86538916724E+03  0.89461588276E+03  0.16500000000E+03 0.  0.
<mgrwt>
<rscale>  0 0.45869854E+03</rscale>
<asrwt>0</asrwt>
<pdfrwt beam="1">  1        2 0.29532121E+00 0.45869854E+03</pdfrwt>
<pdfrwt beam="2">  1       -2 0.36349966E-02 0.45869854E+03</pdfrwt>
<totfact> 0.25814942E+03</totfact>
</mgrwt>
</event>
<event>
 4    1  0.5531008E-005  0.7665754E+03  0.7818608E-02  0.9609699E-01
         -2   -1    0    0    0  501 -0.00000000000E+00  0.00000000000E+00  0.53970926343E+02  0.53970926403E+02  0.25500000000E-02 0. -1.
          2   -1    0    0  501    0  0.00000000000E+00 -0.00000000000E+00 -0.27220112780E+04  0.27220112781E+04  0.25500000000E-02 0.  1.
    5000001    1    1    2    0    0 -0.15354170614E+03  0.64672993153E+02 -0.24319710305E+04  0.24432490141E+04  0.16500000000E+03 0.  0.
   -5000001    1    1    2    0    0  0.15354170614E+03 -0.64672993153E+02 -0.23606932121E+03  0.33273319039E+03  0.16500000000E+03 0.  0.
<mgrwt>
<rscale>  0 0.76657542E+03</rscale>
<asrwt>0</asrwt>
<pdfrwt beam="1">  1        2 0.38885867E+00 0.76657542E+03</pdfrwt>
<pdfrwt beam="2">  1       -2 0.77101341E-02 0.76657542E+03</pdfrwt>
<totfact> 0.36327870E+02</totfact>
</mgrwt>
</event>
<event>
 4    1  0.5531008E-005  0.5916498E+03  0.7818608E-02  0.9922883E-01
         -2   -1    0    0    0  501 -0.00000000000E+00  0.00000000000E+00  0.15016811688E+03  0.15016811690E+03  0.25500000000E-02 0. -1.
          2   -1    0    0  501    0  0.00000000000E+00 -0.00000000000E+00 -0.58276269089E+03  0.58276269090E+03  0.25500000000E-02 0.  1.
    5000001    1    1    2    0    0 -0.10453529575E+03  0.21708452600E+03 -0.27484976923E+03  0.40102458170E+03  0.16500000000E+03 0.  0.
   -5000001    1    1    2    0    0  0.10453529575E+03 -0.21708452600E+03 -0.15774480478E+03  0.33190622610E+03  0.16500000000E+03 0.  0.
<mgrwt>
<rscale>  0 0.59164981E+03</rscale>
<asrwt>0</asrwt>
<pdfrwt beam="1">  1        2 0.83251812E-01 0.59164981E+03</pdfrwt>
<pdfrwt beam="2">  1       -2 0.21452588E-01 0.59164981E+03</pdfrwt>
<totfact> 0.10608631E+03</totfact>
</mgrwt>
</event>
<event>
 4    1  0.5531008E-005  0.7590466E+03  0.7818608E-02  0.9621264E-01
         -2   -1    0    0    0  501 -0.00000000000E+00  0.00000000000E+00  0.39428147001E+03  0.39428147002E+03  0.25500000000E-02 0. -1.
          2   -1    0    0  501    0  0.00000000000E+00 -0.00000000000E+00 -0.36531750442E+03  0.36531750443E+03  0.25500000000E-02 0.  1.
    5000001    1    1    2    0    0  0.33383312256E+03  0.69073481728E+02  0.38937915930E+02  0.38073200666E+03  0.16500000000E+03 0.  0.
   -5000001    1    1    2    0    0 -0.33383312256E+03 -0.69073481728E+02 -0.99739503405E+01  0.37886696779E+03  0.16500000000E+03 0.  0.
<mgrwt>
<rscale>  0 0.75904657E+03</rscale>
<asrwt>0</asrwt>
<pdfrwt beam="1">  1        2 0.52188215E-01 0.75904657E+03</pdfrwt>
<pdfrwt beam="2">  1       -2 0.56325924E-01 0.75904657E+03</pdfrwt>
<totfact> 0.28540723E+02</totfact>
</mgrwt>
</event>
<event>
 4    1  0.5531008E-005  0.4861719E+03  0.7818608E-02  0.1017453E+00
          2   -1    0    0  501    0  0.00000000000E+00  0.00000000000E+00  0.24664302530E+03  0.24664302531E+03  0.25500000000E-02 0.  1.
         -2   -1    0    0    0  501 -0.00000000000E+00 -0.00000000000E+00 -0.23958013117E+03  0.23958013118E+03  0.25500000000E-02 0. -1.
    5000001    1    1    2    0    0  0.81337170307E+02  0.95250065418E+02  0.13073550509E+03  0.24495934872E+03  0.16500000000E+03 0.  0.
   -5000001    1    1    2    0    0 -0.81337170307E+02 -0.95250065418E+02 -0.12367261097E+03  0.24126380777E+03  0.16500000000E+03 0.  0.
<mgrwt>
<rscale>  0 0.48617186E+03</rscale>
<asrwt>0</asrwt>
<pdfrwt beam="1">  1        2 0.35234718E-01 0.48617186E+03</pdfrwt>
<pdfrwt beam="2">  1       -2 0.34225733E-01 0.48617186E+03</pdfrwt>
<totfact> 0.11857633E+03</totfact>
</mgrwt>
</event>
<event>
 4    1  0.5531008E-005  0.1272148E+04  0.7818608E-02  0.9051948E-01
         -2   -1    0    0    0  501 -0.00000000000E+00  0.00000000000E+00  0.40626414218E+03  0.40626414219E+03  0.25500000000E-02 0. -1.
          2   -1    0    0  501    0  0.00000000000E+00 -0.00000000000E+00 -0.99587990228E+03  0.99587990228E+03  0.25500000000E-02 0.  1.
    5000001    1    1    2    0    0 -0.50287344506E+03  0.33584013643E+03 -0.17561373287E+03  0.65094967713E+03  0.16500000000E+03 0.  0.
   -5000001    1    1    2    0    0  0.50287344506E+03 -0.33584013643E+03 -0.41400202723E+03  0.75119436734E+03  0.16500000000E+03 0.  0.
<mgrwt>
<rscale>  0 0.12721483E+04</rscale>
<asrwt>0</asrwt>
<pdfrwt beam="1">  1        2 0.14226856E+00 0.12721483E+04</pdfrwt>
<pdfrwt beam="2">  1       -2 0.58037735E-01 0.12721483E+04</pdfrwt>
<totfact> 0.77136006E+01</totfact>
</mgrwt>
</event>
<event>
 4    1  0.5531008E-005  0.5309129E+03  0.7818608E-02  0.1006011E+00
         -2   -1    0    0    0  501 -0.00000000000E+00  0.00000000000E+00  0.39719387457E+02  0.39719387538E+02  0.25500000000E-02 0. -1.
          2   -1    0    0  501    0  0.00000000000E+00 -0.00000000000E+00 -0.17741244626E+04  0.17741244626E+04  0.25500000000E-02 0.  1.
    5000001    1    1    2    0    0  0.17126301316E+03  0.11345295587E+03 -0.75704910052E+03  0.80159274789E+03  0.16500000000E+03 0.  0.
   -5000001    1    1    2    0    0 -0.17126301316E+03 -0.11345295587E+03 -0.97735597458E+03  0.10122511022E+04  0.16500000000E+03 0.  0.
<mgrwt>
<rscale>  0 0.53091294E+03</rscale>
<asrwt>0</asrwt>
<pdfrwt beam="1">  1        2 0.25344630E+00 0.53091294E+03</pdfrwt>
<pdfrwt beam="2">  1       -2 0.56741993E-02 0.53091294E+03</pdfrwt>
<totfact> 0.18185382E+03</totfact>
</mgrwt>
</event>
<event>
 4    1  0.5531008E-005  0.1094655E+04  0.7818608E-02  0.9210417E-01
         -2   -1    0    0    0  501 -0.00000000000E+00  0.00000000000E+00  0.10101970491E+03  0.10101970494E+03  0.25500000000E-02 0. -1.
          2   -1    0    0  501    0  0.00000000000E+00 -0.00000000000E+00 -0.29654368987E+04  0.29654368987E+04  0.25500000000E-02 0.  1.
    5000001    1    1    2    0    0 -0.17050141951E+03 -0.47233879911E+03 -0.18300313486E+04  0.19048397340E+04  0.16500000000E+03 0.  0.
   -5000001    1    1    2    0    0  0.17050141951E+03  0.47233879911E+03 -0.10343858452E+04  0.11616168697E+04  0.16500000000E+03 0.  0.
<mgrwt>
<rscale>  0 0.10946553E+04</rscale>
<asrwt>0</asrwt>
<pdfrwt beam="1">  1        2 0.42363379E+00 0.10946553E+04</pdfrwt>
<pdfrwt beam="2">  1       -2 0.14431388E-01 0.10946553E+04</pdfrwt>
<totfact> 0.93186631E+01</totfact>
</mgrwt>
</event>
<event>
 4    1  0.5531008E-005  0.5236359E+03  0.7818608E-02  0.1007787E+00
         -2   -1    0    0    0  501 -0.00000000000E+00  0.00000000000E+00  0.48630563613E+02  0.48630563680E+02  0.25500000000E-02 0. -1.
          2   -1    0    0  501    0  0.00000000000E+00 -0.00000000000E+00 -0.14095792883E+04  0.14095792883E+04  0.25500000000E-02 0.  1.
    5000001    1    1    2    0    0  0.15564645554E+03  0.13072337667E+03 -0.67202084357E+03  0.72121524840E+03  0.16500000000E+03 0.  0.
   -5000001    1    1    2    0    0 -0.15564645554E+03 -0.13072337667E+03 -0.68892788110E+03  0.73699460357E+03  0.16500000000E+03 0.  0.
<mgrwt>
<rscale>  0 0.52363589E+03</rscale>
<asrwt>0</asrwt>
<pdfrwt beam="1">  1        2 0.20136844E+00 0.52363589E+03</pdfrwt>
<pdfrwt beam="2">  1       -2 0.69472242E-02 0.52363589E+03</pdfrwt>
<totfact> 0.20382444E+03</totfact>
</mgrwt>
</event>
<event>
 4    1  0.5531008E-005  0.5692163E+03  0.7818608E-02  0.9971414E-01
          2   -1    0    0  501    0  0.00000000000E+00  0.00000000000E+00  0.16407840045E+04  0.16407840045E+04  0.25500000000E-02 0.  1.
         -2   -1    0    0    0  501 -0.00000000000E+00 -0.00000000000E+00 -0.49367740584E+02  0.49367740650E+02  0.25500000000E-02 0. -1.
    5000001    1    1    2    0    0 -0.72427609157E+02  0.22020259758E+03  0.77649800102E+03  0.82698796130E+03  0.16500000000E+03 0.  0.
   -5000001    1    1    2    0    0  0.72427609157E+02 -0.22020259758E+03  0.81491826286E+03  0.86316378382E+03  0.16500000000E+03 0.  0.
<mgrwt>
<rscale>  0 0.56921630E+03</rscale>
<asrwt>0</asrwt>
<pdfrwt beam="1">  1        2 0.23439766E+00 0.56921630E+03</pdfrwt>
<pdfrwt beam="2">  1       -2 0.70525361E-02 0.56921630E+03</pdfrwt>
<totfact> 0.15087632E+03</totfact>
</mgrwt>
</event>
<event>
 4    1  0.5531008E-005  0.6254124E+03  0.7818608E-02  0.9854042E-01
          2   -1    0    0  501    0  0.00000000000E+00  0.00000000000E+00  0.14938130901E+04  0.14938130901E+04  0.25500000000E-02 0.  1.
         -2   -1    0    0    0  501 -0.00000000000E+00 -0.00000000000E+00 -0.65460111043E+02  0.65460111092E+02  0.25500000000E-02 0. -1.
    5000001    1    1    2    0    0 -0.96624173699E+02  0.21477492946E+03  0.40785186510E+03  0.49903170754E+03  0.16500000000E+03 0.  0.
   -5000001    1    1    2    0    0  0.96624173699E+02 -0.21477492946E+03  0.10205011140E+04  0.10602414937E+04  0.16500000000E+03 0.  0.
<mgrwt>
<rscale>  0 0.62541241E+03</rscale>
<asrwt>0</asrwt>
<pdfrwt beam="1">  1        2 0.21340189E+00 0.62541241E+03</pdfrwt>
<pdfrwt beam="2">  1       -2 0.93514435E-02 0.62541241E+03</pdfrwt>
<totfact> 0.11429456E+03</totfact>
</mgrwt>
</event>
<event>
 4    1  0.5531008E-005  0.3746746E+03  0.7818608E-02  0.1052920E+00
         -2   -1    0    0    0  501 -0.00000000000E+00  0.00000000000E+00  0.31308194392E+02  0.31308194496E+02  0.25500000000E-02 0. -1.
          2   -1    0    0  501    0  0.00000000000E+00 -0.00000000000E+00 -0.11209611880E+04  0.11209611880E+04  0.25500000000E-02 0.  1.
    5000001    1    1    2    0    0 -0.87843100352E+02 -0.38943229085E+01 -0.50860804893E+03  0.54188441892E+03  0.16500000000E+03 0.  0.
   -5000001    1    1    2    0    0  0.87843100352E+02  0.38943229085E+01 -0.58104494468E+03  0.61038496358E+03  0.16500000000E+03 0.  0.
<mgrwt>
<rscale>  0 0.37467464E+03</rscale>
<asrwt>0</asrwt>
<pdfrwt beam="1">  1        2 0.16013729E+00 0.37467464E+03</pdfrwt>
<pdfrwt beam="2">  1       -2 0.44725999E-02 0.37467464E+03</pdfrwt>
<totfact> 0.57842091E+03</totfact>
</mgrwt>
</event>
<event>
 4    1  0.5531008E-005  0.3345481E+03  0.7818608E-02  0.1069142E+00
          2   -1    0    0  501    0  0.00000000000E+00  0.00000000000E+00  0.83346795077E+03  0.83346795077E+03  0.25500000000E-02 0.  1.
         -2   -1    0    0    0  501 -0.00000000000E+00 -0.00000000000E+00 -0.33571302623E+02  0.33571302720E+02  0.25500000000E-02 0. -1.
    5000001    1    1    2    0    0  0.30933911909E+01 -0.27241341297E+02  0.39480067086E+03  0.42877060237E+03  0.16500000000E+03 0.  0.
   -5000001    1    1    2    0    0 -0.30933911909E+01  0.27241341297E+02  0.40509597729E+03  0.43826865112E+03  0.16500000000E+03 0.  0.
<mgrwt>
<rscale>  0 0.33454808E+03</rscale>
<asrwt>0</asrwt>
<pdfrwt beam="1">  1        2 0.11906686E+00 0.33454808E+03</pdfrwt>
<pdfrwt beam="2">  1       -2 0.47959001E-02 0.33454808E+03</pdfrwt>
<totfact> 0.77543268E+03</totfact>
</mgrwt>
</event>
<event>
 4    1  0.5531008E-005  0.5212886E+03  0.7818608E-02  0.1008367E+00
          2   -1    0    0  501    0  0.00000000000E+00  0.00000000000E+00  0.18146822399E+03  0.18146822401E+03  0.25500000000E-02 0.  1.
         -2   -1    0    0    0  501 -0.00000000000E+00 -0.00000000000E+00 -0.37436550218E+03  0.37436550219E+03  0.25500000000E-02 0. -1.
    5000001    1    1    2    0    0  0.45808793661E+02 -0.18110214019E+03 -0.15145997247E+02  0.24970148576E+03  0.16500000000E+03 0.  0.
   -5000001    1    1    2    0    0 -0.45808793661E+02  0.18110214019E+03 -0.17775128094E+03  0.30613224044E+03  0.16500000000E+03 0.  0.
<mgrwt>
<rscale>  0 0.52128857E+03</rscale>
<asrwt>0</asrwt>
<pdfrwt beam="1">  1        2 0.25924032E-01 0.52128857E+03</pdfrwt>
<pdfrwt beam="2">  1       -2 0.53480786E-01 0.52128857E+03</pdfrwt>
<totfact> 0.69660745E+02</totfact>
</mgrwt>
</event>
<event>
 4    1  0.5531008E-005  0.1105217E+04  0.7818608E-02  0.9200122E-01
         -2   -1    0    0    0  501 -0.00000000000E+00  0.00000000000E+00  0.63932014685E+03  0.63932014685E+03  0.25500000000E-02 0. -1.
          2   -1    0    0  501    0  0.00000000000E+00 -0.00000000000E+00 -0.47765780340E+03  0.47765780341E+03  0.25500000000E-02 0.  1.
    5000001    1    1    2    0    0 -0.44876536381E+03 -0.27451261777E+03  0.42966129536E+02  0.55300869555E+03  0.16500000000E+03 0.  0.
   -5000001    1    1    2    0    0  0.44876536381E+03  0.27451261777E+03  0.11869621391E+03  0.56396925471E+03  0.16500000000E+03 0.  0.
<mgrwt>
<rscale>  0 0.11052172E+04</rscale>
<asrwt>0</asrwt>
<pdfrwt beam="1">  1        2 0.68236829E-01 0.11052172E+04</pdfrwt>
<pdfrwt beam="2">  1       -2 0.91331449E-01 0.11052172E+04</pdfrwt>
<totfact> 0.71817376E+01</totfact>
</mgrwt>
</event>
<event>
 4    1  0.5531008E-005  0.6958010E+03  0.7818608E-02  0.9724440E-01
         -2   -1    0    0    0  501 -0.00000000000E+00  0.00000000000E+00  0.64630307202E+02  0.64630307252E+02  0.25500000000E-02 0. -1.
          2   -1    0    0  501    0  0.00000000000E+00 -0.00000000000E+00 -0.18727242842E+04  0.18727242842E+04  0.25500000000E-02 0.  1.
    5000001    1    1    2    0    0  0.24045829250E+02  0.30405860404E+03 -0.98180517541E+03  0.10412474437E+04  0.16500000000E+03 0.  0.
   -5000001    1    1    2    0    0 -0.24045829250E+02 -0.30405860404E+03 -0.82628880162E+03  0.89610714777E+03  0.16500000000E+03 0.  0.
<mgrwt>
<rscale>  0 0.69580097E+03</rscale>
<asrwt>0</asrwt>
<pdfrwt beam="1">  1        2 0.26753201E+00 0.69580097E+03</pdfrwt>
<pdfrwt beam="2">  1       -2 0.92329022E-02 0.69580097E+03</pdfrwt>
<totfact> 0.74377416E+02</totfact>
</mgrwt>
</event>
<event>
 4    1  0.5531008E-005  0.4355638E+03  0.7818608E-02  0.1032117E+00
          2   -1    0    0  501    0  0.00000000000E+00  0.00000000000E+00  0.73079185541E+02  0.73079185585E+02  0.25500000000E-02 0. -1.
         -2   -1    0    0    0  501 -0.00000000000E+00 -0.00000000000E+00 -0.64900769125E+03  0.64900769126E+03  0.25500000000E-02 0.  1.
    5000001    1    1    2    0    0  0.92150469916E+02 -0.98699920586E+02 -0.36155676481E+03  0.41974001192E+03  0.16500000000E+03 0.  0.
   -5000001    1    1    2    0    0 -0.92150469916E+02  0.98699920586E+02 -0.21437174090E+03  0.30234686492E+03  0.16500000000E+03 0.  0.
<mgrwt>
<rscale>  0 0.43556379E+03</rscale>
<asrwt>0</asrwt>
<pdfrwt beam="1">  1        2 0.10439884E-01 0.43556379E+03</pdfrwt>
<pdfrwt beam="2">  1       -2 0.92715381E-01 0.43556379E+03</pdfrwt>
<totfact> 0.62463733E+02</totfact>
</mgrwt>
</event>
<event>
 4    1  0.5531008E-005  0.3915868E+03  0.7818608E-02  0.1046732E+00
          2   -1    0    0  501    0  0.00000000000E+00  0.00000000000E+00  0.12141060940E+04  0.12141060940E+04  0.25500000000E-02 0.  1.
         -2   -1    0    0    0  501 -0.00000000000E+00 -0.00000000000E+00 -0.31574723863E+02  0.31574723966E+02  0.25500000000E-02 0. -1.
    5000001    1    1    2    0    0 -0.61616517174E+02  0.83193314401E+02  0.65427591537E+03  0.68265635292E+03  0.16500000000E+03 0.  0.
   -5000001    1    1    2    0    0  0.61616517174E+02 -0.83193314401E+02  0.52825545473E+03  0.56302446501E+03  0.16500000000E+03 0.  0.
<mgrwt>
<rscale>  0 0.39158685E+03</rscale>
<asrwt>0</asrwt>
<pdfrwt beam="1">  1        2 0.17344375E+00 0.39158685E+03</pdfrwt>
<pdfrwt beam="2">  1       -2 0.45106743E-02 0.39158685E+03</pdfrwt>
<totfact> 0.50698455E+03</totfact>
</mgrwt>
</event>
<event>
 4    1  0.5531008E-005  0.4069946E+03  0.7818608E-02  0.1041384E+00
         -2   -1    0    0    0  501 -0.00000000000E+00  0.00000000000E+00  0.18925066064E+02  0.18925066236E+02  0.25500000000E-02 0. -1.
          2   -1    0    0  501    0  0.00000000000E+00 -0.00000000000E+00 -0.21881646376E+04  0.21881646376E+04  0.25500000000E-02 0.  1.
    5000001    1    1    2    0    0  0.69186292202E+02 -0.56387626274E+02 -0.15123021595E+04  0.15238927551E+04  0.16500000000E+03 0.  0.
   -5000001    1    1    2    0    0 -0.69186292202E+02  0.56387626274E+02 -0.65693741200E+03  0.68319694870E+03  0.16500000000E+03 0.  0.
<mgrwt>
<rscale>  0 0.40699465E+03</rscale>
<asrwt>0</asrwt>
<pdfrwt beam="1">  1        2 0.31259479E+00 0.40699465E+03</pdfrwt>
<pdfrwt beam="2">  1       -2 0.27035823E-02 0.40699465E+03</pdfrwt>
<totfact> 0.35214585E+03</totfact>
</mgrwt>
</event>
<event>
 4    1  0.5531008E-005  0.3880273E+03  0.7818608E-02  0.1048006E+00
         -2   -1    0    0    0  501 -0.00000000000E+00  0.00000000000E+00  0.10456483511E+02  0.10456483822E+02  0.25500000000E-02 0. -1.
          2   -1    0    0  501    0  0.00000000000E+00 -0.00000000000E+00 -0.35998046784E+04  0.35998046784E+04  0.25500000000E-02 0.  1.
    5000001    1    1    2    0    0 -0.43345170239E+02 -0.92291915820E+02 -0.17533807734E+04  0.17640764547E+04  0.16500000000E+03 0.  0.
   -5000001    1    1    2    0    0  0.43345170239E+02  0.92291915820E+02 -0.18359674214E+04  0.18461847074E+04  0.16500000000E+03 0.  0.
<mgrwt>
<rscale>  0 0.38802731E+03</rscale>
<asrwt>0</asrwt>
<pdfrwt beam="1">  1        2 0.51425702E+00 0.38802731E+03</pdfrwt>
<pdfrwt beam="2">  1       -2 0.14937857E-02 0.38802731E+03</pdfrwt>
<totfact> 0.14982345E+03</totfact>
</mgrwt>
</event>
<event>
 4    1  0.5531008E-005  0.5119578E+03  0.7818608E-02  0.1010704E+00
          2   -1    0    0  501    0  0.00000000000E+00  0.00000000000E+00  0.53589675147E+03  0.53589675147E+03  0.25500000000E-02 0.  1.
         -2   -1    0    0    0  501 -0.00000000000E+00 -0.00000000000E+00 -0.12227203288E+03  0.12227203291E+03  0.25500000000E-02 0. -1.
    5000001    1    1    2    0    0  0.71466488648E+02 -0.14452189985E+03  0.34942702894E+03  0.41871026628E+03  0.16500000000E+03 0.  0.
   -5000001    1    1    2    0    0 -0.71466488648E+02  0.14452189985E+03  0.64197689642E+02  0.23945851810E+03  0.16500000000E+03 0.  0.
<mgrwt>
<rscale>  0 0.51195775E+03</rscale>
<asrwt>0</asrwt>
<pdfrwt beam="1">  1        2 0.76556681E-01 0.51195775E+03</pdfrwt>
<pdfrwt beam="2">  1       -2 0.17467433E-01 0.51195775E+03</pdfrwt>
<totfact> 0.16688913E+03</totfact>
</mgrwt>
</event>
<event>
 4    1  0.5531008E-005  0.5097041E+03  0.7818608E-02  0.1011277E+00
         -2   -1    0    0    0  501 -0.00000000000E+00  0.00000000000E+00  0.10278460826E+03  0.10278460829E+03  0.25500000000E-02 0. -1.
          2   -1    0    0  501    0  0.00000000000E+00 -0.00000000000E+00 -0.63189981849E+03  0.63189981849E+03  0.25500000000E-02 0.  1.
    5000001    1    1    2    0    0  0.17029229071E+03 -0.52697766081E+02 -0.37572315560E+03  0.44740295985E+03  0.16500000000E+03 0.  0.
   -5000001    1    1    2    0    0 -0.17029229071E+03  0.52697766081E+02 -0.15339205462E+03  0.28728146694E+03  0.16500000000E+03 0.  0.
<mgrwt>
<rscale>  0 0.50970413E+03</rscale>
<asrwt>0</asrwt>
<pdfrwt beam="1">  1        2 0.90271401E-01 0.50970413E+03</pdfrwt>
<pdfrwt beam="2">  1       -2 0.14683516E-01 0.50970413E+03</pdfrwt>
<totfact> 0.18474437E+03</totfact>
</mgrwt>
</event>
<event>
 4    1  0.5531008E-005  0.4364824E+03  0.7818608E-02  0.1031832E+00
          2   -1    0    0  501    0  0.00000000000E+00  0.00000000000E+00  0.22523509775E+03  0.22523509777E+03  0.25500000000E-02 0.  1.
         -2   -1    0    0    0  501 -0.00000000000E+00 -0.00000000000E+00 -0.21146447503E+03  0.21146447505E+03  0.25500000000E-02 0. -1.
    5000001    1    1    2    0    0 -0.10948894040E+03 -0.54532127001E+02 -0.66925650388E+02  0.21602227576E+03  0.16500000000E+03 0.  0.
   -5000001    1    1    2    0    0  0.10948894040E+03  0.54532127001E+02  0.80696273107E+02  0.22067729706E+03  0.16500000000E+03 0.  0.
<mgrwt>
<rscale>  0 0.43648240E+03</rscale>
<asrwt>0</asrwt>
<pdfrwt beam="1">  1        2 0.32176442E-01 0.43648240E+03</pdfrwt>
<pdfrwt beam="2">  1       -2 0.30209211E-01 0.43648240E+03</pdfrwt>
<totfact> 0.16522762E+03</totfact>
</mgrwt>
</event>
<event>
 4    1  0.5531008E-005  0.7300671E+03  0.7818608E-02  0.9667151E-01
          2   -1    0    0  501    0  0.00000000000E+00  0.00000000000E+00  0.53731813455E+03  0.53731813456E+03  0.25500000000E-02 0. -1.
         -2   -1    0    0    0  501 -0.00000000000E+00 -0.00000000000E+00 -0.24798997394E+03  0.24798997395E+03  0.25500000000E-02 0.  1.
    5000001    1    1    2    0    0  0.23098546050E+03  0.95665871359E+02  0.36905902983E+03  0.47532705520E+03  0.16500000000E+03 0.  0.
   -5000001    1    1    2    0    0 -0.23098546050E+03 -0.95665871359E+02 -0.79730869213E+02  0.30998105331E+03  0.16500000000E+03 0.  0.
<mgrwt>
<rscale>  0 0.73006715E+03</rscale>
<asrwt>0</asrwt>
<pdfrwt beam="1">  1        2 0.76759734E-01 0.73006715E+03</pdfrwt>
<pdfrwt beam="2">  1       -2 0.35427139E-01 0.73006715E+03</pdfrwt>
<totfact> 0.46483442E+02</totfact>
</mgrwt>
</event>
<event>
 4    1  0.5531008E-005  0.1053392E+04  0.7818608E-02  0.9251849E-01
         -2   -1    0    0    0  501 -0.00000000000E+00  0.00000000000E+00  0.10225970998E+03  0.10225971001E+03  0.25500000000E-02 0.  1.
          2   -1    0    0  501    0  0.00000000000E+00 -0.00000000000E+00 -0.27127849539E+04  0.27127849539E+04  0.25500000000E-02 0. -1.
    5000001    1    1    2    0    0 -0.40666473380E+03 -0.11887705215E+03 -0.59481802251E+03  0.74869315420E+03  0.16500000000E+03 0.  0.
   -5000001    1    1    2    0    0  0.40666473380E+03  0.11887705215E+03 -0.20157072214E+04  0.20663515097E+04  0.16500000000E+03 0.  0.
<mgrwt>
<rscale>  0 0.10533919E+04</rscale>
<asrwt>0</asrwt>
<pdfrwt beam="1">  1        2 0.38754066E+00 0.10533919E+04</pdfrwt>
<pdfrwt beam="2">  1       -2 0.14608532E-01 0.10533919E+04</pdfrwt>
<totfact> 0.12550014E+02</totfact>
</mgrwt>
</event>
<event>
 4    1  0.5531008E-005  0.4274497E+03  0.7818608E-02  0.1034669E+00
         -2   -1    0    0    0  501 -0.00000000000E+00  0.00000000000E+00  0.27352036612E+02  0.27352036731E+02  0.25500000000E-02 0. -1.
          2   -1    0    0  501    0  0.00000000000E+00 -0.00000000000E+00 -0.16700150068E+04  0.16700150069E+04  0.25500000000E-02 0.  1.
    5000001    1    1    2    0    0  0.11134041751E+03 -0.72093721643E+02 -0.70494105615E+03  0.73604421465E+03  0.16500000000E+03 0.  0.
   -5000001    1    1    2    0    0 -0.11134041751E+03  0.72093721643E+02 -0.93772191408E+03  0.96132282893E+03  0.16500000000E+03 0.  0.
<mgrwt>
<rscale>  0 0.42744970E+03</rscale>
<asrwt>0</asrwt>
<pdfrwt beam="1">  1        2 0.23857351E+00 0.42744970E+03</pdfrwt>
<pdfrwt beam="2">  1       -2 0.39074349E-02 0.42744970E+03</pdfrwt>
<totfact> 0.36522276E+03</totfact>
</mgrwt>
</event>
<event>
 4    1  0.5531008E-005  0.3942739E+03  0.7818608E-02  0.1045781E+00
          2   -1    0    0  501    0  0.00000000000E+00  0.00000000000E+00  0.71838185176E+03  0.71838185177E+03  0.25500000000E-02 0.  1.
         -2   -1    0    0    0  501 -0.00000000000E+00 -0.00000000000E+00 -0.54097925521E+02  0.54097925581E+02  0.25500000000E-02 0. -1.
    5000001    1    1    2    0    0  0.21146486648E+02 -0.95112780827E+02  0.24141481133E+03  0.30822025583E+03  0.16500000000E+03 0.  0.
   -5000001    1    1    2    0    0 -0.21146486648E+02  0.95112780827E+02  0.42286911491E+03  0.46425952152E+03  0.16500000000E+03 0.  0.
<mgrwt>
<rscale>  0 0.39427385E+03</rscale>
<asrwt>0</asrwt>
<pdfrwt beam="1">  1        2 0.10262598E+00 0.39427385E+03</pdfrwt>
<pdfrwt beam="2">  1       -2 0.77282746E-02 0.39427385E+03</pdfrwt>
<totfact> 0.44698515E+03</totfact>
</mgrwt>
</event>
<event>
 4    1  0.5531008E-005  0.5312961E+03  0.7818608E-02  0.1005918E+00
         -2   -1    0    0    0  501 -0.00000000000E+00  0.00000000000E+00  0.18913456114E+03  0.18913456116E+03  0.25500000000E-02 0. -1.
          2   -1    0    0  501    0  0.00000000000E+00 -0.00000000000E+00 -0.37311466157E+03  0.37311466158E+03  0.25500000000E-02 0.  1.
    5000001    1    1    2    0    0 -0.42233533698E+02  0.16653540465E+03 -0.21642521769E+03  0.32184248822E+03  0.16500000000E+03 0.  0.
   -5000001    1    1    2    0    0  0.42233533698E+02 -0.16653540465E+03  0.32445117256E+02  0.24040673452E+03  0.16500000000E+03 0.  0.
<mgrwt>
<rscale>  0 0.53129607E+03</rscale>
<asrwt>0</asrwt>
<pdfrwt beam="1">  1        2 0.53302094E-01 0.53129607E+03</pdfrwt>
<pdfrwt beam="2">  1       -2 0.27019223E-01 0.53129607E+03</pdfrwt>
<totfact> 0.11632716E+03</totfact>
</mgrwt>
</event>
<event>
 4    1  0.5531008E-005  0.3813254E+03  0.7818608E-02  0.1050445E+00
          2   -1    0    0  501    0  0.00000000000E+00  0.00000000000E+00  0.23004969539E+04  0.23004969539E+04  0.25500000000E-02 0.  1.
         -2   -1    0    0    0  501 -0.00000000000E+00 -0.00000000000E+00 -0.15801917389E+02  0.15801917595E+02  0.25500000000E-02 0. -1.
    5000001    1    1    2    0    0 -0.86305583425E+02 -0.15159610311E+02  0.13735552879E+04  0.13862025813E+04  0.16500000000E+03 0.  0.
   -5000001    1    1    2    0    0  0.86305583425E+02  0.15159610311E+02  0.91113974855E+03  0.93009629012E+03  0.16500000000E+03 0.  0.
<mgrwt>
<rscale>  0 0.38132539E+03</rscale>
<asrwt>0</asrwt>
<pdfrwt beam="1">  1        2 0.32864262E+00 0.38132539E+03</pdfrwt>
<pdfrwt beam="2">  1       -2 0.22574154E-02 0.38132539E+03</pdfrwt>
<totfact> 0.40582365E+03</totfact>
</mgrwt>
</event>
<event>
 4    1  0.5531008E-005  0.1932243E+04  0.7818608E-02  0.8638971E-01
         -2   -1    0    0    0  501 -0.00000000000E+00  0.00000000000E+00  0.23794171375E+03  0.23794171376E+03  0.25500000000E-02 0. -1.
          2   -1    0    0  501    0  0.00000000000E+00 -0.00000000000E+00 -0.39227719722E+04  0.39227719722E+04  0.25500000000E-02 0.  1.
    5000001    1    1    2    0    0 -0.13951071840E+03  0.84789733389E+03 -0.27244118898E+04  0.28614748426E+04  0.16500000000E+03 0.  0.
   -5000001    1    1    2    0    0  0.13951071840E+03 -0.84789733389E+03 -0.96041836865E+03  0.12992388434E+04  0.16500000000E+03 0.  0.
<mgrwt>
<rscale>  0 0.19322433E+04</rscale>
<asrwt>0</asrwt>
<pdfrwt beam="1">  1        2 0.56039595E+00 0.19322433E+04</pdfrwt>
<pdfrwt beam="2">  1       -2 0.33991676E-01 0.19322433E+04</pdfrwt>
<totfact> 0.49165805E+00</totfact>
</mgrwt>
</event>
<event>
 4    1  0.5531008E-005  0.5299427E+03  0.7818608E-02  0.1006246E+00
         -2   -1    0    0    0  501 -0.00000000000E+00  0.00000000000E+00  0.18332800434E+03  0.18332800436E+03  0.25500000000E-02 0. -1.
          2   -1    0    0  501    0  0.00000000000E+00 -0.00000000000E+00 -0.38297371759E+03  0.38297371760E+03  0.25500000000E-02 0.  1.
    5000001    1    1    2    0    0 -0.13439370575E+03  0.98945034729E+02  0.31633559842E+02  0.23680682032E+03  0.16500000000E+03 0.  0.
   -5000001    1    1    2    0    0  0.13439370575E+03 -0.98945034729E+02 -0.23127927309E+03  0.32949490163E+03  0.16500000000E+03 0.  0.
<mgrwt>
<rscale>  0 0.52994267E+03</rscale>
<asrwt>0</asrwt>
<pdfrwt beam="1">  1        2 0.54710530E-01 0.52994267E+03</pdfrwt>
<pdfrwt beam="2">  1       -2 0.26189715E-01 0.52994267E+03</pdfrwt>
<totfact> 0.11957634E+03</totfact>
</mgrwt>
</event>
<event>
 4    1  0.5531008E-005  0.4543422E+03  0.7818608E-02  0.1026435E+00
         -2   -1    0    0    0  501 -0.00000000000E+00  0.00000000000E+00  0.21456117543E+02  0.21456117694E+02  0.25500000000E-02 0. -1.
          2   -1    0    0  501    0  0.00000000000E+00 -0.00000000000E+00 -0.24052213832E+04  0.24052213832E+04  0.25500000000E-02 0.  1.
    5000001    1    1    2    0    0 -0.93569301441E+02 -0.12466349386E+03 -0.12412730358E+04  0.12618557565E+04  0.16500000000E+03 0.  0.
   -5000001    1    1    2    0    0  0.93569301441E+02  0.12466349386E+03 -0.11424922299E+04  0.11648217444E+04  0.16500000000E+03 0.  0.
<mgrwt>
<rscale>  0 0.45434222E+03</rscale>
<asrwt>0</asrwt>
<pdfrwt beam="1">  1        2 0.34360288E+00 0.45434222E+03</pdfrwt>
<pdfrwt beam="2">  1       -2 0.30651612E-02 0.45434222E+03</pdfrwt>
<totfact> 0.22655387E+03</totfact>
</mgrwt>
</event>
<event>
 4    1  0.5531008E-005  0.4177675E+03  0.7818608E-02  0.1037795E+00
          2   -1    0    0  501    0  0.00000000000E+00  0.00000000000E+00  0.16484793770E+04  0.16484793770E+04  0.25500000000E-02 0.  1.
         -2   -1    0    0    0  501 -0.00000000000E+00 -0.00000000000E+00 -0.26468279495E+02  0.26468279617E+02  0.25500000000E-02 0. -1.
    5000001    1    1    2    0    0 -0.27256596815E+01 -0.10166124157E+03  0.11232402457E+04  0.11398403778E+04  0.16500000000E+03 0.  0.
   -5000001    1    1    2    0    0  0.27256596815E+01  0.10166124157E+03  0.49877085182E+03  0.53510727886E+03  0.16500000000E+03 0.  0.
<mgrwt>
<rscale>  0 0.41776746E+03</rscale>
<asrwt>0</asrwt>
<pdfrwt beam="1">  1        2 0.23549712E+00 0.41776746E+03</pdfrwt>
<pdfrwt beam="2">  1       -2 0.37811817E-02 0.41776746E+03</pdfrwt>
<totfact> 0.39366225E+03</totfact>
</mgrwt>
</event>
<event>
 4    1  0.5531008E-005  0.5267888E+03  0.7818608E-02  0.1007014E+00
         -2   -1    0    0    0  501 -0.00000000000E+00  0.00000000000E+00  0.50919141397E+03  0.50919141398E+03  0.25500000000E-02 0. -1.
          2   -1    0    0  501    0  0.00000000000E+00 -0.00000000000E+00 -0.13624857071E+03  0.13624857073E+03  0.25500000000E-02 0.  1.
    5000001    1    1    2    0    0 -0.64538859960E+02 -0.18712671711E+03  0.25324312266E+03  0.36130146952E+03  0.16500000000E+03 0.  0.
   -5000001    1    1    2    0    0  0.64538859960E+02  0.18712671711E+03  0.11969972061E+03  0.28413851519E+03  0.16500000000E+03 0.  0.
<mgrwt>
<rscale>  0 0.52678877E+03</rscale>
<asrwt>0</asrwt>
<pdfrwt beam="1">  1        2 0.19464081E-01 0.52678877E+03</pdfrwt>
<pdfrwt beam="2">  1       -2 0.72741632E-01 0.52678877E+03</pdfrwt>
<totfact> 0.50556257E+02</totfact>
</mgrwt>
</event>
<event>
 4    1  0.5531008E-005  0.4787231E+03  0.7818608E-02  0.1019487E+00
          2   -1    0    0  501    0  0.00000000000E+00  0.00000000000E+00  0.68386768762E+03  0.68386768763E+03  0.25500000000E-02 0.  1.
         -2   -1    0    0    0  501 -0.00000000000E+00 -0.00000000000E+00 -0.83779309060E+02  0.83779309099E+02  0.25500000000E-02 0. -1.
    5000001    1    1    2    0    0  0.10562387489E+03  0.33884903016E+02  0.51376758670E+03  0.55089629037E+03  0.16500000000E+03 0.  0.
   -5000001    1    1    2    0    0 -0.10562387489E+03 -0.33884903016E+02  0.86320791869E+02  0.21675070636E+03  0.16500000000E+03 0.  0.
<mgrwt>
<rscale>  0 0.47872314E+03</rscale>
<asrwt>0</asrwt>
<pdfrwt beam="1">  1        2 0.97695391E-01 0.47872314E+03</pdfrwt>
<pdfrwt beam="2">  1       -2 0.11968472E-01 0.47872314E+03</pdfrwt>
<totfact> 0.23573245E+03</totfact>
</mgrwt>
</event>
<event>
 4    1  0.5531008E-005  0.6745339E+03  0.7818608E-02  0.9761802E-01
          2   -1    0    0  501    0  0.00000000000E+00  0.00000000000E+00  0.37153615335E+03  0.37153615336E+03  0.25500000000E-02 0.  1.
         -2   -1    0    0    0  501 -0.00000000000E+00 -0.00000000000E+00 -0.30615866077E+03  0.30615866078E+03  0.25500000000E-02 0. -1.
    5000001    1    1    2    0    0 -0.28309996522E+03  0.41050030528E+02 -0.36140060705E+02  0.33220746425E+03  0.16500000000E+03 0.  0.
   -5000001    1    1    2    0    0  0.28309996522E+03 -0.41050030528E+02  0.10151755328E+03  0.34548734989E+03  0.16500000000E+03 0.  0.
<mgrwt>
<rscale>  0 0.67453395E+03</rscale>
<asrwt>0</asrwt>
<pdfrwt beam="1">  1        2 0.53076593E-01 0.67453395E+03</pdfrwt>
<pdfrwt beam="2">  1       -2 0.43736952E-01 0.67453395E+03</pdfrwt>
<totfact> 0.46912138E+02</totfact>
</mgrwt>
</event>
<event>
 4    1  0.5531008E-005  0.4026276E+03  0.7818608E-02  0.1042874E+00
          2   -1    0    0  501    0  0.00000000000E+00  0.00000000000E+00  0.66074618757E+02  0.66074618807E+02  0.25500000000E-02 0.  1.
         -2   -1    0    0    0  501 -0.00000000000E+00 -0.00000000000E+00 -0.61335585611E+03  0.61335585612E+03  0.25500000000E-02 0. -1.
    5000001    1    1    2    0    0 -0.58371976880E+02 -0.98243856950E+02 -0.24732921770E+03  0.31852140437E+03  0.16500000000E+03 0.  0.
   -5000001    1    1    2    0    0  0.58371976880E+02  0.98243856950E+02 -0.29995201965E+03  0.36090907055E+03  0.16500000000E+03 0.  0.
<mgrwt>
<rscale>  0 0.40262764E+03</rscale>
<asrwt>0</asrwt>
<pdfrwt beam="1">  1        2 0.94392316E-02 0.40262764E+03</pdfrwt>
<pdfrwt beam="2">  1       -2 0.87622262E-01 0.40262764E+03</pdfrwt>
<totfact> 0.80646101E+02</totfact>
</mgrwt>
</event>
<event>
 4    1  0.5531008E-005  0.4101223E+03  0.7818608E-02  0.1040330E+00
          2   -1    0    0  501    0  0.00000000000E+00  0.00000000000E+00  0.38440949903E+03  0.38440949904E+03  0.25500000000E-02 0.  1.
         -2   -1    0    0    0  501 -0.00000000000E+00 -0.00000000000E+00 -0.10938877075E+03  0.10938877078E+03  0.25500000000E-02 0. -1.
    5000001    1    1    2    0    0 -0.11019340383E+03 -0.33470566855E+02  0.89921330283E+02  0.22039444352E+03  0.16500000000E+03 0.  0.
   -5000001    1    1    2    0    0  0.11019340383E+03  0.33470566855E+02  0.18509939800E+03  0.27340382630E+03  0.16500000000E+03 0.  0.
<mgrwt>
<rscale>  0 0.41012234E+03</rscale>
<asrwt>0</asrwt>
<pdfrwt beam="1">  1        2 0.54915641E-01 0.41012234E+03</pdfrwt>
<pdfrwt beam="2">  1       -2 0.15626968E-01 0.41012234E+03</pdfrwt>
<totfact> 0.29129982E+03</totfact>
</mgrwt>
</event>
<event>
 4    1  0.5531008E-005  0.6972953E+03  0.7818608E-02  0.9721869E-01
          2   -1    0    0  501    0  0.00000000000E+00  0.00000000000E+00  0.14362599762E+04  0.14362599762E+04  0.25500000000E-02 0.  1.
         -2   -1    0    0    0  501 -0.00000000000E+00 -0.00000000000E+00 -0.84633139725E+02  0.84633139763E+02  0.25500000000E-02 0. -1.
    5000001    1    1    2    0    0  0.21399877011E+03 -0.21543266064E+03  0.77632281923E+03  0.84976986563E+03  0.16500000000E+03 0.  0.
   -5000001    1    1    2    0    0 -0.21399877011E+03  0.21543266064E+03  0.57530401725E+03  0.67112325033E+03  0.16500000000E+03 0.  0.
<mgrwt>
<rscale>  0 0.69729532E+03</rscale>
<asrwt>0</asrwt>
<pdfrwt beam="1">  1        2 0.20518000E+00 0.69729532E+03</pdfrwt>
<pdfrwt beam="2">  1       -2 0.12090448E-01 0.69729532E+03</pdfrwt>
<totfact> 0.80334229E+02</totfact>
</mgrwt>
</event>
<event>
 4    1  0.5531008E-005  0.3422557E+03  0.7818608E-02  0.1065839E+00
         -2   -1    0    0    0  501 -0.00000000000E+00  0.00000000000E+00  0.49993930128E+02  0.49993930193E+02  0.25500000000E-02 0. -1.
          2   -1    0    0  501    0  0.00000000000E+00 -0.00000000000E+00 -0.58576598545E+03  0.58576598546E+03  0.25500000000E-02 0.  1.
    5000001    1    1    2    0    0  0.89059485225E+01 -0.44465216189E+02 -0.27124630940E+03  0.32071175802E+03  0.16500000000E+03 0.  0.
   -5000001    1    1    2    0    0 -0.89059485225E+01  0.44465216189E+02 -0.26452574592E+03  0.31504815763E+03  0.16500000000E+03 0.  0.
<mgrwt>
<rscale>  0 0.34225572E+03</rscale>
<asrwt>0</asrwt>
<pdfrwt beam="1">  1        2 0.83680851E-01 0.34225572E+03</pdfrwt>
<pdfrwt beam="2">  1       -2 0.71419904E-02 0.34225572E+03</pdfrwt>
<totfact> 0.64121439E+03</totfact>
</mgrwt>
</event>
<event>
 4    1  0.5531008E-005  0.4780579E+03  0.7818608E-02  0.1019670E+00
          2   -1    0    0  501    0  0.00000000000E+00  0.00000000000E+00  0.12903723986E+04  0.12903723986E+04  0.25500000000E-02 0.  1.
         -2   -1    0    0    0  501 -0.00000000000E+00 -0.00000000000E+00 -0.44277790189E+02  0.44277790262E+02  0.25500000000E-02 0. -1.
    5000001    1    1    2    0    0  0.10634978972E+02  0.12822163715E+03  0.94569183267E+03  0.96856178605E+03  0.16500000000E+03 0.  0.
   -5000001    1    1    2    0    0 -0.10634978972E+02 -0.12822163715E+03  0.30040277578E+03  0.36608840285E+03  0.16500000000E+03 0.  0.
<mgrwt>
<rscale>  0 0.47805790E+03</rscale>
<asrwt>0</asrwt>
<pdfrwt beam="1">  1        2 0.18433891E+00 0.47805790E+03</pdfrwt>
<pdfrwt beam="2">  1       -2 0.63253986E-02 0.47805790E+03</pdfrwt>
<totfact> 0.27354179E+03</totfact>
</mgrwt>
</event>
<event>
 4    1  0.5531008E-005  0.3924603E+03  0.7818608E-02  0.1046422E+00
         -2   -1    0    0    0  501 -0.00000000000E+00  0.00000000000E+00  0.15757836118E+03  0.15757836120E+03  0.25500000000E-02 0. -1.
          2   -1    0    0  501    0  0.00000000000E+00 -0.00000000000E+00 -0.24436272037E+03  0.24436272038E+03  0.25500000000E-02 0.  1.
    5000001    1    1    2    0    0  0.76896349978E+02  0.40106072450E+02  0.19405708911E+02  0.18741165179E+03  0.16500000000E+03 0.  0.
   -5000001    1    1    2    0    0 -0.76896349978E+02 -0.40106072450E+02 -0.10619006810E+03  0.21452942980E+03  0.16500000000E+03 0.  0.
<mgrwt>
<rscale>  0 0.39246033E+03</rscale>
<asrwt>0</asrwt>
<pdfrwt beam="1">  1        2 0.34908960E-01 0.39246033E+03</pdfrwt>
<pdfrwt beam="2">  1       -2 0.22511194E-01 0.39246033E+03</pdfrwt>
<totfact> 0.25556794E+03</totfact>
</mgrwt>
</event>
<event>
 4    1  0.5531008E-005  0.6710542E+03  0.7818608E-02  0.9768055E-01
         -2   -1    0    0    0  501 -0.00000000000E+00  0.00000000000E+00  0.68917127120E+02  0.68917127167E+02  0.25500000000E-02 0. -1.
          2   -1    0    0  501    0  0.00000000000E+00 -0.00000000000E+00 -0.16335336402E+04  0.16335336402E+04  0.25500000000E-02 0.  1.
    5000001    1    1    2    0    0 -0.27051397938E+03  0.31555173993E+02 -0.10505559337E+04  0.10977551239E+04  0.16500000000E+03 0.  0.
   -5000001    1    1    2    0    0  0.27051397938E+03 -0.31555173993E+02 -0.51406057933E+03  0.60469564350E+03  0.16500000000E+03 0.  0.
<mgrwt>
<rscale>  0 0.67105423E+03</rscale>
<asrwt>0</asrwt>
<pdfrwt beam="1">  1        2 0.23336193E+00 0.67105423E+03</pdfrwt>
<pdfrwt beam="2">  1       -2 0.98453049E-02 0.67105423E+03</pdfrwt>
<totfact> 0.88846211E+02</totfact>
</mgrwt>
</event>
<event>
 4    1  0.5531008E-005  0.3347355E+03  0.7818608E-02  0.1069061E+00
         -2   -1    0    0    0  501 -0.00000000000E+00  0.00000000000E+00  0.34858937098E+02  0.34858937191E+02  0.25500000000E-02 0. -1.
          2   -1    0    0  501    0  0.00000000000E+00 -0.00000000000E+00 -0.80358057894E+03  0.80358057894E+03  0.25500000000E-02 0.  1.
    5000001    1    1    2    0    0 -0.15446824807E+02 -0.23224513892E+02 -0.39186783843E+03  0.42610255249E+03  0.16500000000E+03 0.  0.
   -5000001    1    1    2    0    0  0.15446824807E+02  0.23224513892E+02 -0.37685380341E+03  0.41233696365E+03  0.16500000000E+03 0.  0.
<mgrwt>
<rscale>  0 0.33473551E+03</rscale>
<asrwt>0</asrwt>
<pdfrwt beam="1">  1        2 0.11479721E+00 0.33473551E+03</pdfrwt>
<pdfrwt beam="2">  1       -2 0.49798486E-02 0.33473551E+03</pdfrwt>
<totfact> 0.76659650E+03</totfact>
</mgrwt>
</event>
<event>
 4    1  0.5531008E-005  0.3753758E+03  0.7818608E-02  0.1052656E+00
         -2   -1    0    0    0  501 -0.00000000000E+00  0.00000000000E+00  0.25745936972E+02  0.25745937099E+02  0.25500000000E-02 0. -1.
          2   -1    0    0  501    0  0.00000000000E+00 -0.00000000000E+00 -0.13682448542E+04  0.13682448542E+04  0.25500000000E-02 0.  1.
    5000001    1    1    2    0    0 -0.35248065595E+02  0.19762792342E+02 -0.37488862526E+03  0.41158167530E+03  0.16500000000E+03 0.  0.
   -5000001    1    1    2    0    0  0.35248065595E+02 -0.19762792342E+02 -0.96761029194E+03  0.98240911598E+03  0.16500000000E+03 0.  0.
<mgrwt>
<rscale>  0 0.37537579E+03</rscale>
<asrwt>0</asrwt>
<pdfrwt beam="1">  1        2 0.19546351E+00 0.37537579E+03</pdfrwt>
<pdfrwt beam="2">  1       -2 0.36779919E-02 0.37537579E+03</pdfrwt>
<totfact> 0.57134914E+03</totfact>
</mgrwt>
</event>
<event>
 4    1  0.5531008E-005  0.4709679E+03  0.7818608E-02  0.1021647E+00
          2   -1    0    0  501    0  0.00000000000E+00  0.00000000000E+00  0.34878153659E+03  0.34878153660E+03  0.25500000000E-02 0.  1.
         -2   -1    0    0    0  501 -0.00000000000E+00 -0.00000000000E+00 -0.15898976507E+03  0.15898976509E+03  0.25500000000E-02 0. -1.
    5000001    1    1    2    0    0  0.14722399794E+03 -0.57456913024E+02  0.33418104732E+02  0.23090684734E+03  0.16500000000E+03 0.  0.
   -5000001    1    1    2    0    0 -0.14722399794E+03  0.57456913024E+02  0.15637366679E+03  0.27686445436E+03  0.16500000000E+03 0.  0.
<mgrwt>
<rscale>  0 0.47096792E+03</rscale>
<asrwt>0</asrwt>
<pdfrwt beam="1">  1        2 0.49825933E-01 0.47096792E+03</pdfrwt>
<pdfrwt beam="2">  1       -2 0.22712824E-01 0.47096792E+03</pdfrwt>
<totfact> 0.17078460E+03</totfact>
</mgrwt>
</event>
<event>
 4    1  0.5531008E-005  0.5850506E+03  0.7818608E-02  0.9936916E-01
         -2   -1    0    0    0  501 -0.00000000000E+00  0.00000000000E+00  0.67181691377E+02  0.67181691426E+02  0.25500000000E-02 0. -1.
          2   -1    0    0  501    0  0.00000000000E+00 -0.00000000000E+00 -0.12737257624E+04  0.12737257624E+04  0.25500000000E-02 0.  1.
    5000001    1    1    2    0    0 -0.93952390884E+02 -0.18244301334E+03 -0.31125238487E+03  0.40769541567E+03  0.16500000000E+03 0.  0.
   -5000001    1    1    2    0    0  0.93952390884E+02  0.18244301334E+03 -0.89529168613E+03  0.93321203814E+03  0.16500000000E+03 0.  0.
<mgrwt>
<rscale>  0 0.58505060E+03</rscale>
<asrwt>0</asrwt>
<pdfrwt beam="1">  1        2 0.18196081E+00 0.58505060E+03</pdfrwt>
<pdfrwt beam="2">  1       -2 0.95973853E-02 0.58505060E+03</pdfrwt>
<totfact> 0.14383503E+03</totfact>
</mgrwt>
</event>
<event>
 4    1  0.5531008E-005  0.4814739E+03  0.7818608E-02  0.1018731E+00
         -2   -1    0    0    0  501 -0.00000000000E+00  0.00000000000E+00  0.67857225300E+02  0.67857225348E+02  0.25500000000E-02 0. -1.
          2   -1    0    0  501    0  0.00000000000E+00 -0.00000000000E+00 -0.85406213797E+03  0.85406213798E+03  0.25500000000E-02 0.  1.
    5000001    1    1    2    0    0 -0.70532445059E+02  0.12606657047E+03 -0.20295276205E+03  0.29880165598E+03  0.16500000000E+03 0.  0.
   -5000001    1    1    2    0    0  0.70532445059E+02 -0.12606657047E+03 -0.58325215063E+03  0.62311770735E+03  0.16500000000E+03 0.  0.
<mgrwt>
<rscale>  0 0.48147393E+03</rscale>
<asrwt>0</asrwt>
<pdfrwt beam="1">  1        2 0.12200887E+00 0.48147393E+03</pdfrwt>
<pdfrwt beam="2">  1       -2 0.96938899E-02 0.48147393E+03</pdfrwt>
<totfact> 0.25142604E+03</totfact>
</mgrwt>
</event>
<event>
 4    1  0.5531008E-005  0.5944765E+03  0.7818608E-02  0.9916932E-01
          2   -1    0    0  501    0  0.00000000000E+00  0.00000000000E+00  0.26978670816E+03  0.26978670817E+03  0.25500000000E-02 0.  1.
         -2   -1    0    0    0  501 -0.00000000000E+00 -0.00000000000E+00 -0.32748306502E+03  0.32748306503E+03  0.25500000000E-02 0. -1.
    5000001    1    1    2    0    0 -0.21260815848E+03 -0.97375980475E+02  0.51786435278E+02  0.29084556985E+03  0.16500000000E+03 0.  0.
   -5000001    1    1    2    0    0  0.21260815848E+03  0.97375980475E+02 -0.10948279214E+03  0.30642420335E+03  0.16500000000E+03 0.  0.
<mgrwt>
<rscale>  0 0.59447650E+03</rscale>
<asrwt>0</asrwt>
<pdfrwt beam="1">  1        2 0.38540959E-01 0.59447650E+03</pdfrwt>
<pdfrwt beam="2">  1       -2 0.46783295E-01 0.59447650E+03</pdfrwt>
<totfact> 0.58558766E+02</totfact>
</mgrwt>
</event>
<event>
 4    1  0.5531008E-005  0.4332714E+03  0.7818608E-02  0.1032832E+00
         -2   -1    0    0    0  501 -0.00000000000E+00  0.00000000000E+00  0.49896514795E+02  0.49896514860E+02  0.25500000000E-02 0. -1.
          2   -1    0    0  501    0  0.00000000000E+00 -0.00000000000E+00 -0.94056715590E+03  0.94056715591E+03  0.25500000000E-02 0.  1.
    5000001    1    1    2    0    0  0.53125692978E+02  0.12289758774E+03 -0.54177867010E+03  0.58195814601E+03  0.16500000000E+03 0.  0.
   -5000001    1    1    2    0    0 -0.53125692978E+02 -0.12289758774E+03 -0.34889197100E+03  0.40850552476E+03  0.16500000000E+03 0.  0.
<mgrwt>
<rscale>  0 0.43327138E+03</rscale>
<asrwt>0</asrwt>
<pdfrwt beam="1">  1        2 0.13436673E+00 0.43327138E+03</pdfrwt>
<pdfrwt beam="2">  1       -2 0.71280741E-02 0.43327138E+03</pdfrwt>
<totfact> 0.36042006E+03</totfact>
</mgrwt>
</event>
<event>
 4    1  0.5531008E-005  0.3839393E+03  0.7818608E-02  0.1049487E+00
         -2   -1    0    0    0  501 -0.00000000000E+00  0.00000000000E+00  0.11955531058E+03  0.11955531060E+03  0.25500000000E-02 0. -1.
          2   -1    0    0  501    0  0.00000000000E+00 -0.00000000000E+00 -0.30824518662E+03  0.30824518663E+03  0.25500000000E-02 0.  1.
    5000001    1    1    2    0    0 -0.80232209906E+02  0.55631666100E+02 -0.83469862617E+02  0.20910358138E+03  0.16500000000E+03 0.  0.
   -5000001    1    1    2    0    0  0.80232209906E+02 -0.55631666100E+02 -0.10522001342E+03  0.21869691585E+03  0.16500000000E+03 0.  0.
<mgrwt>
<rscale>  0 0.38393931E+03</rscale>
<asrwt>0</asrwt>
<pdfrwt beam="1">  1        2 0.44035026E-01 0.38393931E+03</pdfrwt>
<pdfrwt beam="2">  1       -2 0.17079330E-01 0.38393931E+03</pdfrwt>
<totfact> 0.31877001E+03</totfact>
</mgrwt>
</event>
<event>
 4    1  0.5531008E-005  0.4211333E+03  0.7818608E-02  0.1036698E+00
         -2   -1    0    0    0  501 -0.00000000000E+00  0.00000000000E+00  0.49336605320E+02  0.49336605386E+02  0.25500000000E-02 0. -1.
          2   -1    0    0  501    0  0.00000000000E+00 -0.00000000000E+00 -0.89868985053E+03  0.89868985054E+03  0.25500000000E-02 0.  1.
    5000001    1    1    2    0    0 -0.81877462344E+01  0.12159351360E+03 -0.53172461780E+03  0.56991937230E+03  0.16500000000E+03 0.  0.
   -5000001    1    1    2    0    0  0.81877462344E+01 -0.12159351360E+03 -0.31762862741E+03  0.37810708363E+03  0.16500000000E+03 0.  0.
<mgrwt>
<rscale>  0 0.42113326E+03</rscale>
<asrwt>0</asrwt>
<pdfrwt beam="1">  1        2 0.12838425E+00 0.42113326E+03</pdfrwt>
<pdfrwt beam="2">  1       -2 0.70480870E-02 0.42113326E+03</pdfrwt>
<totfact> 0.38970658E+03</totfact>
</mgrwt>
</event>
<event>
 4    1  0.5531008E-005  0.8046857E+03  0.7818608E-02  0.9553259E-01
         -2   -1    0    0    0  501 -0.00000000000E+00  0.00000000000E+00  0.68184085553E+02  0.68184085600E+02  0.25500000000E-02 0. -1.
          2   -1    0    0  501    0  0.00000000000E+00 -0.00000000000E+00 -0.23741579075E+04  0.23741579075E+04  0.25500000000E-02 0.  1.
    5000001    1    1    2    0    0  0.34235874383E+03  0.35449938506E+02 -0.15391622405E+04  0.15857842256E+04  0.16500000000E+03 0.  0.
   -5000001    1    1    2    0    0 -0.34235874383E+03 -0.35449938506E+02 -0.76681158150E+03  0.85655776755E+03  0.16500000000E+03 0.  0.
<mgrwt>
<rscale>  0 0.80468574E+03</rscale>
<asrwt>0</asrwt>
<pdfrwt beam="1">  1        2 0.33916536E+00 0.80468574E+03</pdfrwt>
<pdfrwt beam="2">  1       -2 0.97405851E-02 0.80468574E+03</pdfrwt>
<totfact> 0.37685574E+02</totfact>
</mgrwt>
</event>
<event>
 4    1  0.5531008E-005  0.9860010E+03  0.7818608E-02  0.9324033E-01
         -2   -1    0    0    0  501 -0.00000000000E+00  0.00000000000E+00  0.20942975686E+03  0.20942975688E+03  0.25500000000E-02 0. -1.
          2   -1    0    0  501    0  0.00000000000E+00 -0.00000000000E+00 -0.11605298313E+04  0.11605298313E+04  0.25500000000E-02 0.  1.
    5000001    1    1    2    0    0  0.23784889406E+03 -0.35908769686E+03 -0.71743673676E+03  0.85291062937E+03  0.16500000000E+03 0.  0.
   -5000001    1    1    2    0    0 -0.23784889406E+03  0.35908769686E+03 -0.23366333769E+03  0.51704895883E+03  0.16500000000E+03 0.  0.
<mgrwt>
<rscale>  0 0.98600097E+03</rscale>
<asrwt>0</asrwt>
<pdfrwt beam="1">  1        2 0.16578997E+00 0.98600097E+03</pdfrwt>
<pdfrwt beam="2">  1       -2 0.29918537E-01 0.98600097E+03</pdfrwt>
<totfact> 0.23119211E+02</totfact>
</mgrwt>
</event>
<event>
 4    1  0.5531008E-005  0.5111908E+03  0.7818608E-02  0.1010899E+00
          2   -1    0    0  501    0  0.00000000000E+00  0.00000000000E+00  0.88063251347E+03  0.88063251348E+03  0.25500000000E-02 0.  1.
         -2   -1    0    0    0  501 -0.00000000000E+00 -0.00000000000E+00 -0.74184196937E+02  0.74184196981E+02  0.25500000000E-02 0. -1.
    5000001    1    1    2    0    0 -0.75552398691E+02 -0.17605557034E+03  0.33332925765E+03  0.41837438115E+03  0.16500000000E+03 0.  0.
   -5000001    1    1    2    0    0  0.75552398691E+02  0.17605557034E+03  0.47311905888E+03  0.53644232931E+03  0.16500000000E+03 0.  0.
<mgrwt>
<rscale>  0 0.51119083E+03</rscale>
<asrwt>0</asrwt>
<pdfrwt beam="1">  1        2 0.12580465E+00 0.51119083E+03</pdfrwt>
<pdfrwt beam="2">  1       -2 0.10597742E-01 0.51119083E+03</pdfrwt>
<totfact> 0.20916463E+03</totfact>
</mgrwt>
</event>
<event>
 4    1  0.5531008E-005  0.4060745E+03  0.7818608E-02  0.1041696E+00
         -2   -1    0    0    0  501 -0.00000000000E+00  0.00000000000E+00  0.18588228854E+03  0.18588228856E+03  0.25500000000E-02 0. -1.
          2   -1    0    0  501    0  0.00000000000E+00 -0.00000000000E+00 -0.22177542018E+03  0.22177542019E+03  0.25500000000E-02 0.  1.
    5000001    1    1    2    0    0  0.24596634161E+02  0.11206481826E+03 -0.46966097674E+02  0.20638394374E+03  0.16500000000E+03 0.  0.
   -5000001    1    1    2    0    0 -0.24596634161E+02 -0.11206481826E+03  0.11072966041E+02  0.20127376501E+03  0.16500000000E+03 0.  0.
<mgrwt>
<rscale>  0 0.40607449E+03</rscale>
<asrwt>0</asrwt>
<pdfrwt beam="1">  1        2 0.31682203E-01 0.40607449E+03</pdfrwt>
<pdfrwt beam="2">  1       -2 0.26554613E-01 0.40607449E+03</pdfrwt>
<totfact> 0.21228438E+03</totfact>
</mgrwt>
</event>
<event>
 4    1  0.5531008E-005  0.5119233E+03  0.7818608E-02  0.1010713E+00
          2   -1    0    0  501    0  0.00000000000E+00  0.00000000000E+00  0.58890561301E+03  0.58890561302E+03  0.25500000000E-02 0.  1.
         -2   -1    0    0    0  501 -0.00000000000E+00 -0.00000000000E+00 -0.11125102658E+03  0.11125102661E+03  0.25500000000E-02 0. -1.
    5000001    1    1    2    0    0 -0.86065962410E+02 -0.14045136933E+03  0.38329546854E+03  0.44863610336E+03  0.16500000000E+03 0.  0.
   -5000001    1    1    2    0    0  0.86065962410E+02  0.14045136933E+03  0.94359117893E+02  0.25152053626E+03  0.16500000000E+03 0.  0.
<mgrwt>
<rscale>  0 0.51192325E+03</rscale>
<asrwt>0</asrwt>
<pdfrwt beam="1">  1        2 0.84129374E-01 0.51192325E+03</pdfrwt>
<pdfrwt beam="2">  1       -2 0.15893004E-01 0.51192325E+03</pdfrwt>
<totfact> 0.17568603E+03</totfact>
</mgrwt>
</event>
<event>
 4    1  0.5531008E-005  0.7161606E+03  0.7818608E-02  0.9689988E-01
         -2   -1    0    0    0  501 -0.00000000000E+00  0.00000000000E+00  0.32038674033E+03  0.32038674034E+03  0.25500000000E-02 0. -1.
          2   -1    0    0  501    0  0.00000000000E+00 -0.00000000000E+00 -0.40020856794E+03  0.40020856795E+03  0.25500000000E-02 0.  1.
    5000001    1    1    2    0    0  0.28202349282E+03 -0.10724021264E+03  0.60500847987E+02  0.34917483632E+03  0.16500000000E+03 0.  0.
   -5000001    1    1    2    0    0 -0.28202349282E+03  0.10724021264E+03 -0.14032267559E+03  0.37142047197E+03  0.16500000000E+03 0.  0.
<mgrwt>
<rscale>  0 0.71616065E+03</rscale>
<asrwt>0</asrwt>
<pdfrwt beam="1">  1        2 0.57172652E-01 0.71616065E+03</pdfrwt>
<pdfrwt beam="2">  1       -2 0.45769535E-01 0.71616065E+03</pdfrwt>
<totfact> 0.39413285E+02</totfact>
</mgrwt>
</event>
<event>
 4    1  0.5531008E-005  0.4889139E+03  0.7818608E-02  0.1016714E+00
         -2   -1    0    0    0  501 -0.00000000000E+00  0.00000000000E+00  0.43508070482E+02  0.43508070557E+02  0.25500000000E-02 0. -1.
          2   -1    0    0  501    0  0.00000000000E+00 -0.00000000000E+00 -0.13735198139E+04  0.13735198139E+04  0.25500000000E-02 0.  1.
    5000001    1    1    2    0    0 -0.90083321320E+02 -0.11347508690E+03 -0.97639094286E+03  0.10007776344E+04  0.16500000000E+03 0.  0.
   -5000001    1    1    2    0    0  0.90083321320E+02  0.11347508690E+03 -0.35362080057E+03  0.41625025012E+03  0.16500000000E+03 0.  0.
<mgrwt>
<rscale>  0 0.48891389E+03</rscale>
<asrwt>0</asrwt>
<pdfrwt beam="1">  1        2 0.19621709E+00 0.48891389E+03</pdfrwt>
<pdfrwt beam="2">  1       -2 0.62154395E-02 0.48891389E+03</pdfrwt>
<totfact> 0.25373768E+03</totfact>
</mgrwt>
</event>
<event>
 4    1  0.5531008E-005  0.5450053E+03  0.7818608E-02  0.1002657E+00
          2   -1    0    0  501    0  0.00000000000E+00  0.00000000000E+00  0.20162623550E+04  0.20162623550E+04  0.25500000000E-02 0.  1.
         -2   -1    0    0    0  501 -0.00000000000E+00 -0.00000000000E+00 -0.36829387009E+02  0.36829387097E+02  0.25500000000E-02 0. -1.
    5000001    1    1    2    0    0 -0.94419538854E+02 -0.12892476466E+03  0.43740121275E+03  0.49404601524E+03  0.16500000000E+03 0.  0.
   -5000001    1    1    2    0    0  0.94419538854E+02  0.12892476466E+03  0.15420317553E+04  0.15590457269E+04  0.16500000000E+03 0.  0.
<mgrwt>
<rscale>  0 0.54500535E+03</rscale>
<asrwt>0</asrwt>
<pdfrwt beam="1">  1        2 0.28803757E+00 0.54500535E+03</pdfrwt>
<pdfrwt beam="2">  1       -2 0.52613394E-02 0.54500535E+03</pdfrwt>
<totfact> 0.15454289E+03</totfact>
</mgrwt>
</event>
<event>
 4    1  0.5531008E-005  0.6749999E+03  0.7818608E-02  0.9760967E-01
         -2   -1    0    0    0  501 -0.00000000000E+00  0.00000000000E+00  0.99606937470E+02  0.99606937503E+02  0.25500000000E-02 0. -1.
          2   -1    0    0  501    0  0.00000000000E+00 -0.00000000000E+00 -0.11435570128E+04  0.11435570128E+04  0.25500000000E-02 0.  1.
    5000001    1    1    2    0    0  0.12881252014E+03 -0.19435196080E+03 -0.19089531765E+03  0.34355694188E+03  0.16500000000E+03 0.  0.
   -5000001    1    1    2    0    0 -0.12881252014E+03  0.19435196080E+03 -0.85305475772E+03  0.89960700847E+03  0.16500000000E+03 0.  0.
<mgrwt>
<rscale>  0 0.67499989E+03</rscale>
<asrwt>0</asrwt>
<pdfrwt beam="1">  1        2 0.16336528E+00 0.67499989E+03</pdfrwt>
<pdfrwt beam="2">  1       -2 0.14229563E-01 0.67499989E+03</pdfrwt>
<totfact> 0.88769680E+02</totfact>
</mgrwt>
</event>
<event>
 4    1  0.5531008E-005  0.4566517E+03  0.7818608E-02  0.1025757E+00
         -2   -1    0    0    0  501 -0.00000000000E+00  0.00000000000E+00  0.10059275567E+03  0.10059275570E+03  0.25500000000E-02 0. -1.
          2   -1    0    0  501    0  0.00000000000E+00 -0.00000000000E+00 -0.51825495654E+03  0.51825495654E+03  0.25500000000E-02 0.  1.
    5000001    1    1    2    0    0  0.70378777800E+02  0.14095969547E+03 -0.22131691987E+03  0.31785057359E+03  0.16500000000E+03 0.  0.
   -5000001    1    1    2    0    0 -0.70378777800E+02 -0.14095969547E+03 -0.19634528100E+03  0.30099713866E+03  0.16500000000E+03 0.  0.
<mgrwt>
<rscale>  0 0.45665170E+03</rscale>
<asrwt>0</asrwt>
<pdfrwt beam="1">  1        2 0.74036421E-01 0.45665170E+03</pdfrwt>
<pdfrwt beam="2">  1       -2 0.14370394E-01 0.45665170E+03</pdfrwt>
<totfact> 0.24074085E+03</totfact>
</mgrwt>
</event>
<event>
 4    1  0.5531008E-005  0.1061464E+04  0.7818608E-02  0.9243587E-01
         -2   -1    0    0    0  501 -0.00000000000E+00  0.00000000000E+00  0.23033188509E+03  0.23033188510E+03  0.25500000000E-02 0.  1.
          2   -1    0    0  501    0  0.00000000000E+00 -0.00000000000E+00 -0.12229160500E+04  0.12229160501E+04  0.25500000000E-02 0. -1.
    5000001    1    1    2    0    0  0.34428931424E+03 -0.23416746451E+03 -0.10644287038E+03  0.46035271042E+03  0.16500000000E+03 0.  0.
   -5000001    1    1    2    0    0 -0.34428931424E+03  0.23416746451E+03 -0.88614129459E+03  0.99289522474E+03  0.16500000000E+03 0.  0.
<mgrwt>
<rscale>  0 0.10614642E+04</rscale>
<asrwt>0</asrwt>
<pdfrwt beam="1">  1        2 0.17470229E+00 0.10614642E+04</pdfrwt>
<pdfrwt beam="2">  1       -2 0.32904556E-01 0.10614642E+04</pdfrwt>
<totfact> 0.17745697E+02</totfact>
</mgrwt>
</event>
<event>
 4    1  0.5531008E-005  0.4318641E+03  0.7818608E-02  0.1033273E+00
         -2   -1    0    0    0  501 -0.00000000000E+00  0.00000000000E+00  0.15875261308E+02  0.15875261512E+02  0.25500000000E-02 0. -1.
          2   -1    0    0  501    0  0.00000000000E+00 -0.00000000000E+00 -0.29370636188E+04  0.29370636188E+04  0.25500000000E-02 0.  1.
    5000001    1    1    2    0    0  0.20788181957E+02  0.13647924642E+03 -0.13339738477E+04  0.13512105534E+04  0.16500000000E+03 0.  0.
   -5000001    1    1    2    0    0 -0.20788181957E+02 -0.13647924642E+03 -0.15872145097E+04  0.16017283269E+04  0.16500000000E+03 0.  0.
<mgrwt>
<rscale>  0 0.43186411E+03</rscale>
<asrwt>0</asrwt>
<pdfrwt beam="1">  1        2 0.41958017E+00 0.43186411E+03</pdfrwt>
<pdfrwt beam="2">  1       -2 0.22678964E-02 0.43186411E+03</pdfrwt>
<totfact> 0.18938513E+03</totfact>
</mgrwt>
</event>
<event>
 4    1  0.5531008E-005  0.4700142E+03  0.7818608E-02  0.1021916E+00
         -2   -1    0    0    0  501 -0.00000000000E+00  0.00000000000E+00  0.92913233874E+02  0.92913233909E+02  0.25500000000E-02 0.  1.
          2   -1    0    0  501    0  0.00000000000E+00 -0.00000000000E+00 -0.59440774264E+03  0.59440774265E+03  0.25500000000E-02 0. -1.
    5000001    1    1    2    0    0  0.94891175807E+02  0.12051439866E+03 -0.34857435491E+03  0.41503871678E+03  0.16500000000E+03 0.  0.
   -5000001    1    1    2    0    0 -0.94891175807E+02 -0.12051439866E+03 -0.15292015386E+03  0.27228225977E+03  0.16500000000E+03 0.  0.
<mgrwt>
<rscale>  0 0.47001424E+03</rscale>
<asrwt>0</asrwt>
<pdfrwt beam="1">  1        2 0.84915390E-01 0.47001424E+03</pdfrwt>
<pdfrwt beam="2">  1       -2 0.13273319E-01 0.47001424E+03</pdfrwt>
<totfact> 0.23470434E+03</totfact>
</mgrwt>
</event>
<event>
 4    1  0.5531008E-005  0.4181144E+03  0.7818608E-02  0.1037682E+00
          2   -1    0    0  501    0  0.00000000000E+00  0.00000000000E+00  0.75809213606E+03  0.75809213607E+03  0.25500000000E-02 0.  1.
         -2   -1    0    0    0  501 -0.00000000000E+00 -0.00000000000E+00 -0.57651189683E+02  0.57651189740E+02  0.25500000000E-02 0. -1.
    5000001    1    1    2    0    0 -0.44013159051E+02  0.11832979429E+03  0.30484900489E+03  0.36891328815E+03  0.16500000000E+03 0.  0.
   -5000001    1    1    2    0    0  0.44013159051E+02 -0.11832979429E+03  0.39559194149E+03  0.44683003766E+03  0.16500000000E+03 0.  0.
<mgrwt>
<rscale>  0 0.41811440E+03</rscale>
<asrwt>0</asrwt>
<pdfrwt beam="1">  1        2 0.10829887E+00 0.41811440E+03</pdfrwt>
<pdfrwt beam="2">  1       -2 0.82358851E-02 0.41811440E+03</pdfrwt>
<totfact> 0.37883016E+03</totfact>
</mgrwt>
</event>
<event>
 4    1  0.5531008E-005  0.4554227E+03  0.7818608E-02  0.1026117E+00
         -2   -1    0    0    0  501 -0.00000000000E+00  0.00000000000E+00  0.23572798363E+02  0.23572798501E+02  0.25500000000E-02 0. -1.
          2   -1    0    0  501    0  0.00000000000E+00 -0.00000000000E+00 -0.21996731850E+04  0.21996731850E+04  0.25500000000E-02 0.  1.
    5000001    1    1    2    0    0  0.10932129813E+03 -0.10940966222E+03 -0.12177453033E+04  0.12385678197E+04  0.16500000000E+03 0.  0.
   -5000001    1    1    2    0    0 -0.10932129813E+03  0.10940966222E+03 -0.95835508334E+03  0.98467816376E+03  0.16500000000E+03 0.  0.
<mgrwt>
<rscale>  0 0.45542267E+03</rscale>
<asrwt>0</asrwt>
<pdfrwt beam="1">  1        2 0.31423890E+00 0.45542267E+03</pdfrwt>
<pdfrwt beam="2">  1       -2 0.33675440E-02 0.45542267E+03</pdfrwt>
<totfact> 0.24909882E+03</totfact>
</mgrwt>
</event>
<event>
 4    1  0.5531008E-005  0.4130015E+03  0.7818608E-02  0.1039368E+00
         -2   -1    0    0    0  501 -0.00000000000E+00  0.00000000000E+00  0.16351594832E+03  0.16351594834E+03  0.25500000000E-02 0. -1.
          2   -1    0    0  501    0  0.00000000000E+00 -0.00000000000E+00 -0.26078535473E+03  0.26078535474E+03  0.25500000000E-02 0.  1.
    5000001    1    1    2    0    0  0.91906747987E-01 -0.11483030470E+03 -0.97166540190E+02  0.22327638446E+03  0.16500000000E+03 0.  0.
   -5000001    1    1    2    0    0 -0.91906747987E-01  0.11483030470E+03 -0.10286622282E+00  0.20102491862E+03  0.16500000000E+03 0.  0.
<mgrwt>
<rscale>  0 0.41300152E+03</rscale>
<asrwt>0</asrwt>
<pdfrwt beam="1">  1        2 0.37255051E-01 0.41300152E+03</pdfrwt>
<pdfrwt beam="2">  1       -2 0.23359421E-01 0.41300152E+03</pdfrwt>
<totfact> 0.22315081E+03</totfact>
</mgrwt>
</event>
<event>
 4    1  0.5531008E-005  0.5751771E+03  0.7818608E-02  0.9958287E-01
         -2   -1    0    0    0  501 -0.00000000000E+00  0.00000000000E+00  0.34037071460E+02  0.34037071555E+02  0.25500000000E-02 0. -1.
          2   -1    0    0  501    0  0.00000000000E+00 -0.00000000000E+00 -0.24299148031E+04  0.24299148031E+04  0.25500000000E-02 0.  1.
    5000001    1    1    2    0    0 -0.12769642977E+03 -0.19715384619E+03 -0.11229823202E+04  0.11590902936E+04  0.16500000000E+03 0.  0.
   -5000001    1    1    2    0    0  0.12769642977E+03  0.19715384619E+03 -0.12728954114E+04  0.13048615811E+04  0.16500000000E+03 0.  0.
<mgrwt>
<rscale>  0 0.57517713E+03</rscale>
<asrwt>0</asrwt>
<pdfrwt beam="1">  1        2 0.34713058E+00 0.57517713E+03</pdfrwt>
<pdfrwt beam="2">  1       -2 0.48624403E-02 0.57517713E+03</pdfrwt>
<totfact> 0.10788886E+03</totfact>
</mgrwt>
</event>
<event>
 4    1  0.5531008E-005  0.6027880E+03  0.7818608E-02  0.9899639E-01
          2   -1    0    0  501    0  0.00000000000E+00  0.00000000000E+00  0.21156786798E+03  0.21156786799E+03  0.25500000000E-02 0.  1.
         -2   -1    0    0    0  501 -0.00000000000E+00 -0.00000000000E+00 -0.42935799836E+03  0.42935799837E+03  0.25500000000E-02 0. -1.
    5000001    1    1    2    0    0  0.18485327026E+01  0.24150570896E+03 -0.31598025288E+02  0.29419697438E+03  0.16500000000E+03 0.  0.
   -5000001    1    1    2    0    0 -0.18485327026E+01 -0.24150570896E+03 -0.18619210510E+03  0.34672889198E+03  0.16500000000E+03 0.  0.
<mgrwt>
<rscale>  0 0.60278804E+03</rscale>
<asrwt>0</asrwt>
<pdfrwt beam="1">  1        2 0.30223981E-01 0.60278804E+03</pdfrwt>
<pdfrwt beam="2">  1       -2 0.61336856E-01 0.60278804E+03</pdfrwt>
<totfact> 0.44004077E+02</totfact>
</mgrwt>
</event>
<event>
 4    1  0.5531008E-005  0.6117305E+03  0.7818608E-02  0.9881363E-01
         -2   -1    0    0    0  501 -0.00000000000E+00  0.00000000000E+00  0.13681844633E+03  0.13681844635E+03  0.25500000000E-02 0. -1.
          2   -1    0    0  501    0  0.00000000000E+00 -0.00000000000E+00 -0.68377882324E+03  0.68377882325E+03  0.25500000000E-02 0.  1.
    5000001    1    1    2    0    0  0.65838715626E+02 -0.24866114485E+03 -0.29052512587E+03  0.42165975643E+03  0.16500000000E+03 0.  0.
   -5000001    1    1    2    0    0 -0.65838715626E+02  0.24866114485E+03 -0.25643525104E+03  0.39893751317E+03  0.16500000000E+03 0.  0.
<mgrwt>
<rscale>  0 0.61173052E+03</rscale>
<asrwt>0</asrwt>
<pdfrwt beam="1">  1        2 0.97682687E-01 0.61173052E+03</pdfrwt>
<pdfrwt beam="2">  1       -2 0.19545493E-01 0.61173052E+03</pdfrwt>
<totfact> 0.10315184E+03</totfact>
</mgrwt>
</event>
<event>
 4    1  0.5531008E-005  0.4536838E+03  0.7818608E-02  0.1026629E+00
          2   -1    0    0  501    0  0.00000000000E+00  0.00000000000E+00  0.27735168726E+03  0.27735168727E+03  0.25500000000E-02 0.  1.
         -2   -1    0    0    0  501 -0.00000000000E+00 -0.00000000000E+00 -0.18553065347E+03  0.18553065349E+03  0.25500000000E-02 0. -1.
    5000001    1    1    2    0    0  0.10866107349E+03 -0.10611423516E+03  0.11089670436E+02  0.22453382949E+03  0.16500000000E+03 0.  0.
   -5000001    1    1    2    0    0 -0.10866107349E+03  0.10611423516E+03  0.80731363353E+02  0.23834851127E+03  0.16500000000E+03 0.  0.
<mgrwt>
<rscale>  0 0.45368377E+03</rscale>
<asrwt>0</asrwt>
<pdfrwt beam="1">  1        2 0.39621670E-01 0.45368377E+03</pdfrwt>
<pdfrwt beam="2">  1       -2 0.26504379E-01 0.45368377E+03</pdfrwt>
<totfact> 0.16669947E+03</totfact>
</mgrwt>
</event>
<event>
 4    1  0.5531008E-005  0.4022943E+03  0.7818608E-02  0.1042988E+00
          2   -1    0    0  501    0  0.00000000000E+00  0.00000000000E+00  0.15830710126E+04  0.15830710126E+04  0.25500000000E-02 0.  1.
         -2   -1    0    0    0  501 -0.00000000000E+00 -0.00000000000E+00 -0.25558028653E+02  0.25558028781E+02  0.25500000000E-02 0. -1.
    5000001    1    1    2    0    0  0.95729203104E+02  0.50239110861E+02  0.62147600299E+03  0.65203180205E+03  0.16500000000E+03 0.  0.
   -5000001    1    1    2    0    0 -0.95729203104E+02 -0.50239110861E+02  0.93603698093E+03  0.95659723931E+03  0.16500000000E+03 0.  0.
<mgrwt>
<rscale>  0 0.40229429E+03</rscale>
<asrwt>0</asrwt>
<pdfrwt beam="1">  1        2 0.22615301E+00 0.40229429E+03</pdfrwt>
<pdfrwt beam="2">  1       -2 0.36511469E-02 0.40229429E+03</pdfrwt>
<totfact> 0.44797339E+03</totfact>
</mgrwt>
</event>
<event>
 4    1  0.5531008E-005  0.6112289E+03  0.7818608E-02  0.9882380E-01
         -2   -1    0    0    0  501 -0.00000000000E+00  0.00000000000E+00  0.13010811889E+03  0.13010811892E+03  0.25500000000E-02 0. -1.
          2   -1    0    0  501    0  0.00000000000E+00 -0.00000000000E+00 -0.71786609122E+03  0.71786609122E+03  0.25500000000E-02 0.  1.
    5000001    1    1    2    0    0  0.19429051429E+03  0.11685634265E+03 -0.46248911072E+03  0.54085616045E+03  0.16500000000E+03 0.  0.
   -5000001    1    1    2    0    0 -0.19429051429E+03 -0.11685634265E+03 -0.12526886161E+03  0.30711804969E+03  0.16500000000E+03 0.  0.
<mgrwt>
<rscale>  0 0.61122895E+03</rscale>
<asrwt>0</asrwt>
<pdfrwt beam="1">  1        2 0.10255230E+00 0.61122895E+03</pdfrwt>
<pdfrwt beam="2">  1       -2 0.18586874E-01 0.61122895E+03</pdfrwt>
<totfact> 0.10602777E+03</totfact>
</mgrwt>
</event>
<event>
 4    1  0.5531008E-005  0.7744616E+03  0.7818608E-02  0.9597737E-01
          2   -1    0    0  501    0  0.00000000000E+00  0.00000000000E+00  0.24215900328E+04  0.24215900328E+04  0.25500000000E-02 0.  1.
         -2   -1    0    0    0  501 -0.00000000000E+00 -0.00000000000E+00 -0.61921169067E+02  0.61921169119E+02  0.25500000000E-02 0. -1.
    5000001    1    1    2    0    0 -0.20469189687E+03 -0.32614939281E+02  0.27418670038E+03  0.38126874194E+03  0.16500000000E+03 0.  0.
   -5000001    1    1    2    0    0  0.20469189687E+03  0.32614939281E+02  0.20854821633E+04  0.21022424599E+04  0.16500000000E+03 0.  0.
<mgrwt>
<rscale>  0 0.77446158E+03</rscale>
<asrwt>0</asrwt>
<pdfrwt beam="1">  1        2 0.34594140E+00 0.77446158E+03</pdfrwt>
<pdfrwt beam="2">  1       -2 0.88458820E-02 0.77446158E+03</pdfrwt>
<totfact> 0.41745070E+02</totfact>
</mgrwt>
</event>
<event>
 4    1  0.5531008E-005  0.8250100E+03  0.7818608E-02  0.9524505E-01
          2   -1    0    0  501    0  0.00000000000E+00  0.00000000000E+00  0.44051377310E+03  0.44051377311E+03  0.25500000000E-02 0.  1.
         -2   -1    0    0    0  501 -0.00000000000E+00 -0.00000000000E+00 -0.38627705307E+03  0.38627705308E+03  0.25500000000E-02 0. -1.
    5000001    1    1    2    0    0  0.25321295470E+03 -0.21041210481E+03  0.21338324411E+03  0.42561421868E+03  0.16500000000E+03 0.  0.
   -5000001    1    1    2    0    0 -0.25321295470E+03  0.21041210481E+03 -0.15914652408E+03  0.40117660750E+03  0.16500000000E+03 0.  0.
<mgrwt>
<rscale>  0 0.82500997E+03</rscale>
<asrwt>0</asrwt>
<pdfrwt beam="1">  1        2 0.62930539E-01 0.82500997E+03</pdfrwt>
<pdfrwt beam="2">  1       -2 0.55182436E-01 0.82500997E+03</pdfrwt>
<totfact> 0.24095337E+02</totfact>
</mgrwt>
</event>
<event>
 4    1  0.5531008E-005  0.1172306E+04  0.7818608E-02  0.9137449E-01
         -2   -1    0    0    0  501 -0.00000000000E+00  0.00000000000E+00  0.21229303570E+03  0.21229303571E+03  0.25500000000E-02 0. -1.
          2   -1    0    0  501    0  0.00000000000E+00 -0.00000000000E+00 -0.16184004468E+04  0.16184004468E+04  0.25500000000E-02 0.  1.
    5000001    1    1    2    0    0 -0.11675180459E+03  0.52812580779E+03 -0.46212743806E+03  0.73029762545E+03  0.16500000000E+03 0.  0.
   -5000001    1    1    2    0    0  0.11675180459E+03 -0.52812580779E+03 -0.94397997300E+03  0.11003958570E+04  0.16500000000E+03 0.  0.
<mgrwt>
<rscale>  0 0.11723057E+04</rscale>
<asrwt>0</asrwt>
<pdfrwt beam="1">  1        2 0.23120006E+00 0.11723057E+04</pdfrwt>
<pdfrwt beam="2">  1       -2 0.30327577E-01 0.11723057E+04</pdfrwt>
<totfact> 0.12557302E+02</totfact>
</mgrwt>
</event>
<event>
 4    1  0.5531008E-005  0.5818018E+03  0.7818608E-02  0.9943898E-01
         -2   -1    0    0    0  501 -0.00000000000E+00  0.00000000000E+00  0.55806731874E+03  0.55806731875E+03  0.25500000000E-02 0. -1.
          2   -1    0    0  501    0  0.00000000000E+00 -0.00000000000E+00 -0.15163640673E+03  0.15163640675E+03  0.25500000000E-02 0.  1.
    5000001    1    1    2    0    0  0.48974535735E+00  0.21142223293E+03  0.34067726927E+03  0.43357306446E+03  0.16500000000E+03 0.  0.
   -5000001    1    1    2    0    0 -0.48974535735E+00 -0.21142223293E+03  0.65753642748E+02  0.27613066103E+03  0.16500000000E+03 0.  0.
<mgrwt>
<rscale>  0 0.58180176E+03</rscale>
<asrwt>0</asrwt>
<pdfrwt beam="1">  1        2 0.21662343E-01 0.58180176E+03</pdfrwt>
<pdfrwt beam="2">  1       -2 0.79723904E-01 0.58180176E+03</pdfrwt>
<totfact> 0.36412265E+02</totfact>
</mgrwt>
</event>
<event>
 4    1  0.5531008E-005  0.3699917E+03  0.7818608E-02  0.1054696E+00
         -2   -1    0    0    0  501 -0.00000000000E+00  0.00000000000E+00  0.52008541905E+02  0.52008541968E+02  0.25500000000E-02 0. -1.
          2   -1    0    0  501    0  0.00000000000E+00 -0.00000000000E+00 -0.65803547194E+03  0.65803547195E+03  0.25500000000E-02 0.  1.
    5000001    1    1    2    0    0  0.40205066323E+02  0.66606201559E+02 -0.36202737127E+03  0.40539073866E+03  0.16500000000E+03 0.  0.
   -5000001    1    1    2    0    0 -0.40205066323E+02 -0.66606201559E+02 -0.24399955877E+03  0.30465327526E+03  0.16500000000E+03 0.  0.
<mgrwt>
<rscale>  0 0.36999170E+03</rscale>
<asrwt>0</asrwt>
<pdfrwt beam="1">  1        2 0.94005063E-01 0.36999170E+03</pdfrwt>
<pdfrwt beam="2">  1       -2 0.74297921E-02 0.36999170E+03</pdfrwt>
<totfact> 0.52750859E+03</totfact>
</mgrwt>
</event>
<event>
 4    1  0.5531008E-005  0.3955167E+03  0.7818608E-02  0.1045343E+00
         -2   -1    0    0    0  501 -0.00000000000E+00  0.00000000000E+00  0.53955968358E+02  0.53955968418E+02  0.25500000000E-02 0. -1.
          2   -1    0    0  501    0  0.00000000000E+00 -0.00000000000E+00 -0.72481982703E+03  0.72481982704E+03  0.25500000000E-02 0.  1.
    5000001    1    1    2    0    0  0.15991981584E+02 -0.51953345735E+02 -0.52148463935E+03  0.54966000644E+03  0.16500000000E+03 0.  0.
   -5000001    1    1    2    0    0 -0.15991981584E+02  0.51953345735E+02 -0.14937921933E+03  0.22911578901E+03  0.16500000000E+03 0.  0.
<mgrwt>
<rscale>  0 0.39551665E+03</rscale>
<asrwt>0</asrwt>
<pdfrwt beam="1">  1        2 0.10354568E+00 0.39551665E+03</pdfrwt>
<pdfrwt beam="2">  1       -2 0.77079959E-02 0.39551665E+03</pdfrwt>
<totfact> 0.44402067E+03</totfact>
</mgrwt>
</event>
<event>
 4    1  0.5531008E-005  0.6243609E+03  0.7818608E-02  0.9856115E-01
          2   -1    0    0  501    0  0.00000000000E+00  0.00000000000E+00  0.19540973177E+03  0.19540973178E+03  0.25500000000E-02 0.  1.
         -2   -1    0    0    0  501 -0.00000000000E+00 -0.00000000000E+00 -0.49872962939E+03  0.49872962939E+03  0.25500000000E-02 0. -1.
    5000001    1    1    2    0    0 -0.11908106160E+03 -0.80838115598E+02  0.95732287871E+02  0.23896604593E+03  0.16500000000E+03 0.  0.
   -5000001    1    1    2    0    0  0.11908106160E+03  0.80838115598E+02 -0.39905218549E+03  0.45517331525E+03  0.16500000000E+03 0.  0.
<mgrwt>
<rscale>  0 0.62436087E+03</rscale>
<asrwt>0</asrwt>
<pdfrwt beam="1">  1        2 0.27915676E-01 0.62436087E+03</pdfrwt>
<pdfrwt beam="2">  1       -2 0.71247089E-01 0.62436087E+03</pdfrwt>
<totfact> 0.34875923E+02</totfact>
</mgrwt>
</event>
<event>
 4    1  0.5531008E-005  0.6395273E+03  0.7818608E-02  0.9826631E-01
          2   -1    0    0  501    0  0.00000000000E+00  0.00000000000E+00  0.21850247661E+04  0.21850247661E+04  0.25500000000E-02 0.  1.
         -2   -1    0    0    0  501 -0.00000000000E+00 -0.00000000000E+00 -0.46795259902E+02  0.46795259972E+02  0.25500000000E-02 0. -1.
    5000001    1    1    2    0    0  0.45880901341E+02 -0.25981762183E+03  0.13258828510E+04  0.13619106389E+04  0.16500000000E+03 0.  0.
   -5000001    1    1    2    0    0 -0.45880901341E+02  0.25981762183E+03  0.81234665522E+03  0.86990938722E+03  0.16500000000E+03 0.  0.
<mgrwt>
<rscale>  0 0.63952733E+03</rscale>
<asrwt>0</asrwt>
<pdfrwt beam="1">  1        2 0.31214644E+00 0.63952733E+03</pdfrwt>
<pdfrwt beam="2">  1       -2 0.66850362E-02 0.63952733E+03</pdfrwt>
<totfact> 0.86936292E+02</totfact>
</mgrwt>
</event>
<event>
 4    1  0.5531008E-005  0.4949708E+03  0.7818608E-02  0.1015100E+00
         -2   -1    0    0    0  501 -0.00000000000E+00  0.00000000000E+00  0.11206594589E+03  0.11206594592E+03  0.25500000000E-02 0. -1.
          2   -1    0    0  501    0  0.00000000000E+00 -0.00000000000E+00 -0.54654449879E+03  0.54654449880E+03  0.25500000000E-02 0.  1.
    5000001    1    1    2    0    0  0.12290232413E+03 -0.31798983077E+02 -0.39530116940E+03  0.44677082618E+03  0.16500000000E+03 0.  0.
   -5000001    1    1    2    0    0 -0.12290232413E+03  0.31798983077E+02 -0.39177383505E+02  0.21183961853E+03  0.16500000000E+03 0.  0.
<mgrwt>
<rscale>  0 0.49497081E+03</rscale>
<asrwt>0</asrwt>
<pdfrwt beam="1">  1        2 0.78077784E-01 0.49497081E+03</pdfrwt>
<pdfrwt beam="2">  1       -2 0.16009421E-01 0.49497081E+03</pdfrwt>
<totfact> 0.18916278E+03</totfact>
</mgrwt>
</event>
<event>
 4    1  0.5531008E-005  0.4789643E+03  0.7818608E-02  0.1019420E+00
          2   -1    0    0  501    0  0.00000000000E+00  0.00000000000E+00  0.59797009153E+03  0.59797009153E+03  0.25500000000E-02 0.  1.
         -2   -1    0    0    0  501 -0.00000000000E+00 -0.00000000000E+00 -0.95910662093E+02  0.95910662127E+02  0.25500000000E-02 0. -1.
    5000001    1    1    2    0    0  0.84555976406E+02 -0.26067429641E+02  0.46735615025E+03  0.50346399594E+03  0.16500000000E+03 0.  0.
   -5000001    1    1    2    0    0 -0.84555976406E+02  0.26067429641E+02  0.34703279188E+02  0.19041675772E+03  0.16500000000E+03 0.  0.
<mgrwt>
<rscale>  0 0.47896433E+03</rscale>
<asrwt>0</asrwt>
<pdfrwt beam="1">  1        2 0.85424301E-01 0.47896433E+03</pdfrwt>
<pdfrwt beam="2">  1       -2 0.13701523E-01 0.47896433E+03</pdfrwt>
<totfact> 0.22116539E+03</totfact>
</mgrwt>
</event>
<event>
 4    1  0.5531008E-005  0.4504212E+03  0.7818608E-02  0.1027597E+00
          2   -1    0    0  501    0  0.00000000000E+00  0.00000000000E+00  0.52875502787E+03  0.52875502787E+03  0.25500000000E-02 0.  1.
         -2   -1    0    0    0  501 -0.00000000000E+00 -0.00000000000E+00 -0.95923071377E+02  0.95923071411E+02  0.25500000000E-02 0. -1.
    5000001    1    1    2    0    0  0.26949770978E+01 -0.14699783935E+03  0.15629562520E+03  0.27068237869E+03  0.16500000000E+03 0.  0.
   -5000001    1    1    2    0    0 -0.26949770978E+01  0.14699783935E+03  0.27653633129E+03  0.35399572060E+03  0.16500000000E+03 0.  0.
<mgrwt>
<rscale>  0 0.45042116E+03</rscale>
<asrwt>0</asrwt>
<pdfrwt beam="1">  1        2 0.75536431E-01 0.45042116E+03</pdfrwt>
<pdfrwt beam="2">  1       -2 0.13703296E-01 0.45042116E+03</pdfrwt>
<totfact> 0.25462047E+03</totfact>
</mgrwt>
</event>
<event>
 4    1  0.5531008E-005  0.4605569E+03  0.7818608E-02  0.1024620E+00
          2   -1    0    0  501    0  0.00000000000E+00  0.00000000000E+00  0.77959345252E+02  0.77959345293E+02  0.25500000000E-02 0.  1.
         -2   -1    0    0    0  501 -0.00000000000E+00 -0.00000000000E+00 -0.68020268752E+03  0.68020268753E+03  0.25500000000E-02 0. -1.
    5000001    1    1    2    0    0  0.66680838496E+02 -0.12891748749E+03 -0.41442305231E+03  0.46908156976E+03  0.16500000000E+03 0.  0.
   -5000001    1    1    2    0    0 -0.66680838496E+02  0.12891748749E+03 -0.18782028996E+03  0.28908046306E+03  0.16500000000E+03 0.  0.
<mgrwt>
<rscale>  0 0.46055686E+03</rscale>
<asrwt>0</asrwt>
<pdfrwt beam="1">  1        2 0.11137050E-01 0.46055686E+03</pdfrwt>
<pdfrwt beam="2">  1       -2 0.97171809E-01 0.46055686E+03</pdfrwt>
<totfact> 0.51686150E+02</totfact>
</mgrwt>
</event>
<event>
 4    1  0.5531008E-005  0.5042811E+03  0.7818608E-02  0.1012667E+00
         -2   -1    0    0    0  501 -0.00000000000E+00  0.00000000000E+00  0.16678781271E+02  0.16678781466E+02  0.25500000000E-02 0. -1.
          2   -1    0    0  501    0  0.00000000000E+00 -0.00000000000E+00 -0.38117201762E+04  0.38117201762E+04  0.25500000000E-02 0.  1.
    5000001    1    1    2    0    0 -0.96684008371E+02 -0.89009850820E+02 -0.84888241549E+03  0.87469818015E+03  0.16500000000E+03 0.  0.
   -5000001    1    1    2    0    0  0.96684008371E+02  0.89009850820E+02 -0.29461589794E+04  0.29537007775E+04  0.16500000000E+03 0.  0.
<mgrwt>
<rscale>  0 0.50428106E+03</rscale>
<asrwt>0</asrwt>
<pdfrwt beam="1">  1        2 0.54453089E+00 0.50428106E+03</pdfrwt>
<pdfrwt beam="2">  1       -2 0.23826855E-02 0.50428106E+03</pdfrwt>
<totfact> 0.54485379E+02</totfact>
</mgrwt>
</event>
<event>
 4    1  0.5531008E-005  0.3662621E+03  0.7818608E-02  0.1056131E+00
         -2   -1    0    0    0  501 -0.00000000000E+00  0.00000000000E+00  0.16989497578E+02  0.16989497769E+02  0.25500000000E-02 0. -1.
          2   -1    0    0  501    0  0.00000000000E+00 -0.00000000000E+00 -0.19739832797E+04  0.19739832797E+04  0.25500000000E-02 0.  1.
    5000001    1    1    2    0    0  0.40409955492E+02 -0.48776102609E+02 -0.71780417369E+03  0.73924279127E+03  0.16500000000E+03 0.  0.
   -5000001    1    1    2    0    0 -0.40409955492E+02  0.48776102609E+02 -0.12391896084E+04  0.12517299862E+04  0.16500000000E+03 0.  0.
<mgrwt>
<rscale>  0 0.36626212E+03</rscale>
<asrwt>0</asrwt>
<pdfrwt beam="1">  1        2 0.28199747E+00 0.36626212E+03</pdfrwt>
<pdfrwt beam="2">  1       -2 0.24270723E-02 0.36626212E+03</pdfrwt>
<totfact> 0.52849168E+03</totfact>
</mgrwt>
</event>
<event>
 4    1  0.5531008E-005  0.5380516E+03  0.7818608E-02  0.1004298E+00
         -2   -1    0    0    0  501 -0.00000000000E+00  0.00000000000E+00  0.20359352372E+03  0.20359352374E+03  0.25500000000E-02 0. -1.
          2   -1    0    0  501    0  0.00000000000E+00 -0.00000000000E+00 -0.35548708516E+03  0.35548708516E+03  0.25500000000E-02 0.  1.
    5000001    1    1    2    0    0 -0.15286383046E+03  0.79082187281E+02  0.53537082288E+02  0.24436153991E+03  0.16500000000E+03 0.  0.
   -5000001    1    1    2    0    0  0.15286383046E+03 -0.79082187281E+02 -0.20543064372E+03  0.31471906899E+03  0.16500000000E+03 0.  0.
<mgrwt>
<rscale>  0 0.53805155E+03</rscale>
<asrwt>0</asrwt>
<pdfrwt beam="1">  1        2 0.50783869E-01 0.53805155E+03</pdfrwt>
<pdfrwt beam="2">  1       -2 0.29084789E-01 0.53805155E+03</pdfrwt>
<totfact> 0.10728298E+03</totfact>
</mgrwt>
</event>
<event>
 4    1  0.5531008E-005  0.5397040E+03  0.7818608E-02  0.1003906E+00
         -2   -1    0    0    0  501 -0.00000000000E+00  0.00000000000E+00  0.14508421338E+03  0.14508421340E+03  0.25500000000E-02 0. -1.
          2   -1    0    0  501    0  0.00000000000E+00 -0.00000000000E+00 -0.50191613753E+03  0.50191613754E+03  0.25500000000E-02 0.  1.
    5000001    1    1    2    0    0  0.19724084948E+03  0.63462664097E+02 -0.11654497011E+03  0.28937724944E+03  0.16500000000E+03 0.  0.
   -5000001    1    1    2    0    0 -0.19724084948E+03 -0.63462664097E+02 -0.24028695404E+03  0.35762310149E+03  0.16500000000E+03 0.  0.
<mgrwt>
<rscale>  0 0.53970402E+03</rscale>
<asrwt>0</asrwt>
<pdfrwt beam="1">  1        2 0.71702305E-01 0.53970402E+03</pdfrwt>
<pdfrwt beam="2">  1       -2 0.20726316E-01 0.53970402E+03</pdfrwt>
<totfact> 0.13386038E+03</totfact>
</mgrwt>
</event>
<event>
 4    1  0.5531008E-005  0.4221373E+03  0.7818608E-02  0.1036373E+00
          2   -1    0    0  501    0  0.00000000000E+00  0.00000000000E+00  0.12770375390E+04  0.12770375390E+04  0.25500000000E-02 0.  1.
         -2   -1    0    0    0  501 -0.00000000000E+00 -0.00000000000E+00 -0.34885408286E+02  0.34885408379E+02  0.25500000000E-02 0. -1.
    5000001    1    1    2    0    0  0.77227176179E+02 -0.94732365517E+02  0.46924691307E+03  0.51220691448E+03  0.16500000000E+03 0.  0.
   -5000001    1    1    2    0    0 -0.77227176179E+02  0.94732365517E+02  0.77290521764E+03  0.79971603290E+03  0.16500000000E+03 0.  0.
<mgrwt>
<rscale>  0 0.42213730E+03</rscale>
<asrwt>0</asrwt>
<pdfrwt beam="1">  1        2 0.18243395E+00 0.42213730E+03</pdfrwt>
<pdfrwt beam="2">  1       -2 0.49836293E-02 0.42213730E+03</pdfrwt>
<totfact> 0.40238297E+03</totfact>
</mgrwt>
</event>
<event>
 4    1  0.5531008E-005  0.4912002E+03  0.7818608E-02  0.1016102E+00
          2   -1    0    0  501    0  0.00000000000E+00  0.00000000000E+00  0.24667764133E+04  0.24667764133E+04  0.25500000000E-02 0.  1.
         -2   -1    0    0    0  501 -0.00000000000E+00 -0.00000000000E+00 -0.24452725796E+02  0.24452725929E+02  0.25500000000E-02 0. -1.
    5000001    1    1    2    0    0 -0.38755135038E+02  0.15904924765E+03  0.81874138964E+03  0.85109405284E+03  0.16500000000E+03 0.  0.
   -5000001    1    1    2    0    0  0.38755135038E+02 -0.15904924765E+03  0.16235822979E+04  0.16401350864E+04  0.16500000000E+03 0.  0.
<mgrwt>
<rscale>  0 0.49120019E+03</rscale>
<asrwt>0</asrwt>
<pdfrwt beam="1">  1        2 0.35239658E+00 0.49120019E+03</pdfrwt>
<pdfrwt beam="2">  1       -2 0.34932470E-02 0.49120019E+03</pdfrwt>
<totfact> 0.17256933E+03</totfact>
</mgrwt>
</event>
<event>
 4    1  0.5531008E-005  0.6292050E+03  0.7818608E-02  0.9846601E-01
         -2   -1    0    0    0  501 -0.00000000000E+00  0.00000000000E+00  0.33475947110E+03  0.33475947111E+03  0.25500000000E-02 0. -1.
          2   -1    0    0  501    0  0.00000000000E+00 -0.00000000000E+00 -0.29565921868E+03  0.29565921870E+03  0.25500000000E-02 0.  1.
    5000001    1    1    2    0    0 -0.21936554149E+03 -0.32355161678E+02 -0.13101158580E+03  0.30587110503E+03  0.16500000000E+03 0.  0.
   -5000001    1    1    2    0    0  0.21936554149E+03  0.32355161678E+02  0.17011183822E+03  0.32454758477E+03  0.16500000000E+03 0.  0.
<mgrwt>
<rscale>  0 0.62920497E+03</rscale>
<asrwt>0</asrwt>
<pdfrwt beam="1">  1        2 0.42237031E-01 0.62920497E+03</pdfrwt>
<pdfrwt beam="2">  1       -2 0.47822782E-01 0.62920497E+03</pdfrwt>
<totfact> 0.50606719E+02</totfact>
</mgrwt>
</event>
<event>
 4    1  0.5531008E-005  0.4940597E+03  0.7818608E-02  0.1015341E+00
         -2   -1    0    0    0  501 -0.00000000000E+00  0.00000000000E+00  0.72748694047E+02  0.72748694092E+02  0.25500000000E-02 0. -1.
          2   -1    0    0  501    0  0.00000000000E+00 -0.00000000000E+00 -0.83882941139E+03  0.83882941139E+03  0.25500000000E-02 0.  1.
    5000001    1    1    2    0    0 -0.16919177239E+03  0.44747088652E+02 -0.48693287459E+03  0.54309923784E+03  0.16500000000E+03 0.  0.
   -5000001    1    1    2    0    0  0.16919177239E+03 -0.44747088652E+02 -0.27914784275E+03  0.36847886764E+03  0.16500000000E+03 0.  0.
<mgrwt>
<rscale>  0 0.49405969E+03</rscale>
<asrwt>0</asrwt>
<pdfrwt beam="1">  1        2 0.11983277E+00 0.49405969E+03</pdfrwt>
<pdfrwt beam="2">  1       -2 0.10392671E-01 0.49405969E+03</pdfrwt>
<totfact> 0.23003263E+03</totfact>
</mgrwt>
</event>
<event>
 4    1  0.5531008E-005  0.4818811E+03  0.7818608E-02  0.1018619E+00
          2   -1    0    0  501    0  0.00000000000E+00  0.00000000000E+00  0.31748400598E+02  0.31748400700E+02  0.25500000000E-02 0.  1.
         -2   -1    0    0    0  501 -0.00000000000E+00 -0.00000000000E+00 -0.18285126639E+04  0.18285126639E+04  0.25500000000E-02 0. -1.
    5000001    1    1    2    0    0  0.14494171505E+03  0.46921891995E+01 -0.51627446064E+03  0.56106544726E+03  0.16500000000E+03 0.  0.
   -5000001    1    1    2    0    0 -0.14494171505E+03 -0.46921891995E+01 -0.12804898027E+04  0.12991956174E+04  0.16500000000E+03 0.  0.
<mgrwt>
<rscale>  0 0.48188112E+03</rscale>
<asrwt>0</asrwt>
<pdfrwt beam="1">  1        2 0.45354869E-02 0.48188112E+03</pdfrwt>
<pdfrwt beam="2">  1       -2 0.26121603E+00 0.48188112E+03</pdfrwt>
<totfact> 0.10872991E+02</totfact>
</mgrwt>
</event>
<event>
 4    1  0.5531008E-005  0.4766489E+03  0.7818608E-02  0.1020060E+00
         -2   -1    0    0    0  501 -0.00000000000E+00  0.00000000000E+00  0.86958463649E+02  0.86958463687E+02  0.25500000000E-02 0. -1.
          2   -1    0    0  501    0  0.00000000000E+00 -0.00000000000E+00 -0.65316869056E+03  0.65316869056E+03  0.25500000000E-02 0.  1.
    5000001    1    1    2    0    0 -0.92832765769E+02  0.10459783491E+03 -0.12771213259E+03  0.25118522703E+03  0.16500000000E+03 0.  0.
   -5000001    1    1    2    0    0  0.92832765769E+02 -0.10459783491E+03 -0.43849809432E+03  0.48894192722E+03  0.16500000000E+03 0.  0.
<mgrwt>
<rscale>  0 0.47664891E+03</rscale>
<asrwt>0</asrwt>
<pdfrwt beam="1">  1        2 0.93309810E-01 0.47664891E+03</pdfrwt>
<pdfrwt beam="2">  1       -2 0.12422638E-01 0.47664891E+03</pdfrwt>
<totfact> 0.23430495E+03</totfact>
</mgrwt>
</event>
<event>
 4    1  0.5531008E-005  0.6461986E+03  0.7818608E-02  0.9813938E-01
         -2   -1    0    0    0  501 -0.00000000000E+00  0.00000000000E+00  0.21469956492E+03  0.21469956494E+03  0.25500000000E-02 0. -1.
          2   -1    0    0  501    0  0.00000000000E+00 -0.00000000000E+00 -0.48622906281E+03  0.48622906281E+03  0.25500000000E-02 0.  1.
    5000001    1    1    2    0    0 -0.16051397298E+03 -0.22181478462E+03 -0.84869138269E+02  0.33074809875E+03  0.16500000000E+03 0.  0.
   -5000001    1    1    2    0    0  0.16051397298E+03  0.22181478462E+03 -0.18666035962E+03  0.37018052900E+03  0.16500000000E+03 0.  0.
<mgrwt>
<rscale>  0 0.64619863E+03</rscale>
<asrwt>0</asrwt>
<pdfrwt beam="1">  1        2 0.69461295E-01 0.64619863E+03</pdfrwt>
<pdfrwt beam="2">  1       -2 0.30671366E-01 0.64619863E+03</pdfrwt>
<totfact> 0.68495187E+02</totfact>
</mgrwt>
</event>
<event>
 4    1  0.5531008E-005  0.3876519E+03  0.7818608E-02  0.1048141E+00
         -2   -1    0    0    0  501 -0.00000000000E+00  0.00000000000E+00  0.28109649362E+03  0.28109649364E+03  0.25500000000E-02 0.  1.
          2   -1    0    0  501    0  0.00000000000E+00 -0.00000000000E+00 -0.13364985053E+03  0.13364985056E+03  0.25500000000E-02 0. -1.
    5000001    1    1    2    0    0 -0.70119076693E+02 -0.70918724965E+02  0.52396341778E+02  0.19979120876E+03  0.16500000000E+03 0.  0.
   -5000001    1    1    2    0    0  0.70119076693E+02  0.70918724965E+02  0.95050301315E+02  0.21495513543E+03  0.16500000000E+03 0.  0.
<mgrwt>
<rscale>  0 0.38765193E+03</rscale>
<asrwt>0</asrwt>
<pdfrwt beam="1">  1        2 0.19092836E-01 0.38765193E+03</pdfrwt>
<pdfrwt beam="2">  1       -2 0.40156641E-01 0.38765193E+03</pdfrwt>
<totfact> 0.17457676E+03</totfact>
</mgrwt>
</event>
<event>
 4    1  0.5531008E-005  0.3755247E+03  0.7818608E-02  0.1052600E+00
          2   -1    0    0  501    0  0.00000000000E+00  0.00000000000E+00  0.13682005812E+04  0.13682005812E+04  0.25500000000E-02 0.  1.
         -2   -1    0    0    0  501 -0.00000000000E+00 -0.00000000000E+00 -0.25767202664E+02  0.25767202790E+02  0.25500000000E-02 0. -1.
    5000001    1    1    2    0    0 -0.71895522992E+02 -0.47467677919E+02  0.76271372949E+03  0.78509832494E+03  0.16500000000E+03 0.  0.
   -5000001    1    1    2    0    0  0.71895522992E+02  0.47467677919E+02  0.57971964903E+03  0.60886945903E+03  0.16500000000E+03 0.  0.
<mgrwt>
<rscale>  0 0.37552471E+03</rscale>
<asrwt>0</asrwt>
<pdfrwt beam="1">  1        2 0.19545723E+00 0.37552471E+03</pdfrwt>
<pdfrwt beam="2">  1       -2 0.36810288E-02 0.37552471E+03</pdfrwt>
<totfact> 0.57066882E+03</totfact>
</mgrwt>
</event>
<event>
 4    1  0.5531008E-005  0.3601347E+03  0.7818608E-02  0.1058531E+00
          2   -1    0    0  501    0  0.00000000000E+00  0.00000000000E+00  0.92139908487E+02  0.92139908522E+02  0.25500000000E-02 0.  1.
         -2   -1    0    0    0  501 -0.00000000000E+00 -0.00000000000E+00 -0.35190227193E+03  0.35190227194E+03  0.25500000000E-02 0. -1.
    5000001    1    1    2    0    0  0.22159694660E+02 -0.60336273479E+02 -0.89591944146E+02  0.19845209604E+03  0.16500000000E+03 0.  0.
   -5000001    1    1    2    0    0 -0.22159694660E+02  0.60336273479E+02 -0.17017041930E+03  0.24559008443E+03  0.16500000000E+03 0.  0.
<mgrwt>
<rscale>  0 0.36013466E+03</rscale>
<asrwt>0</asrwt>
<pdfrwt beam="1">  1        2 0.13162844E-01 0.36013466E+03</pdfrwt>
<pdfrwt beam="2">  1       -2 0.50271752E-01 0.36013466E+03</pdfrwt>
<totfact> 0.17444498E+03</totfact>
</mgrwt>
</event>
<event>
 4    1  0.5531008E-005  0.5359092E+03  0.7818608E-02  0.1004809E+00
         -2   -1    0    0    0  501 -0.00000000000E+00  0.00000000000E+00  0.29517242483E+03  0.29517242484E+03  0.25500000000E-02 0. -1.
          2   -1    0    0  501    0  0.00000000000E+00 -0.00000000000E+00 -0.24324649472E+03  0.24324649473E+03  0.25500000000E-02 0.  1.
    5000001    1    1    2    0    0  0.51419030150E+01  0.20987014626E+03  0.48489840008E+02  0.27138198548E+03  0.16500000000E+03 0.  0.
   -5000001    1    1    2    0    0 -0.51419030150E+01 -0.20987014626E+03  0.34360901010E+01  0.26703693410E+03  0.16500000000E+03 0.  0.
<mgrwt>
<rscale>  0 0.53590916E+03</rscale>
<asrwt>0</asrwt>
<pdfrwt beam="1">  1        2 0.34749499E-01 0.53590916E+03</pdfrwt>
<pdfrwt beam="2">  1       -2 0.42167489E-01 0.53590916E+03</pdfrwt>
<totfact> 0.80706585E+02</totfact>
</mgrwt>
</event>
<event>
 4    1  0.5531008E-005  0.5954490E+03  0.7818608E-02  0.9914893E-01
          2   -1    0    0  501    0  0.00000000000E+00  0.00000000000E+00  0.10661885832E+04  0.10661885832E+04  0.25500000000E-02 0.  1.
         -2   -1    0    0    0  501 -0.00000000000E+00 -0.00000000000E+00 -0.83137152975E+02  0.83137153014E+02  0.25500000000E-02 0. -1.
    5000001    1    1    2    0    0 -0.79391960612E+02 -0.21141446000E+03  0.29453610408E+03  0.40617197579E+03  0.16500000000E+03 0.  0.
   -5000001    1    1    2    0    0  0.79391960612E+02  0.21141446000E+03  0.68851532617E+03  0.74315376045E+03  0.16500000000E+03 0.  0.
<mgrwt>
<rscale>  0 0.59544902E+03</rscale>
<asrwt>0</asrwt>
<pdfrwt beam="1">  1        2 0.15231264E+00 0.59544902E+03</pdfrwt>
<pdfrwt beam="2">  1       -2 0.11876737E-01 0.59544902E+03</pdfrwt>
<totfact> 0.13324022E+03</totfact>
</mgrwt>
</event>
<event>
 4    1  0.5531008E-005  0.8997186E+03  0.7818608E-02  0.9425933E-01
          2   -1    0    0  501    0  0.00000000000E+00  0.00000000000E+00  0.50346832354E+03  0.50346832354E+03  0.25500000000E-02 0.  1.
         -2   -1    0    0    0  501 -0.00000000000E+00 -0.00000000000E+00 -0.40195856703E+03  0.40195856704E+03  0.25500000000E-02 0. -1.
    5000001    1    1    2    0    0 -0.10949826202E+03  0.13225553881E+03 -0.33333005745E+03  0.40965268720E+03  0.16500000000E+03 0.  0.
   -5000001    1    1    2    0    0  0.10949826202E+03 -0.13225553881E+03  0.43483981396E+03  0.49577420338E+03  0.16500000000E+03 0.  0.
<mgrwt>
<rscale>  0 0.89971864E+03</rscale>
<asrwt>0</asrwt>
<pdfrwt beam="1">  1        2 0.71924046E-01 0.89971864E+03</pdfrwt>
<pdfrwt beam="2">  1       -2 0.57422653E-01 0.89971864E+03</pdfrwt>
<totfact> 0.18989430E+02</totfact>
</mgrwt>
</event>
<event>
 4    1  0.5531008E-005  0.3566166E+03  0.7818608E-02  0.1059932E+00
         -2   -1    0    0    0  501 -0.00000000000E+00  0.00000000000E+00  0.15662832087E+02  0.15662832294E+02  0.25500000000E-02 0. -1.
          2   -1    0    0  501    0  0.00000000000E+00 -0.00000000000E+00 -0.20298917187E+04  0.20298917187E+04  0.25500000000E-02 0.  1.
    5000001    1    1    2    0    0 -0.50342179554E+02 -0.33683552554E+02 -0.83504036780E+03  0.85333834591E+03  0.16500000000E+03 0.  0.
   -5000001    1    1    2    0    0  0.50342179554E+02  0.33683552554E+02 -0.11791885189E+04  0.11922162051E+04  0.16500000000E+03 0.  0.
<mgrwt>
<rscale>  0 0.35661662E+03</rscale>
<asrwt>0</asrwt>
<pdfrwt beam="1">  1        2 0.28998436E+00 0.35661662E+03</pdfrwt>
<pdfrwt beam="2">  1       -2 0.22375488E-02 0.35661662E+03</pdfrwt>
<totfact> 0.55986183E+03</totfact>
</mgrwt>
</event>
<event>
 4    1  0.5531008E-005  0.3839024E+03  0.7818608E-02  0.1049501E+00
         -2   -1    0    0    0  501 -0.00000000000E+00  0.00000000000E+00  0.50083695005E+02  0.50083695070E+02  0.25500000000E-02 0. -1.
          2   -1    0    0  501    0  0.00000000000E+00 -0.00000000000E+00 -0.73567367077E+03  0.73567367077E+03  0.25500000000E-02 0.  1.
    5000001    1    1    2    0    0 -0.50392716639E+02 -0.21532695053E+02 -0.17629894365E+03  0.24760735122E+03  0.16500000000E+03 0.  0.
   -5000001    1    1    2    0    0  0.50392716639E+02  0.21532695053E+02 -0.50929103211E+03  0.53815001462E+03  0.16500000000E+03 0.  0.
<mgrwt>
<rscale>  0 0.38390236E+03</rscale>
<asrwt>0</asrwt>
<pdfrwt beam="1">  1        2 0.10509623E+00 0.38390236E+03</pdfrwt>
<pdfrwt beam="2">  1       -2 0.71548140E-02 0.38390236E+03</pdfrwt>
<totfact> 0.48983465E+03</totfact>
</mgrwt>
</event>
<event>
 4    1  0.5531008E-005  0.5137210E+03  0.7818608E-02  0.1010258E+00
         -2   -1    0    0    0  501 -0.00000000000E+00  0.00000000000E+00  0.12921432104E+03  0.12921432106E+03  0.25500000000E-02 0. -1.
          2   -1    0    0  501    0  0.00000000000E+00 -0.00000000000E+00 -0.51060378059E+03  0.51060378060E+03  0.25500000000E-02 0.  1.
    5000001    1    1    2    0    0 -0.13087071283E+03 -0.67033792701E+02 -0.27679282297E+02  0.22273709953E+03  0.16500000000E+03 0.  0.
   -5000001    1    1    2    0    0  0.13087071283E+03  0.67033792701E+02 -0.35371017726E+03  0.41708100213E+03  0.16500000000E+03 0.  0.
<mgrwt>
<rscale>  0 0.51372102E+03</rscale>
<asrwt>0</asrwt>
<pdfrwt beam="1">  1        2 0.72943396E-01 0.51372102E+03</pdfrwt>
<pdfrwt beam="2">  1       -2 0.18459189E-01 0.51372102E+03</pdfrwt>
<totfact> 0.16044094E+03</totfact>
</mgrwt>
</event>
<event>
 4    1  0.5531008E-005  0.5553401E+03  0.7818608E-02  0.1000265E+00
         -2   -1    0    0    0  501 -0.00000000000E+00  0.00000000000E+00  0.27699937659E+02  0.27699937776E+02  0.25500000000E-02 0. -1.
          2   -1    0    0  501    0  0.00000000000E+00 -0.00000000000E+00 -0.27834231153E+04  0.27834231153E+04  0.25500000000E-02 0.  1.
    5000001    1    1    2    0    0 -0.11090319008E+03  0.12919999081E+03 -0.21093751933E+04  0.21226589131E+04  0.16500000000E+03 0.  0.
   -5000001    1    1    2    0    0  0.11090319008E+03 -0.12919999081E+03 -0.64634798438E+03  0.68846414003E+03  0.16500000000E+03 0.  0.
<mgrwt>
<rscale>  0 0.55534006E+03</rscale>
<asrwt>0</asrwt>
<pdfrwt beam="1">  1        2 0.39763170E+00 0.55534006E+03</pdfrwt>
<pdfrwt beam="2">  1       -2 0.39571357E-02 0.55534006E+03</pdfrwt>
<totfact> 0.97383009E+02</totfact>
</mgrwt>
</event>
<event>
 4    1  0.5531008E-005  0.3857644E+03  0.7818608E-02  0.1048824E+00
          2   -1    0    0  501    0  0.00000000000E+00  0.00000000000E+00  0.47497410976E+03  0.47497410977E+03  0.25500000000E-02 0.  1.
         -2   -1    0    0    0  501 -0.00000000000E+00 -0.00000000000E+00 -0.78327517787E+02  0.78327517829E+02  0.25500000000E-02 0. -1.
    5000001    1    1    2    0    0 -0.44840470177E+02  0.79994472124E+02  0.25513240979E+03  0.31737569198E+03  0.16500000000E+03 0.  0.
   -5000001    1    1    2    0    0  0.44840470177E+02 -0.79994472124E+02  0.14151418218E+03  0.23592593561E+03  0.16500000000E+03 0.  0.
<mgrwt>
<rscale>  0 0.38576440E+03</rscale>
<asrwt>0</asrwt>
<pdfrwt beam="1">  1        2 0.67853443E-01 0.38576440E+03</pdfrwt>
<pdfrwt beam="2">  1       -2 0.11189646E-01 0.38576440E+03</pdfrwt>
<totfact> 0.39934500E+03</totfact>
</mgrwt>
</event>
<event>
 4    1  0.5531008E-005  0.4070244E+03  0.7818608E-02  0.1041374E+00
         -2   -1    0    0    0  501 -0.00000000000E+00  0.00000000000E+00  0.13883865479E+03  0.13883865481E+03  0.25500000000E-02 0. -1.
          2   -1    0    0  501    0  0.00000000000E+00 -0.00000000000E+00 -0.29831183457E+03  0.29831183458E+03  0.25500000000E-02 0.  1.
    5000001    1    1    2    0    0  0.32958395008E+02  0.97304422863E+02 -0.14958165688E+02  0.19494397460E+03  0.16500000000E+03 0.  0.
   -5000001    1    1    2    0    0 -0.32958395008E+02 -0.97304422863E+02 -0.14451501409E+03  0.24220651479E+03  0.16500000000E+03 0.  0.
<mgrwt>
<rscale>  0 0.40702439E+03</rscale>
<asrwt>0</asrwt>
<pdfrwt beam="1">  1        2 0.42615976E-01 0.40702439E+03</pdfrwt>
<pdfrwt beam="2">  1       -2 0.19834094E-01 0.40702439E+03</pdfrwt>
<totfact> 0.25619568E+03</totfact>
</mgrwt>
</event>
<event>
 4    1  0.5531008E-005  0.1605259E+04  0.7818608E-02  0.8817324E-01
          2   -1    0    0  501    0  0.00000000000E+00  0.00000000000E+00  0.36645552439E+04  0.36645552439E+04  0.25500000000E-02 0.  1.
         -2   -1    0    0    0  501 -0.00000000000E+00 -0.00000000000E+00 -0.17579604074E+03  0.17579604076E+03  0.25500000000E-02 0. -1.
    5000001    1    1    2    0    0  0.57264021090E+03 -0.46043939151E+03  0.10802344840E+04  0.13168343801E+04  0.16500000000E+03 0.  0.
   -5000001    1    1    2    0    0 -0.57264021090E+03  0.46043939151E+03  0.24085247192E+04  0.25235169045E+04  0.16500000000E+03 0.  0.
<mgrwt>
<rscale>  0 0.16052592E+04</rscale>
<asrwt>0</asrwt>
<pdfrwt beam="1">  1        2 0.52350788E+00 0.16052592E+04</pdfrwt>
<pdfrwt beam="2">  1       -2 0.25113721E-01 0.16052592E+04</pdfrwt>
<totfact> 0.13101075E+01</totfact>
</mgrwt>
</event>
<event>
 4    1  0.5531008E-005  0.5781477E+03  0.7818608E-02  0.9951809E-01
         -2   -1    0    0    0  501 -0.00000000000E+00  0.00000000000E+00  0.12963468592E+03  0.12963468594E+03  0.25500000000E-02 0. -1.
          2   -1    0    0  501    0  0.00000000000E+00 -0.00000000000E+00 -0.64460894098E+03  0.64460894099E+03  0.25500000000E-02 0.  1.
    5000001    1    1    2    0    0  0.19348511565E+03 -0.81841184372E+02 -0.40542987325E+03  0.48552327603E+03  0.16500000000E+03 0.  0.
   -5000001    1    1    2    0    0 -0.19348511565E+03  0.81841184372E+02 -0.10954438181E+03  0.28872035090E+03  0.16500000000E+03 0.  0.
<mgrwt>
<rscale>  0 0.57814765E+03</rscale>
<asrwt>0</asrwt>
<pdfrwt beam="1">  1        2 0.92086990E-01 0.57814765E+03</pdfrwt>
<pdfrwt beam="2">  1       -2 0.18519241E-01 0.57814765E+03</pdfrwt>
<totfact> 0.12164167E+03</totfact>
</mgrwt>
</event>
<event>
 4    1  0.5531008E-005  0.5972003E+03  0.7818608E-02  0.9911232E-01
          2   -1    0    0  501    0  0.00000000000E+00  0.00000000000E+00  0.12839862466E+03  0.12839862469E+03  0.25500000000E-02 0.  1.
         -2   -1    0    0    0  501 -0.00000000000E+00 -0.00000000000E+00 -0.69441590694E+03  0.69441590695E+03  0.25500000000E-02 0. -1.
    5000001    1    1    2    0    0 -0.20780753574E+03 -0.66947248886E+02 -0.44760161617E+03  0.52463140665E+03  0.16500000000E+03 0.  0.
   -5000001    1    1    2    0    0  0.20780753574E+03  0.66947248886E+02 -0.11841566611E+03  0.29818312499E+03  0.16500000000E+03 0.  0.
<mgrwt>
<rscale>  0 0.59720029E+03</rscale>
<asrwt>0</asrwt>
<pdfrwt beam="1">  1        2 0.18342661E-01 0.59720029E+03</pdfrwt>
<pdfrwt beam="2">  1       -2 0.99202270E-01 0.59720029E+03</pdfrwt>
<totfact> 0.26805062E+02</totfact>
</mgrwt>
</event>
<event>
 4    1  0.5531008E-005  0.4623897E+03  0.7818608E-02  0.1024090E+00
          2   -1    0    0  501    0  0.00000000000E+00  0.00000000000E+00  0.44110921558E+03  0.44110921558E+03  0.25500000000E-02 0.  1.
         -2   -1    0    0    0  501 -0.00000000000E+00 -0.00000000000E+00 -0.12117420122E+03  0.12117420125E+03  0.25500000000E-02 0. -1.
    5000001    1    1    2    0    0  0.12699875387E+03 -0.43049576488E+02  0.27038018682E+03  0.34396568861E+03  0.16500000000E+03 0.  0.
   -5000001    1    1    2    0    0 -0.12699875387E+03  0.43049576488E+02  0.49554827539E+02  0.21831772821E+03  0.16500000000E+03 0.  0.
<mgrwt>
<rscale>  0 0.46238969E+03</rscale>
<asrwt>0</asrwt>
<pdfrwt beam="1">  1        2 0.63015603E-01 0.46238969E+03</pdfrwt>
<pdfrwt beam="2">  1       -2 0.17310600E-01 0.46238969E+03</pdfrwt>
<totfact> 0.21089462E+03</totfact>
</mgrwt>
</event>
<event>
 4    1  0.5531008E-005  0.8507699E+03  0.7818608E-02  0.9489304E-01
          2   -1    0    0  501    0  0.00000000000E+00  0.00000000000E+00  0.13247180599E+04  0.13247180599E+04  0.25500000000E-02 0.  1.
         -2   -1    0    0    0  501 -0.00000000000E+00 -0.00000000000E+00 -0.13659689689E+03  0.13659689691E+03  0.25500000000E-02 0. -1.
    5000001    1    1    2    0    0 -0.31372429362E+03 -0.18699440302E+03  0.34910865051E+03  0.53149947227E+03  0.16500000000E+03 0.  0.
   -5000001    1    1    2    0    0  0.31372429362E+03  0.18699440302E+03  0.83901251254E+03  0.92981548458E+03  0.16500000000E+03 0.  0.
<mgrwt>
<rscale>  0 0.85076995E+03</rscale>
<asrwt>0</asrwt>
<pdfrwt beam="1">  1        2 0.18924543E+00 0.85076995E+03</pdfrwt>
<pdfrwt beam="2">  1       -2 0.19513843E-01 0.85076995E+03</pdfrwt>
<totfact> 0.40647010E+02</totfact>
</mgrwt>
</event>
<event>
 4    1  0.5531008E-005  0.7275496E+03  0.7818608E-02  0.9671245E-01
         -2   -1    0    0    0  501 -0.00000000000E+00  0.00000000000E+00  0.54355146957E+02  0.54355147016E+02  0.25500000000E-02 0. -1.
          2   -1    0    0  501    0  0.00000000000E+00 -0.00000000000E+00 -0.24345828737E+04  0.24345828737E+04  0.25500000000E-02 0.  1.
    5000001    1    1    2    0    0  0.27945765304E+03  0.16432855722E+03 -0.11989393429E+04  0.12529090161E+04  0.16500000000E+03 0.  0.
   -5000001    1    1    2    0    0 -0.27945765304E+03 -0.16432855722E+03 -0.11812883838E+04  0.12360290047E+04  0.16500000000E+03 0.  0.
<mgrwt>
<rscale>  0 0.72754961E+03</rscale>
<asrwt>0</asrwt>
<pdfrwt beam="1">  1        2 0.34779748E+00 0.72754961E+03</pdfrwt>
<pdfrwt beam="2">  1       -2 0.77650226E-02 0.72754961E+03</pdfrwt>
<totfact> 0.50851734E+02</totfact>
</mgrwt>
</event>
<event>
 4    1  0.5531008E-005  0.4206787E+03  0.7818608E-02  0.1036846E+00
          2   -1    0    0  501    0  0.00000000000E+00  0.00000000000E+00  0.24997887081E+03  0.24997887082E+03  0.25500000000E-02 0.  1.
         -2   -1    0    0    0  501 -0.00000000000E+00 -0.00000000000E+00 -0.17698550012E+03  0.17698550014E+03  0.25500000000E-02 0. -1.
    5000001    1    1    2    0    0  0.37867397326E+02 -0.80851181868E+02 -0.60039072465E+02  0.19697853592E+03  0.16500000000E+03 0.  0.
   -5000001    1    1    2    0    0 -0.37867397326E+02  0.80851181868E+02  0.13303244316E+03  0.22998583505E+03  0.16500000000E+03 0.  0.
<mgrwt>
<rscale>  0 0.42067867E+03</rscale>
<asrwt>0</asrwt>
<pdfrwt beam="1">  1        2 0.35711267E-01 0.42067867E+03</pdfrwt>
<pdfrwt beam="2">  1       -2 0.25283643E-01 0.42067867E+03</pdfrwt>
<totfact> 0.20318735E+03</totfact>
</mgrwt>
</event>
<event>
 4    1  0.5531008E-005  0.3881683E+03  0.7818608E-02  0.1047955E+00
          2   -1    0    0  501    0  0.00000000000E+00  0.00000000000E+00  0.68422586458E+03  0.68422586459E+03  0.25500000000E-02 0.  1.
         -2   -1    0    0    0  501 -0.00000000000E+00 -0.00000000000E+00 -0.55052961172E+02  0.55052961231E+02  0.25500000000E-02 0. -1.
    5000001    1    1    2    0    0 -0.63482022240E+02  0.75053023518E+02  0.26137067247E+03  0.32434942873E+03  0.16500000000E+03 0.  0.
   -5000001    1    1    2    0    0  0.63482022240E+02 -0.75053023518E+02  0.36780223094E+03  0.41492939709E+03  0.16500000000E+03 0.  0.
<mgrwt>
<rscale>  0 0.38816831E+03</rscale>
<asrwt>0</asrwt>
<pdfrwt beam="1">  1        2 0.97746554E-01 0.38816831E+03</pdfrwt>
<pdfrwt beam="2">  1       -2 0.78647086E-02 0.38816831E+03</pdfrwt>
<totfact> 0.46099114E+03</totfact>
</mgrwt>
</event>
<event>
 4    1  0.5531008E-005  0.4041259E+03  0.7818608E-02  0.1042360E+00
          2   -1    0    0  501    0  0.00000000000E+00  0.00000000000E+00  0.16451500798E+03  0.16451500800E+03  0.25500000000E-02 0. -1.
         -2   -1    0    0    0  501 -0.00000000000E+00 -0.00000000000E+00 -0.24818060253E+03  0.24818060254E+03  0.25500000000E-02 0.  1.
    5000001    1    1    2    0    0  0.10070025512E+03  0.57456603987E+02 -0.54855914822E+02  0.20898797600E+03  0.16500000000E+03 0.  0.
   -5000001    1    1    2    0    0 -0.10070025512E+03 -0.57456603987E+02 -0.28809679722E+02  0.20370763454E+03  0.16500000000E+03 0.  0.
<mgrwt>
<rscale>  0 0.40412589E+03</rscale>
<asrwt>0</asrwt>
<pdfrwt beam="1">  1        2 0.23502144E-01 0.40412589E+03</pdfrwt>
<pdfrwt beam="2">  1       -2 0.35454372E-01 0.40412589E+03</pdfrwt>
<totfact> 0.17435985E+03</totfact>
</mgrwt>
</event>
<event>
 4    1  0.5531008E-005  0.8038716E+03  0.7818608E-02  0.9554430E-01
         -2   -1    0    0    0  501 -0.00000000000E+00  0.00000000000E+00  0.23275642604E+03  0.23275642606E+03  0.25500000000E-02 0. -1.
          2   -1    0    0  501    0  0.00000000000E+00 -0.00000000000E+00 -0.69408349535E+03  0.69408349536E+03  0.25500000000E-02 0.  1.
    5000001    1    1    2    0    0  0.33243577483E+03  0.12825696299E+03 -0.13172284086E+03  0.41417303117E+03  0.16500000000E+03 0.  0.
   -5000001    1    1    2    0    0 -0.33243577483E+03 -0.12825696299E+03 -0.32960422845E+03  0.51266689025E+03  0.16500000000E+03 0.  0.
<mgrwt>
<rscale>  0 0.80387162E+03</rscale>
<asrwt>0</asrwt>
<pdfrwt beam="1">  1        2 0.99154784E-01 0.80387162E+03</pdfrwt>
<pdfrwt beam="2">  1       -2 0.33250918E-01 0.80387162E+03</pdfrwt>
<totfact> 0.38547710E+02</totfact>
</mgrwt>
</event>
<event>
 4    1  0.5531008E-005  0.5202915E+03  0.7818608E-02  0.1008614E+00
          2   -1    0    0  501    0  0.00000000000E+00  0.00000000000E+00  0.39218888740E+03  0.39218888741E+03  0.25500000000E-02 0.  1.
         -2   -1    0    0    0  501 -0.00000000000E+00 -0.00000000000E+00 -0.17255920086E+03  0.17255920088E+03  0.25500000000E-02 0. -1.
    5000001    1    1    2    0    0 -0.15051218097E+03 -0.86886430558E+02  0.21969514520E+03  0.32510632916E+03  0.16500000000E+03 0.  0.
   -5000001    1    1    2    0    0  0.15051218097E+03  0.86886430558E+02 -0.65458663526E-01  0.23964175913E+03  0.16500000000E+03 0.  0.
<mgrwt>
<rscale>  0 0.52029146E+03</rscale>
<asrwt>0</asrwt>
<pdfrwt beam="1">  1        2 0.56026983E-01 0.52029146E+03</pdfrwt>
<pdfrwt beam="2">  1       -2 0.24651315E-01 0.52029146E+03</pdfrwt>
<totfact> 0.12984052E+03</totfact>
</mgrwt>
</event>
<event>
 4    1  0.5531008E-005  0.7040842E+03  0.7818608E-02  0.9710273E-01
          2   -1    0    0  501    0  0.00000000000E+00  0.00000000000E+00  0.24128042527E+04  0.24128042527E+04  0.25500000000E-02 0.  1.
         -2   -1    0    0    0  501 -0.00000000000E+00 -0.00000000000E+00 -0.51364984935E+02  0.51364984998E+02  0.25500000000E-02 0. -1.
    5000001    1    1    2    0    0  0.12067294873E+03  0.28561948197E+03  0.12641450703E+04  0.13120320910E+04  0.16500000000E+03 0.  0.
   -5000001    1    1    2    0    0 -0.12067294873E+03 -0.28561948197E+03  0.10972941975E+04  0.11521371467E+04  0.16500000000E+03 0.  0.
<mgrwt>
<rscale>  0 0.70408424E+03</rscale>
<asrwt>0</asrwt>
<pdfrwt beam="1">  1        2 0.34468632E+00 0.70408424E+03</pdfrwt>
<pdfrwt beam="2">  1       -2 0.73378550E-02 0.70408424E+03</pdfrwt>
<totfact> 0.57201552E+02</totfact>
</mgrwt>
</event>
<event>
 4    1  0.5531008E-005  0.9819737E+03  0.7818608E-02  0.9328540E-01
          2   -1    0    0  501    0  0.00000000000E+00  0.00000000000E+00  0.24755000024E+04  0.24755000024E+04  0.25500000000E-02 0.  1.
         -2   -1    0    0    0  501 -0.00000000000E+00 -0.00000000000E+00 -0.97381578489E+02  0.97381578522E+02  0.25500000000E-02 0. -1.
    5000001    1    1    2    0    0 -0.40279069361E+02 -0.45393130707E+03  0.13948183441E+04  0.14766242745E+04  0.16500000000E+03 0.  0.
   -5000001    1    1    2    0    0  0.40279069361E+02  0.45393130707E+03  0.98330007987E+03  0.10962573065E+04  0.16500000000E+03 0.  0.
<mgrwt>
<rscale>  0 0.98197372E+03</rscale>
<asrwt>0</asrwt>
<pdfrwt beam="1">  1        2 0.35364285E+00 0.98197372E+03</pdfrwt>
<pdfrwt beam="2">  1       -2 0.13911654E-01 0.98197372E+03</pdfrwt>
<totfact> 0.18273864E+02</totfact>
</mgrwt>
</event>
<event>
 4    1  0.5531008E-005  0.7568911E+03  0.7818608E-02  0.9624601E-01
          2   -1    0    0  501    0  0.00000000000E+00  0.00000000000E+00  0.91480504586E+03  0.91480504586E+03  0.25500000000E-02 0.  1.
         -2   -1    0    0    0  501 -0.00000000000E+00 -0.00000000000E+00 -0.15655909787E+03  0.15655909789E+03  0.25500000000E-02 0. -1.
    5000001    1    1    2    0    0 -0.28812823429E+03  0.39945929552E+02  0.12836923228E+03  0.35821392558E+03  0.16500000000E+03 0.  0.
   -5000001    1    1    2    0    0  0.28812823429E+03 -0.39945929552E+02  0.62987671571E+03  0.71315021817E+03  0.16500000000E+03 0.  0.
<mgrwt>
<rscale>  0 0.75689115E+03</rscale>
<asrwt>0</asrwt>
<pdfrwt beam="1">  1        2 0.13068644E+00 0.75689115E+03</pdfrwt>
<pdfrwt beam="2">  1       -2 0.22365585E-01 0.75689115E+03</pdfrwt>
<totfact> 0.55859224E+02</totfact>
</mgrwt>
</event>
<event>
 4    1  0.5531008E-005  0.4096545E+03  0.7818608E-02  0.1040487E+00
         -2   -1    0    0    0  501 -0.00000000000E+00  0.00000000000E+00  0.16278809426E+02  0.16278809625E+02  0.25500000000E-02 0. -1.
          2   -1    0    0  501    0  0.00000000000E+00 -0.00000000000E+00 -0.25772279089E+04  0.25772279089E+04  0.25500000000E-02 0.  1.
    5000001    1    1    2    0    0 -0.85367975470E+02 -0.16598790025E+02 -0.18164041967E+04  0.18259552067E+04  0.16500000000E+03 0.  0.
   -5000001    1    1    2    0    0  0.85367975470E+02  0.16598790025E+02 -0.74454490272E+03  0.76755151178E+03  0.16500000000E+03 0.  0.
<mgrwt>
<rscale>  0 0.40965450E+03</rscale>
<asrwt>0</asrwt>
<pdfrwt beam="1">  1        2 0.36817516E+00 0.40965450E+03</pdfrwt>
<pdfrwt beam="2">  1       -2 0.23255459E-02 0.40965450E+03</pdfrwt>
<totfact> 0.28130364E+03</totfact>
</mgrwt>
</event>
<event>
 4    1  0.5531008E-005  0.3970424E+03  0.7818608E-02  0.1044809E+00
         -2   -1    0    0    0  501 -0.00000000000E+00  0.00000000000E+00  0.98935092346E+02  0.98935092379E+02  0.25500000000E-02 0. -1.
          2   -1    0    0  501    0  0.00000000000E+00 -0.00000000000E+00 -0.39834869368E+03  0.39834869368E+03  0.25500000000E-02 0.  1.
    5000001    1    1    2    0    0 -0.13638673456E+02 -0.10354927313E+03 -0.10494610985E+03  0.22169156807E+03  0.16500000000E+03 0.  0.
   -5000001    1    1    2    0    0  0.13638673456E+02  0.10354927313E+03 -0.19446749148E+03  0.27559221800E+03  0.16500000000E+03 0.  0.
<mgrwt>
<rscale>  0 0.39704239E+03</rscale>
<asrwt>0</asrwt>
<pdfrwt beam="1">  1        2 0.56906955E-01 0.39704239E+03</pdfrwt>
<pdfrwt beam="2">  1       -2 0.14133585E-01 0.39704239E+03</pdfrwt>
<totfact> 0.33099076E+03</totfact>
</mgrwt>
</event>
<event>
 4    1  0.5531008E-005  0.3844627E+03  0.7818608E-02  0.1049297E+00
         -2   -1    0    0    0  501 -0.00000000000E+00  0.00000000000E+00  0.10278792907E+03  0.10278792910E+03  0.25500000000E-02 0. -1.
          2   -1    0    0  501    0  0.00000000000E+00 -0.00000000000E+00 -0.35950619122E+03  0.35950619123E+03  0.25500000000E-02 0.  1.
    5000001    1    1    2    0    0 -0.80867685852E+02  0.30572969380E+02 -0.71276589766E+02  0.19944834249E+03  0.16500000000E+03 0.  0.
   -5000001    1    1    2    0    0  0.80867685852E+02 -0.30572969380E+02 -0.18544167238E+03  0.26284577784E+03  0.16500000000E+03 0.  0.
<mgrwt>
<rscale>  0 0.38446273E+03</rscale>
<asrwt>0</asrwt>
<pdfrwt beam="1">  1        2 0.51358027E-01 0.38446273E+03</pdfrwt>
<pdfrwt beam="2">  1       -2 0.14683990E-01 0.38446273E+03</pdfrwt>
<totfact> 0.34732688E+03</totfact>
</mgrwt>
</event>
<event>
 4    1  0.5531008E-005  0.9355423E+03  0.7818608E-02  0.9382211E-01
          2   -1    0    0  501    0  0.00000000000E+00  0.00000000000E+00  0.84580118087E+03  0.84580118087E+03  0.25500000000E-02 0.  1.
         -2   -1    0    0    0  501 -0.00000000000E+00 -0.00000000000E+00 -0.25870129445E+03  0.25870129446E+03  0.25500000000E-02 0. -1.
    5000001    1    1    2    0    0  0.31189248168E+03  0.96926521115E+02 -0.50475712266E+02  0.36938390349E+03  0.16500000000E+03 0.  0.
   -5000001    1    1    2    0    0 -0.31189248168E+03 -0.96926521115E+02  0.63757559869E+03  0.73511857184E+03  0.16500000000E+03 0.  0.
<mgrwt>
<rscale>  0 0.93554232E+03</rscale>
<asrwt>0</asrwt>
<pdfrwt beam="1">  1        2 0.12082874E+00 0.93554232E+03</pdfrwt>
<pdfrwt beam="2">  1       -2 0.36957328E-01 0.93554232E+03</pdfrwt>
<totfact> 0.24365135E+02</totfact>
</mgrwt>
</event>
<event>
 4    1  0.5531008E-005  0.6882077E+03  0.7818608E-02  0.9737614E-01
          2   -1    0    0  501    0  0.00000000000E+00  0.00000000000E+00  0.15849695104E+04  0.15849695104E+04  0.25500000000E-02 0.  1.
         -2   -1    0    0    0  501 -0.00000000000E+00 -0.00000000000E+00 -0.74706450360E+02  0.74706450403E+02  0.25500000000E-02 0. -1.
    5000001    1    1    2    0    0 -0.15388160805E+03 -0.17416328369E+03  0.29018783959E+03  0.40675100605E+03  0.16500000000E+03 0.  0.
   -5000001    1    1    2    0    0  0.15388160805E+03  0.17416328369E+03  0.12200752204E+04  0.12529249547E+04  0.16500000000E+03 0.  0.
<mgrwt>
<rscale>  0 0.68820766E+03</rscale>
<asrwt>0</asrwt>
<pdfrwt beam="1">  1        2 0.22642421E+00 0.68820766E+03</pdfrwt>
<pdfrwt beam="2">  1       -2 0.10672350E-01 0.68820766E+03</pdfrwt>
<totfact> 0.82468552E+02</totfact>
</mgrwt>
</event>
<event>
 4    1  0.5531008E-005  0.5808791E+03  0.7818608E-02  0.9945890E-01
          2   -1    0    0  501    0  0.00000000000E+00  0.00000000000E+00  0.21718611690E+03  0.21718611691E+03  0.25500000000E-02 0.  1.
         -2   -1    0    0    0  501 -0.00000000000E+00 -0.00000000000E+00 -0.38840022148E+03  0.38840022149E+03  0.25500000000E-02 0. -1.
    5000001    1    1    2    0    0 -0.10729461050E+03  0.18053790349E+03  0.33370117630E+02  0.26915540639E+03  0.16500000000E+03 0.  0.
   -5000001    1    1    2    0    0  0.10729461050E+03 -0.18053790349E+03 -0.20458422221E+03  0.33643093201E+03  0.16500000000E+03 0.  0.
<mgrwt>
<rscale>  0 0.58087911E+03</rscale>
<asrwt>0</asrwt>
<pdfrwt beam="1">  1        2 0.31026588E-01 0.58087911E+03</pdfrwt>
<pdfrwt beam="2">  1       -2 0.55485746E-01 0.58087911E+03</pdfrwt>
<totfact> 0.52707670E+02</totfact>
</mgrwt>
</event>
<event>
 4    1  0.5531008E-005  0.3438858E+03  0.7818608E-02  0.1065153E+00
         -2   -1    0    0    0  501 -0.00000000000E+00  0.00000000000E+00  0.10560206934E+03  0.10560206937E+03  0.25500000000E-02 0. -1.
          2   -1    0    0  501    0  0.00000000000E+00 -0.00000000000E+00 -0.27995997370E+03  0.27995997371E+03  0.25500000000E-02 0.  1.
    5000001    1    1    2    0    0  0.33493200786E+02  0.33205428923E+02 -0.99200180543E+02  0.19821723141E+03  0.16500000000E+03 0.  0.
   -5000001    1    1    2    0    0 -0.33493200786E+02 -0.33205428923E+02 -0.75157723820E+02  0.18734481167E+03  0.16500000000E+03 0.  0.
<mgrwt>
<rscale>  0 0.34388575E+03</rscale>
<asrwt>0</asrwt>
<pdfrwt beam="1">  1        2 0.39994282E-01 0.34388575E+03</pdfrwt>
<pdfrwt beam="2">  1       -2 0.15086010E-01 0.34388575E+03</pdfrwt>
<totfact> 0.43468571E+03</totfact>
</mgrwt>
</event>
<event>
 4    1  0.5531008E-005  0.2059264E+04  0.7818608E-02  0.8579403E-01
         -2   -1    0    0    0  501 -0.00000000000E+00  0.00000000000E+00  0.20889745073E+04  0.20889745073E+04  0.25500000000E-02 0. -1.
          2   -1    0    0  501    0  0.00000000000E+00 -0.00000000000E+00 -0.50749417423E+03  0.50749417424E+03  0.25500000000E-02 0.  1.
    5000001    1    1    2    0    0  0.75023109451E+02  0.10105245158E+04  0.88945225895E+03  0.13583587836E+04  0.16500000000E+03 0.  0.
   -5000001    1    1    2    0    0 -0.75023109451E+02 -0.10105245158E+04  0.69202807412E+03  0.12381098980E+04  0.16500000000E+03 0.  0.
<mgrwt>
<rscale>  0 0.20592643E+04</rscale>
<asrwt>0</asrwt>
<pdfrwt beam="1">  1        2 0.72499168E-01 0.20592643E+04</pdfrwt>
<pdfrwt beam="2">  1       -2 0.29842493E+00 0.20592643E+04</pdfrwt>
<totfact> 0.19917281E+00</totfact>
</mgrwt>
</event>
<event>
 4    1  0.5531008E-005  0.1294065E+04  0.7818608E-02  0.9034285E-01
          2   -1    0    0  501    0  0.00000000000E+00  0.00000000000E+00  0.87907759568E+03  0.87907759568E+03  0.25500000000E-02 0.  1.
         -2   -1    0    0    0  501 -0.00000000000E+00 -0.00000000000E+00 -0.47623915010E+03  0.47623915011E+03  0.25500000000E-02 0. -1.
    5000001    1    1    2    0    0 -0.80655943572E+02  0.54270578271E+03  0.51630118112E+03  0.77125019121E+03  0.16500000000E+03 0.  0.
   -5000001    1    1    2    0    0  0.80655943572E+02 -0.54270578271E+03 -0.11346273554E+03  0.58406655458E+03  0.16500000000E+03 0.  0.
<mgrwt>
<rscale>  0 0.12940652E+04</rscale>
<asrwt>0</asrwt>
<pdfrwt beam="1">  1        2 0.12558251E+00 0.12940652E+04</pdfrwt>
<pdfrwt beam="2">  1       -2 0.68034165E-01 0.12940652E+04</pdfrwt>
<totfact> 0.65190978E+01</totfact>
</mgrwt>
</event>
<event>
 4    1  0.5531008E-005  0.6556767E+03  0.7818608E-02  0.9796185E-01
         -2   -1    0    0    0  501 -0.00000000000E+00  0.00000000000E+00  0.48233555523E+02  0.48233555590E+02  0.25500000000E-02 0. -1.
          2   -1    0    0  501    0  0.00000000000E+00 -0.00000000000E+00 -0.22282824411E+04  0.22282824411E+04  0.25500000000E-02 0.  1.
    5000001    1    1    2    0    0 -0.10603636395E+01  0.24386799148E+03 -0.58952168376E+03  0.65896398783E+03  0.16500000000E+03 0.  0.
   -5000001    1    1    2    0    0  0.10603636395E+01 -0.24386799148E+03 -0.15905272019E+04  0.16175520089E+04  0.16500000000E+03 0.  0.
<mgrwt>
<rscale>  0 0.65567670E+03</rscale>
<asrwt>0</asrwt>
<pdfrwt beam="1">  1        2 0.31832600E+00 0.65567670E+03</pdfrwt>
<pdfrwt beam="2">  1       -2 0.68905093E-02 0.65567670E+03</pdfrwt>
<totfact> 0.78726020E+02</totfact>
</mgrwt>
</event>
<event>
 4    1  0.5531008E-005  0.4528624E+03  0.7818608E-02  0.1026872E+00
          2   -1    0    0  501    0  0.00000000000E+00  0.00000000000E+00  0.28935173925E+02  0.28935174037E+02  0.25500000000E-02 0.  1.
         -2   -1    0    0    0  501 -0.00000000000E+00 -0.00000000000E+00 -0.17719291525E+04  0.17719291525E+04  0.25500000000E-02 0. -1.
    5000001    1    1    2    0    0  0.11376974299E+02 -0.15208310836E+03 -0.98308164031E+03  0.10084310680E+04  0.16500000000E+03 0.  0.
   -5000001    1    1    2    0    0 -0.11376974299E+02  0.15208310836E+03 -0.75991233827E+03  0.79243325854E+03  0.16500000000E+03 0.  0.
<mgrwt>
<rscale>  0 0.45286236E+03</rscale>
<asrwt>0</asrwt>
<pdfrwt beam="1">  1        2 0.41335974E-02 0.45286236E+03</pdfrwt>
<pdfrwt beam="2">  1       -2 0.25313267E+00 0.45286236E+03</pdfrwt>
<totfact> 0.13800593E+02</totfact>
</mgrwt>
</event>
<event>
 4    1  0.5531008E-005  0.4360108E+03  0.7818608E-02  0.1031978E+00
         -2   -1    0    0    0  501 -0.00000000000E+00  0.00000000000E+00  0.23715226269E+02  0.23715226406E+02  0.25500000000E-02 0. -1.
          2   -1    0    0  501    0  0.00000000000E+00 -0.00000000000E+00 -0.20040435312E+04  0.20040435312E+04  0.25500000000E-02 0.  1.
    5000001    1    1    2    0    0 -0.70004236565E+02 -0.60633941383E+02 -0.14937367977E+04  0.15056731680E+04  0.16500000000E+03 0.  0.
   -5000001    1    1    2    0    0  0.70004236565E+02  0.60633941383E+02 -0.48659150725E+03  0.52208558965E+03  0.16500000000E+03 0.  0.
<mgrwt>
<rscale>  0 0.43601076E+03</rscale>
<asrwt>0</asrwt>
<pdfrwt beam="1">  1        2 0.28629183E+00 0.43601076E+03</pdfrwt>
<pdfrwt beam="2">  1       -2 0.33878907E-02 0.43601076E+03</pdfrwt>
<totfact> 0.30902926E+03</totfact>
</mgrwt>
</event>
<event>
 4    1  0.5531008E-005  0.5545762E+03  0.7818608E-02  0.1000440E+00
         -2   -1    0    0    0  501 -0.00000000000E+00  0.00000000000E+00  0.21973449503E+03  0.21973449504E+03  0.25500000000E-02 0. -1.
          2   -1    0    0  501    0  0.00000000000E+00 -0.00000000000E+00 -0.34991631181E+03  0.34991631182E+03  0.25500000000E-02 0.  1.
    5000001    1    1    2    0    0  0.23427401612E+02  0.17963714099E+03 -0.19840847513E+03  0.31529235413E+03  0.16500000000E+03 0.  0.
   -5000001    1    1    2    0    0 -0.23427401612E+02 -0.17963714099E+03  0.68226658341E+02  0.25435845274E+03  0.16500000000E+03 0.  0.
<mgrwt>
<rscale>  0 0.55457618E+03</rscale>
<asrwt>0</asrwt>
<pdfrwt beam="1">  1        2 0.49988045E-01 0.55457618E+03</pdfrwt>
<pdfrwt beam="2">  1       -2 0.31390642E-01 0.55457618E+03</pdfrwt>
<totfact> 0.94819967E+02</totfact>
</mgrwt>
</event>
<event>
 4    1  0.5531008E-005  0.7262359E+03  0.7818608E-02  0.9673388E-01
         -2   -1    0    0    0  501 -0.00000000000E+00  0.00000000000E+00  0.47356859898E+02  0.47356859967E+02  0.25500000000E-02 0. -1.
          2   -1    0    0  501    0  0.00000000000E+00 -0.00000000000E+00 -0.27842775880E+04  0.27842775880E+04  0.25500000000E-02 0.  1.
    5000001    1    1    2    0    0  0.16101661673E+03  0.26189755828E+03 -0.17605620062E+04  0.17948036827E+04  0.16500000000E+03 0.  0.
   -5000001    1    1    2    0    0 -0.16101661673E+03 -0.26189755828E+03 -0.97635872197E+03  0.10368307653E+04  0.16500000000E+03 0.  0.
<mgrwt>
<rscale>  0 0.72623589E+03</rscale>
<asrwt>0</asrwt>
<pdfrwt beam="1">  1        2 0.39775384E+00 0.72623589E+03</pdfrwt>
<pdfrwt beam="2">  1       -2 0.67652675E-02 0.72623589E+03</pdfrwt>
<totfact> 0.41594725E+02</totfact>
</mgrwt>
</event>
<event>
 4    1  0.5531008E-005  0.6805889E+03  0.7818608E-02  0.9751016E-01
          2   -1    0    0  501    0  0.00000000000E+00  0.00000000000E+00  0.78715283177E+03  0.78715283178E+03  0.25500000000E-02 0.  1.
         -2   -1    0    0    0  501 -0.00000000000E+00 -0.00000000000E+00 -0.14711285102E+03  0.14711285104E+03  0.25500000000E-02 0. -1.
    5000001    1    1    2    0    0 -0.24707632867E+03 -0.15896968968E+03  0.25480119332E+03  0.42245321935E+03  0.16500000000E+03 0.  0.
   -5000001    1    1    2    0    0  0.24707632867E+03  0.15896968968E+03  0.38523878743E+03  0.51181246347E+03  0.16500000000E+03 0.  0.
<mgrwt>
<rscale>  0 0.68058885E+03</rscale>
<asrwt>0</asrwt>
<pdfrwt beam="1">  1        2 0.11245040E+00 0.68058885E+03</pdfrwt>
<pdfrwt beam="2">  1       -2 0.21016122E-01 0.68058885E+03</pdfrwt>
<totfact> 0.76150790E+02</totfact>
</mgrwt>
</event>
<event>
 4    1  0.5531008E-005  0.5016531E+03  0.7818608E-02  0.1013348E+00
          2   -1    0    0  501    0  0.00000000000E+00  0.00000000000E+00  0.37379219465E+03  0.37379219466E+03  0.25500000000E-02 0.  1.
         -2   -1    0    0    0  501 -0.00000000000E+00 -0.00000000000E+00 -0.16831263021E+03  0.16831263023E+03  0.25500000000E-02 0. -1.
    5000001    1    1    2    0    0 -0.17521944075E+03 -0.69713956536E+02  0.90558779952E+02  0.26643532194E+03  0.16500000000E+03 0.  0.
   -5000001    1    1    2    0    0  0.17521944075E+03  0.69713956536E+02  0.11492078448E+03  0.27566950295E+03  0.16500000000E+03 0.  0.
<mgrwt>
<rscale>  0 0.50165306E+03</rscale>
<asrwt>0</asrwt>
<pdfrwt beam="1">  1        2 0.53398885E-01 0.50165306E+03</pdfrwt>
<pdfrwt beam="2">  1       -2 0.24044661E-01 0.50165306E+03</pdfrwt>
<totfact> 0.14312487E+03</totfact>
</mgrwt>
</event>
<event>
 4    1  0.5531008E-005  0.8265745E+03  0.7818608E-02  0.9522329E-01
         -2   -1    0    0    0  501 -0.00000000000E+00  0.00000000000E+00  0.38137020552E+02  0.38137020637E+02  0.25500000000E-02 0. -1.
          2   -1    0    0  501    0  0.00000000000E+00 -0.00000000000E+00 -0.44787544879E+04  0.44787544879E+04  0.25500000000E-02 0.  1.
    5000001    1    1    2    0    0 -0.29006004754E+03 -0.91329278589E+02 -0.98495478718E+03  0.10439524899E+04  0.16500000000E+03 0.  0.
   -5000001    1    1    2    0    0  0.29006004754E+03  0.91329278589E+02 -0.34556626801E+04  0.34729390186E+04  0.16500000000E+03 0.  0.
<mgrwt>
<rscale>  0 0.82657450E+03</rscale>
<asrwt>0</asrwt>
<pdfrwt beam="1">  1        2 0.63982174E+00 0.82657450E+03</pdfrwt>
<pdfrwt beam="2">  1       -2 0.54481486E-02 0.82657450E+03</pdfrwt>
<totfact> 0.50009540E+01</totfact>
</mgrwt>
</event>
<event>
 4    1  0.5531008E-005  0.8630023E+03  0.7818608E-02  0.9473050E-01
          2   -1    0    0  501    0  0.00000000000E+00  0.00000000000E+00  0.27809589446E+04  0.27809589446E+04  0.25500000000E-02 0.  1.
         -2   -1    0    0    0  501 -0.00000000000E+00 -0.00000000000E+00 -0.66952892783E+02  0.66952892832E+02  0.25500000000E-02 0. -1.
    5000001    1    1    2    0    0 -0.79697922846E+02 -0.36635394659E+03  0.18046529529E+04  0.18505578223E+04  0.16500000000E+03 0.  0.
   -5000001    1    1    2    0    0  0.79697922846E+02  0.36635394659E+03  0.90935309890E+03  0.99735401517E+03  0.16500000000E+03 0.  0.
<mgrwt>
<rscale>  0 0.86300231E+03</rscale>
<asrwt>0</asrwt>
<pdfrwt beam="1">  1        2 0.39727993E+00 0.86300231E+03</pdfrwt>
<pdfrwt beam="2">  1       -2 0.95646971E-02 0.86300231E+03</pdfrwt>
<totfact> 0.23681791E+02</totfact>
</mgrwt>
</event>
<event>
 4    1  0.5531008E-005  0.4110010E+03  0.7818608E-02  0.1040036E+00
          2   -1    0    0  501    0  0.00000000000E+00  0.00000000000E+00  0.40470943867E+03  0.40470943868E+03  0.25500000000E-02 0.  1.
         -2   -1    0    0    0  501 -0.00000000000E+00 -0.00000000000E+00 -0.10434760717E+03  0.10434760720E+03  0.25500000000E-02 0. -1.
    5000001    1    1    2    0    0  0.10432343043E+03 -0.62869097951E+02  0.16630908775E+03  0.26404472023E+03  0.16500000000E+03 0.  0.
   -5000001    1    1    2    0    0 -0.10432343043E+03  0.62869097951E+02  0.13405274375E+03  0.24501232565E+03  0.16500000000E+03 0.  0.
<mgrwt>
<rscale>  0 0.41100103E+03</rscale>
<asrwt>0</asrwt>
<pdfrwt beam="1">  1        2 0.57815634E-01 0.41100103E+03</pdfrwt>
<pdfrwt beam="2">  1       -2 0.14906801E-01 0.41100103E+03</pdfrwt>
<totfact> 0.29790561E+03</totfact>
</mgrwt>
</event>
<event>
 4    1  0.5531008E-005  0.6308669E+03  0.7818608E-02  0.9843359E-01
          2   -1    0    0  501    0  0.00000000000E+00  0.00000000000E+00  0.46596670730E+03  0.46596670731E+03  0.25500000000E-02 0.  1.
         -2   -1    0    0    0  501 -0.00000000000E+00 -0.00000000000E+00 -0.21353082729E+03  0.21353082731E+03  0.25500000000E-02 0. -1.
    5000001    1    1    2    0    0 -0.18993634370E+03  0.17920267527E+03  0.19504903437E+03  0.36531977676E+03  0.16500000000E+03 0.  0.
   -5000001    1    1    2    0    0  0.18993634370E+03 -0.17920267527E+03  0.57386845638E+02  0.31417775786E+03  0.16500000000E+03 0.  0.
<mgrwt>
<rscale>  0 0.63086688E+03</rscale>
<asrwt>0</asrwt>
<pdfrwt beam="1">  1        2 0.66566672E-01 0.63086688E+03</pdfrwt>
<pdfrwt beam="2">  1       -2 0.30504404E-01 0.63086688E+03</pdfrwt>
<totfact> 0.72629792E+02</totfact>
</mgrwt>
</event>
<event>
 4    1  0.5531008E-005  0.4713319E+03  0.7818608E-02  0.1021545E+00
         -2   -1    0    0    0  501 -0.00000000000E+00  0.00000000000E+00  0.84666108387E+02  0.84666108425E+02  0.25500000000E-02 0. -1.
          2   -1    0    0  501    0  0.00000000000E+00 -0.00000000000E+00 -0.65597007487E+03  0.65597007487E+03  0.25500000000E-02 0.  1.
    5000001    1    1    2    0    0  0.35482419608E+02  0.14005622975E+03 -0.42117909039E+03  0.47485953268E+03  0.16500000000E+03 0.  0.
   -5000001    1    1    2    0    0 -0.35482419608E+02 -0.14005622975E+03 -0.15012487609E+03  0.26577665062E+03  0.16500000000E+03 0.  0.
<mgrwt>
<rscale>  0 0.47133187E+03</rscale>
<asrwt>0</asrwt>
<pdfrwt beam="1">  1        2 0.93710008E-01 0.47133187E+03</pdfrwt>
<pdfrwt beam="2">  1       -2 0.12095159E-01 0.47133187E+03</pdfrwt>
<totfact> 0.24353797E+03</totfact>
</mgrwt>
</event>
<event>
 4    1  0.5531008E-005  0.5393415E+03  0.7818608E-02  0.1003991E+00
         -2   -1    0    0    0  501 -0.00000000000E+00  0.00000000000E+00  0.13967145141E+03  0.13967145144E+03  0.25500000000E-02 0. -1.
          2   -1    0    0  501    0  0.00000000000E+00 -0.00000000000E+00 -0.52066692379E+03  0.52066692379E+03  0.25500000000E-02 0.  1.
    5000001    1    1    2    0    0 -0.17139489154E+03  0.10998742533E+03 -0.11283292639E+03  0.28535891760E+03  0.16500000000E+03 0.  0.
   -5000001    1    1    2    0    0  0.17139489154E+03 -0.10998742533E+03 -0.26816254598E+03  0.37497945763E+03  0.16500000000E+03 0.  0.
<mgrwt>
<rscale>  0 0.53934147E+03</rscale>
<asrwt>0</asrwt>
<pdfrwt beam="1">  1        2 0.74380988E-01 0.53934147E+03</pdfrwt>
<pdfrwt beam="2">  1       -2 0.19953065E-01 0.53934147E+03</pdfrwt>
<totfact> 0.13717742E+03</totfact>
</mgrwt>
</event>
<event>
 4    1  0.5531008E-005  0.4374524E+03  0.7818608E-02  0.1031531E+00
         -2   -1    0    0    0  501 -0.00000000000E+00  0.00000000000E+00  0.71667046251E+02  0.71667046297E+02  0.25500000000E-02 0. -1.
          2   -1    0    0  501    0  0.00000000000E+00 -0.00000000000E+00 -0.66754744398E+03  0.66754744398E+03  0.25500000000E-02 0.  1.
    5000001    1    1    2    0    0  0.65968280966E+01 -0.14291543440E+03 -0.31848478910E+03  0.38616822814E+03  0.16500000000E+03 0.  0.
   -5000001    1    1    2    0    0 -0.65968280966E+01  0.14291543440E+03 -0.27739560862E+03  0.35304626214E+03  0.16500000000E+03 0.  0.
<mgrwt>
<rscale>  0 0.43745241E+03</rscale>
<asrwt>0</asrwt>
<pdfrwt beam="1">  1        2 0.95363917E-01 0.43745241E+03</pdfrwt>
<pdfrwt beam="2">  1       -2 0.10238150E-01 0.43745241E+03</pdfrwt>
<totfact> 0.31248284E+03</totfact>
</mgrwt>
</event>
<event>
 4    1  0.5531008E-005  0.4769202E+03  0.7818608E-02  0.1019985E+00
         -2   -1    0    0    0  501 -0.00000000000E+00  0.00000000000E+00  0.45325612567E+03  0.45325612568E+03  0.25500000000E-02 0. -1.
          2   -1    0    0  501    0  0.00000000000E+00 -0.00000000000E+00 -0.12545491929E+03  0.12545491931E+03  0.25500000000E-02 0.  1.
    5000001    1    1    2    0    0  0.13574259469E+03  0.97320053895E+02  0.11327022137E+03  0.26067678829E+03  0.16500000000E+03 0.  0.
   -5000001    1    1    2    0    0 -0.13574259469E+03 -0.97320053895E+02  0.21453098501E+03  0.31803425670E+03  0.16500000000E+03 0.  0.
<mgrwt>
<rscale>  0 0.47692016E+03</rscale>
<asrwt>0</asrwt>
<pdfrwt beam="1">  1        2 0.17922131E-01 0.47692016E+03</pdfrwt>
<pdfrwt beam="2">  1       -2 0.64750875E-01 0.47692016E+03</pdfrwt>
<totfact> 0.71621170E+02</totfact>
</mgrwt>
</event>
<event>
 4    1  0.5531008E-005  0.4348695E+03  0.7818608E-02  0.1032333E+00
         -2   -1    0    0    0  501 -0.00000000000E+00  0.00000000000E+00  0.17023771809E+03  0.17023771811E+03  0.25500000000E-02 0. -1.
          2   -1    0    0  501    0  0.00000000000E+00 -0.00000000000E+00 -0.27771678804E+03  0.27771678805E+03  0.25500000000E-02 0.  1.
    5000001    1    1    2    0    0  0.78593262171E+02 -0.10902829955E+03 -0.78016863780E+01  0.21295524711E+03  0.16500000000E+03 0.  0.
   -5000001    1    1    2    0    0 -0.78593262171E+02  0.10902829955E+03 -0.99677383565E+02  0.23499925905E+03  0.16500000000E+03 0.  0.
<mgrwt>
<rscale>  0 0.43486951E+03</rscale>
<asrwt>0</asrwt>
<pdfrwt beam="1">  1        2 0.39673827E-01 0.43486951E+03</pdfrwt>
<pdfrwt beam="2">  1       -2 0.24319674E-01 0.43486951E+03</pdfrwt>
<totfact> 0.19406051E+03</totfact>
</mgrwt>
</event>
<event>
 4    1  0.5531008E-005  0.6811174E+03  0.7818608E-02  0.9750080E-01
         -2   -1    0    0    0  501 -0.00000000000E+00  0.00000000000E+00  0.24323495430E+03  0.24323495431E+03  0.25500000000E-02 0. -1.
          2   -1    0    0  501    0  0.00000000000E+00 -0.00000000000E+00 -0.47682390310E+03  0.47682390311E+03  0.25500000000E-02 0.  1.
    5000001    1    1    2    0    0  0.18783869643E+02 -0.18277060812E+03  0.13112847426E+03  0.27960258531E+03  0.16500000000E+03 0.  0.
   -5000001    1    1    2    0    0 -0.18783869643E+02  0.18277060812E+03 -0.36471742306E+03  0.44045627211E+03  0.16500000000E+03 0.  0.
<mgrwt>
<rscale>  0 0.68111744E+03</rscale>
<asrwt>0</asrwt>
<pdfrwt beam="1">  1        2 0.68117700E-01 0.68111744E+03</pdfrwt>
<pdfrwt beam="2">  1       -2 0.34747851E-01 0.68111744E+03</pdfrwt>
<totfact> 0.55369722E+02</totfact>
</mgrwt>
</event>
<event>
 4    1  0.5531008E-005  0.5544316E+03  0.7818608E-02  0.1000473E+00
         -2   -1    0    0    0  501 -0.00000000000E+00  0.00000000000E+00  0.49463985688E+03  0.49463985689E+03  0.25500000000E-02 0. -1.
          2   -1    0    0  501    0  0.00000000000E+00 -0.00000000000E+00 -0.15536274646E+03  0.15536274648E+03  0.25500000000E-02 0.  1.
    5000001    1    1    2    0    0 -0.81886832372E+02 -0.20625768761E+03  0.19236935020E+03  0.33686592869E+03  0.16500000000E+03 0.  0.
   -5000001    1    1    2    0    0  0.81886832372E+02  0.20625768761E+03  0.14690776021E+03  0.31313667468E+03  0.16500000000E+03 0.  0.
<mgrwt>
<rscale>  0 0.55443162E+03</rscale>
<asrwt>0</asrwt>
<pdfrwt beam="1">  1        2 0.22194678E-01 0.55443162E+03</pdfrwt>
<pdfrwt beam="2">  1       -2 0.70662837E-01 0.55443162E+03</pdfrwt>
<totfact> 0.46214490E+02</totfact>
</mgrwt>
</event>
<event>
 4    1  0.5531008E-005  0.4452567E+03  0.7818608E-02  0.1029146E+00
          2   -1    0    0  501    0  0.00000000000E+00  0.00000000000E+00  0.35572286782E+04  0.35572286782E+04  0.25500000000E-02 0.  1.
         -2   -1    0    0    0  501 -0.00000000000E+00 -0.00000000000E+00 -0.13933142901E+02  0.13933143134E+02  0.25500000000E-02 0. -1.
    5000001    1    1    2    0    0 -0.96365954092E+02 -0.96228239089E+02  0.12777475007E+04  0.12955346180E+04  0.16500000000E+03 0.  0.
   -5000001    1    1    2    0    0  0.96365954092E+02  0.96228239089E+02  0.22655480347E+04  0.22756272033E+04  0.16500000000E+03 0.  0.
<mgrwt>
<rscale>  0 0.44525667E+03</rscale>
<asrwt>0</asrwt>
<pdfrwt beam="1">  1        2 0.50817628E+00 0.44525667E+03</pdfrwt>
<pdfrwt beam="2">  1       -2 0.19904460E-02 0.44525667E+03</pdfrwt>
<totfact> 0.10301242E+03</totfact>
</mgrwt>
</event>
<event>
 4    1  0.5531008E-005  0.3964289E+03  0.7818608E-02  0.1045023E+00
          2   -1    0    0  501    0  0.00000000000E+00  0.00000000000E+00  0.30261282845E+03  0.30261282846E+03  0.25500000000E-02 0.  1.
         -2   -1    0    0    0  501 -0.00000000000E+00 -0.00000000000E+00 -0.12983248862E+03  0.12983248865E+03  0.25500000000E-02 0. -1.
    5000001    1    1    2    0    0 -0.28797657542E+02 -0.95941081683E+02  0.37241500501E+02  0.19658566986E+03  0.16500000000E+03 0.  0.
   -5000001    1    1    2    0    0  0.28797657542E+02  0.95941081683E+02  0.13553883932E+03  0.23585964725E+03  0.16500000000E+03 0.  0.
<mgrwt>
<rscale>  0 0.39642894E+03</rscale>
<asrwt>0</asrwt>
<pdfrwt beam="1">  1        2 0.43230404E-01 0.39642894E+03</pdfrwt>
<pdfrwt beam="2">  1       -2 0.18547498E-01 0.39642894E+03</pdfrwt>
<totfact> 0.28288106E+03</totfact>
</mgrwt>
</event>
<event>
 4    1  0.5531008E-005  0.4905379E+03  0.7818608E-02  0.1016279E+00
          2   -1    0    0  501    0  0.00000000000E+00  0.00000000000E+00  0.64326020138E+03  0.64326020139E+03  0.25500000000E-02 0.  1.
         -2   -1    0    0    0  501 -0.00000000000E+00 -0.00000000000E+00 -0.93518695870E+02  0.93518695904E+02  0.25500000000E-02 0. -1.
    5000001    1    1    2    0    0  0.28987327951E+02 -0.16276825608E+03  0.16249196155E+03  0.28453893923E+03  0.16500000000E+03 0.  0.
   -5000001    1    1    2    0    0 -0.28987327951E+02  0.16276825608E+03  0.38724954396E+03  0.45223995806E+03  0.16500000000E+03 0.  0.
<mgrwt>
<rscale>  0 0.49053789E+03</rscale>
<asrwt>0</asrwt>
<pdfrwt beam="1">  1        2 0.91894316E-01 0.49053789E+03</pdfrwt>
<pdfrwt beam="2">  1       -2 0.13359813E-01 0.49053789E+03</pdfrwt>
<totfact> 0.21166683E+03</totfact>
</mgrwt>
</event>
<event>
 4    1  0.5531008E-005  0.9702906E+03  0.7818608E-02  0.9341743E-01
          2   -1    0    0  501    0  0.00000000000E+00  0.00000000000E+00  0.13040160462E+04  0.13040160462E+04  0.25500000000E-02 0.  1.
         -2   -1    0    0    0  501 -0.00000000000E+00 -0.00000000000E+00 -0.18049313089E+03  0.18049313091E+03  0.25500000000E-02 0. -1.
    5000001    1    1    2    0    0  0.11101141847E+03 -0.43753537721E+03  0.66301912881E+03  0.81888955696E+03  0.16500000000E+03 0.  0.
   -5000001    1    1    2    0    0 -0.11101141847E+03  0.43753537721E+03  0.46050378650E+03  0.66561962015E+03  0.16500000000E+03 0.  0.
<mgrwt>
<rscale>  0 0.97029055E+03</rscale>
<asrwt>0</asrwt>
<pdfrwt beam="1">  1        2 0.18628800E+00 0.97029055E+03</pdfrwt>
<pdfrwt beam="2">  1       -2 0.25784734E-01 0.97029055E+03</pdfrwt>
<totfact> 0.25245441E+02</totfact>
</mgrwt>
</event>
<event>
 4    1  0.5531008E-005  0.7408528E+03  0.7818608E-02  0.9649811E-01
         -2   -1    0    0    0  501 -0.00000000000E+00  0.00000000000E+00  0.89093861335E+02  0.89093861372E+02  0.25500000000E-02 0. -1.
          2   -1    0    0  501    0  0.00000000000E+00 -0.00000000000E+00 -0.15401253187E+04  0.15401253187E+04  0.25500000000E-02 0.  1.
    5000001    1    1    2    0    0 -0.17290931165E+03  0.27059752640E+03 -0.90779104928E+03  0.97694945647E+03  0.16500000000E+03 0.  0.
   -5000001    1    1    2    0    0  0.17290931165E+03 -0.27059752640E+03 -0.54324040809E+03  0.65226972361E+03  0.16500000000E+03 0.  0.
<mgrwt>
<rscale>  0 0.74085278E+03</rscale>
<asrwt>0</asrwt>
<pdfrwt beam="1">  1        2 0.22001789E+00 0.74085278E+03</pdfrwt>
<pdfrwt beam="2">  1       -2 0.12727695E-01 0.74085278E+03</pdfrwt>
<totfact> 0.64931831E+02</totfact>
</mgrwt>
</event>
<event>
 4    1  0.5531008E-005  0.4382832E+03  0.7818608E-02  0.1031275E+00
         -2   -1    0    0    0  501 -0.00000000000E+00  0.00000000000E+00  0.14566880766E+03  0.14566880768E+03  0.25500000000E-02 0. -1.
          2   -1    0    0  501    0  0.00000000000E+00 -0.00000000000E+00 -0.32967270980E+03  0.32967270981E+03  0.25500000000E-02 0.  1.
    5000001    1    1    2    0    0  0.30678216042E+02  0.14069256316E+03 -0.83429154918E+02  0.23435224377E+03  0.16500000000E+03 0.  0.
   -5000001    1    1    2    0    0 -0.30678216042E+02 -0.14069256316E+03 -0.10057474722E+03  0.24098927372E+03  0.16500000000E+03 0.  0.
<mgrwt>
<rscale>  0 0.43828315E+03</rscale>
<asrwt>0</asrwt>
<pdfrwt beam="1">  1        2 0.47096101E-01 0.43828315E+03</pdfrwt>
<pdfrwt beam="2">  1       -2 0.20809830E-01 0.43828315E+03</pdfrwt>
<totfact> 0.21157966E+03</totfact>
</mgrwt>
</event>
<event>
 4    1  0.5531008E-005  0.5579421E+03  0.7818608E-02  0.9996722E-01
         -2   -1    0    0    0  501 -0.00000000000E+00  0.00000000000E+00  0.75116121336E+02  0.75116121379E+02  0.25500000000E-02 0. -1.
          2   -1    0    0  501    0  0.00000000000E+00 -0.00000000000E+00 -0.10360603229E+04  0.10360603229E+04  0.25500000000E-02 0.  1.
    5000001    1    1    2    0    0  0.22027158954E+03  0.23575091494E+02 -0.40271249245E+03  0.48834179596E+03  0.16500000000E+03 0.  0.
   -5000001    1    1    2    0    0 -0.22027158954E+03 -0.23575091494E+02 -0.55823170911E+03  0.62283464832E+03  0.16500000000E+03 0.  0.
<mgrwt>
<rscale>  0 0.55794205E+03</rscale>
<asrwt>0</asrwt>
<pdfrwt beam="1">  1        2 0.14800861E+00 0.55794205E+03</pdfrwt>
<pdfrwt beam="2">  1       -2 0.10730875E-01 0.55794205E+03</pdfrwt>
<totfact> 0.16401882E+03</totfact>
</mgrwt>
</event>
<event>
 4    1  0.5531008E-005  0.1079787E+04  0.7818608E-02  0.9225120E-01
         -2   -1    0    0    0  501 -0.00000000000E+00  0.00000000000E+00  0.20780527144E+03  0.20780527145E+03  0.25500000000E-02 0. -1.
          2   -1    0    0  501    0  0.00000000000E+00 -0.00000000000E+00 -0.14026824008E+04  0.14026824008E+04  0.25500000000E-02 0.  1.
    5000001    1    1    2    0    0 -0.25672330038E+03 -0.44358366448E+03 -0.53803174487E+03  0.76116783881E+03  0.16500000000E+03 0.  0.
   -5000001    1    1    2    0    0  0.25672330038E+03  0.44358366448E+03 -0.65684538450E+03  0.84931983345E+03  0.16500000000E+03 0.  0.
<mgrwt>
<rscale>  0 0.10797866E+04</rscale>
<asrwt>0</asrwt>
<pdfrwt beam="1">  1        2 0.20038319E+00 0.10797866E+04</pdfrwt>
<pdfrwt beam="2">  1       -2 0.29686468E-01 0.10797866E+04</pdfrwt>
<totfact> 0.17106810E+02</totfact>
</mgrwt>
</event>
<event>
 4    1  0.5531008E-005  0.4728008E+03  0.7818608E-02  0.1021133E+00
         -2   -1    0    0    0  501 -0.00000000000E+00  0.00000000000E+00  0.67128656004E+02  0.67128656052E+02  0.25500000000E-02 0. -1.
          2   -1    0    0  501    0  0.00000000000E+00 -0.00000000000E+00 -0.83250811116E+03  0.83250811116E+03  0.25500000000E-02 0.  1.
    5000001    1    1    2    0    0 -0.13192664930E+03  0.41129537061E+02 -0.19660709437E+03  0.29150579612E+03  0.16500000000E+03 0.  0.
   -5000001    1    1    2    0    0  0.13192664930E+03 -0.41129537061E+02 -0.56877236078E+03  0.60813097109E+03  0.16500000000E+03 0.  0.
<mgrwt>
<rscale>  0 0.47280081E+03</rscale>
<asrwt>0</asrwt>
<pdfrwt beam="1">  1        2 0.11892972E+00 0.47280081E+03</pdfrwt>
<pdfrwt beam="2">  1       -2 0.95898085E-02 0.47280081E+03</pdfrwt>
<totfact> 0.26439546E+03</totfact>
</mgrwt>
</event>
<event>
 4    1  0.5531008E-005  0.5002049E+03  0.7818608E-02  0.1013725E+00
          2   -1    0    0  501    0  0.00000000000E+00  0.00000000000E+00  0.10208776210E+04  0.10208776210E+04  0.25500000000E-02 0.  1.
         -2   -1    0    0    0  501 -0.00000000000E+00 -0.00000000000E+00 -0.61272028939E+02  0.61272028992E+02  0.25500000000E-02 0. -1.
    5000001    1    1    2    0    0  0.72378706260E+02  0.13154856194E+03  0.23520757500E+03  0.32417789037E+03  0.16500000000E+03 0.  0.
   -5000001    1    1    2    0    0 -0.72378706260E+02 -0.13154856194E+03  0.72439801711E+03  0.75797175967E+03  0.16500000000E+03 0.  0.
<mgrwt>
<rscale>  0 0.50020493E+03</rscale>
<asrwt>0</asrwt>
<pdfrwt beam="1">  1        2 0.14583966E+00 0.50020493E+03</pdfrwt>
<pdfrwt beam="2">  1       -2 0.87531472E-02 0.50020493E+03</pdfrwt>
<totfact> 0.23273310E+03</totfact>
</mgrwt>
</event>
<event>
 4    1  0.5531008E-005  0.5680101E+03  0.7818608E-02  0.9974092E-01
          2   -1    0    0  501    0  0.00000000000E+00  0.00000000000E+00  0.13978277885E+03  0.13978277887E+03  0.25500000000E-02 0.  1.
         -2   -1    0    0    0  501 -0.00000000000E+00 -0.00000000000E+00 -0.57702999965E+03  0.57702999966E+03  0.25500000000E-02 0. -1.
    5000001    1    1    2    0    0  0.22901092516E+03  0.24830818032E+02 -0.19430702883E+03  0.34357356536E+03  0.16500000000E+03 0.  0.
   -5000001    1    1    2    0    0 -0.22901092516E+03 -0.24830818032E+02 -0.24294019198E+03  0.37323921316E+03  0.16500000000E+03 0.  0.
<mgrwt>
<rscale>  0 0.56801006E+03</rscale>
<asrwt>0</asrwt>
<pdfrwt beam="1">  1        2 0.19968969E-01 0.56801006E+03</pdfrwt>
<pdfrwt beam="2">  1       -2 0.82432856E-01 0.56801006E+03</pdfrwt>
<totfact> 0.37150900E+02</totfact>
</mgrwt>
</event>
<event>
 4    1  0.5531008E-005  0.3954557E+03  0.7818608E-02  0.1045365E+00
          2   -1    0    0  501    0  0.00000000000E+00  0.00000000000E+00  0.28141591150E+04  0.28141591150E+04  0.25500000000E-02 0.  1.
         -2   -1    0    0    0  501 -0.00000000000E+00 -0.00000000000E+00 -0.13892710935E+02  0.13892711169E+02  0.25500000000E-02 0. -1.
    5000001    1    1    2    0    0 -0.94990105405E+02  0.31648665761E+02  0.10928286086E+04  0.11097405670E+04  0.16500000000E+03 0.  0.
   -5000001    1    1    2    0    0  0.94990105405E+02 -0.31648665761E+02  0.17074377954E+04  0.17183112592E+04  0.16500000000E+03 0.  0.
<mgrwt>
<rscale>  0 0.39545568E+03</rscale>
<asrwt>0</asrwt>
<pdfrwt beam="1">  1        2 0.40202289E+00 0.39545568E+03</pdfrwt>
<pdfrwt beam="2">  1       -2 0.19846722E-02 0.39545568E+03</pdfrwt>
<totfact> 0.26905860E+03</totfact>
</mgrwt>
</event>
<event>
 4    1  0.5531008E-005  0.4590925E+03  0.7818608E-02  0.1025045E+00
         -2   -1    0    0    0  501 -0.00000000000E+00  0.00000000000E+00  0.16573817914E+03  0.16573817916E+03  0.25500000000E-02 0. -1.
          2   -1    0    0  501    0  0.00000000000E+00 -0.00000000000E+00 -0.31791998204E+03  0.31791998205E+03  0.25500000000E-02 0.  1.
    5000001    1    1    2    0    0 -0.11911128357E+03 -0.79536754950E+02 -0.15023344527E+03  0.26515784231E+03  0.16500000000E+03 0.  0.
   -5000001    1    1    2    0    0  0.11911128357E+03  0.79536754950E+02 -0.19483576256E+01  0.21850031890E+03  0.16500000000E+03 0.  0.
<mgrwt>
<rscale>  0 0.45909249E+03</rscale>
<asrwt>0</asrwt>
<pdfrwt beam="1">  1        2 0.45417140E-01 0.45909249E+03</pdfrwt>
<pdfrwt beam="2">  1       -2 0.23676883E-01 0.45909249E+03</pdfrwt>
<totfact> 0.17560878E+03</totfact>
</mgrwt>
</event>
<event>
 4    1  0.5531008E-005  0.5215512E+03  0.7818608E-02  0.1008302E+00
          2   -1    0    0  501    0  0.00000000000E+00  0.00000000000E+00  0.13883077440E+03  0.13883077442E+03  0.25500000000E-02 0.  1.
         -2   -1    0    0    0  501 -0.00000000000E+00 -0.00000000000E+00 -0.48983314958E+03  0.48983314959E+03  0.25500000000E-02 0. -1.
    5000001    1    1    2    0    0 -0.12990701752E+03 -0.15434676315E+03 -0.18629308279E+03  0.32035740851E+03  0.16500000000E+03 0.  0.
   -5000001    1    1    2    0    0  0.12990701752E+03  0.15434676315E+03 -0.16470929239E+03  0.30830651549E+03  0.16500000000E+03 0.  0.
<mgrwt>
<rscale>  0 0.52155121E+03</rscale>
<asrwt>0</asrwt>
<pdfrwt beam="1">  1        2 0.19832968E-01 0.52155121E+03</pdfrwt>
<pdfrwt beam="2">  1       -2 0.69976164E-01 0.52155121E+03</pdfrwt>
<totfact> 0.53816386E+02</totfact>
</mgrwt>
</event>
<event>
 4    1  0.5531008E-005  0.5124737E+03  0.7818608E-02  0.1010573E+00
          2   -1    0    0  501    0  0.00000000000E+00  0.00000000000E+00  0.19123757216E+03  0.19123757218E+03  0.25500000000E-02 0.  1.
         -2   -1    0    0    0  501 -0.00000000000E+00 -0.00000000000E+00 -0.34332850906E+03  0.34332850907E+03  0.25500000000E-02 0. -1.
    5000001    1    1    2    0    0  0.15560011948E+03 -0.74446914969E+02  0.21129397253E+02  0.23963553943E+03  0.16500000000E+03 0.  0.
   -5000001    1    1    2    0    0 -0.15560011948E+03  0.74446914969E+02 -0.17322033415E+03  0.29493054181E+03  0.16500000000E+03 0.  0.
<mgrwt>
<rscale>  0 0.51247365E+03</rscale>
<asrwt>0</asrwt>
<pdfrwt beam="1">  1        2 0.27319653E-01 0.51247365E+03</pdfrwt>
<pdfrwt beam="2">  1       -2 0.49046930E-01 0.51247365E+03</pdfrwt>
<totfact> 0.78261061E+02</totfact>
</mgrwt>
</event>
<event>
 4    1  0.5531008E-005  0.4756025E+03  0.7818608E-02  0.1020351E+00
          2   -1    0    0  501    0  0.00000000000E+00  0.00000000000E+00  0.24360750065E+03  0.24360750066E+03  0.25500000000E-02 0.  1.
         -2   -1    0    0    0  501 -0.00000000000E+00 -0.00000000000E+00 -0.23213341346E+03  0.23213341347E+03  0.25500000000E-02 0. -1.
    5000001    1    1    2    0    0  0.14525948207E+03  0.77027118497E+02 -0.42140717108E+02  0.23671572435E+03  0.16500000000E+03 0.  0.
   -5000001    1    1    2    0    0 -0.14525948207E+03 -0.77027118497E+02  0.53614804303E+02  0.23902518979E+03  0.16500000000E+03 0.  0.
<mgrwt>
<rscale>  0 0.47560253E+03</rscale>
<asrwt>0</asrwt>
<pdfrwt beam="1">  1        2 0.34801072E-01 0.47560253E+03</pdfrwt>
<pdfrwt beam="2">  1       -2 0.33161916E-01 0.47560253E+03</pdfrwt>
<totfact> 0.12752878E+03</totfact>
</mgrwt>
</event>
<event>
 4    1  0.5531008E-005  0.6700028E+03  0.7818608E-02  0.9769953E-01
         -2   -1    0    0    0  501 -0.00000000000E+00  0.00000000000E+00  0.14109241868E+03  0.14109241870E+03  0.25500000000E-02 0.  1.
          2   -1    0    0  501    0  0.00000000000E+00 -0.00000000000E+00 -0.79540724396E+03  0.79540724396E+03  0.25500000000E-02 0. -1.
    5000001    1    1    2    0    0 -0.23273997472E+03 -0.16891909946E+03 -0.26013256771E+03  0.42142082386E+03  0.16500000000E+03 0.  0.
   -5000001    1    1    2    0    0  0.23273997472E+03  0.16891909946E+03 -0.39418225758E+03  0.51507883881E+03  0.16500000000E+03 0.  0.
<mgrwt>
<rscale>  0 0.67000278E+03</rscale>
<asrwt>0</asrwt>
<pdfrwt beam="1">  1        2 0.11362960E+00 0.67000278E+03</pdfrwt>
<pdfrwt beam="2">  1       -2 0.20156060E-01 0.67000278E+03</pdfrwt>
<totfact> 0.80872181E+02</totfact>
</mgrwt>
</event>
<event>
 4    1  0.5531008E-005  0.5870892E+03  0.7818608E-02  0.9932560E-01
         -2   -1    0    0    0  501 -0.00000000000E+00  0.00000000000E+00  0.89725316116E+02  0.89725316152E+02  0.25500000000E-02 0. -1.
          2   -1    0    0  501    0  0.00000000000E+00 -0.00000000000E+00 -0.96035806430E+03  0.96035806430E+03  0.25500000000E-02 0.  1.
    5000001    1    1    2    0    0  0.78608811825E+02  0.22145411018E+03 -0.54443964467E+03  0.61551668938E+03  0.16500000000E+03 0.  0.
   -5000001    1    1    2    0    0 -0.78608811825E+02 -0.22145411018E+03 -0.32619310351E+03  0.43456669108E+03  0.16500000000E+03 0.  0.
<mgrwt>
<rscale>  0 0.58708920E+03</rscale>
<asrwt>0</asrwt>
<pdfrwt beam="1">  1        2 0.13719400E+00 0.58708920E+03</pdfrwt>
<pdfrwt beam="2">  1       -2 0.12817903E-01 0.58708920E+03</pdfrwt>
<totfact> 0.13618491E+03</totfact>
</mgrwt>
</event>
<event>
 4    1  0.5531008E-005  0.8230030E+03  0.7818608E-02  0.9527305E-01
          2   -1    0    0  501    0  0.00000000000E+00  0.00000000000E+00  0.27650664002E+03  0.27650664003E+03  0.25500000000E-02 0.  1.
         -2   -1    0    0    0  501 -0.00000000000E+00 -0.00000000000E+00 -0.61240303064E+03  0.61240303065E+03  0.25500000000E-02 0. -1.
    5000001    1    1    2    0    0  0.25841354476E+03 -0.19873565194E+03 -0.37240916022E+03  0.52171544168E+03  0.16500000000E+03 0.  0.
   -5000001    1    1    2    0    0 -0.25841354476E+03  0.19873565194E+03  0.36512769596E+02  0.36719422900E+03  0.16500000000E+03 0.  0.
<mgrwt>
<rscale>  0 0.82300305E+03</rscale>
<asrwt>0</asrwt>
<pdfrwt beam="1">  1        2 0.39500949E-01 0.82300305E+03</pdfrwt>
<pdfrwt beam="2">  1       -2 0.87486147E-01 0.82300305E+03</pdfrwt>
<totfact> 0.14830676E+02</totfact>
</mgrwt>
</event>
<event>
 4    1  0.5531008E-005  0.4954265E+03  0.7818608E-02  0.1014980E+00
         -2   -1    0    0    0  501 -0.00000000000E+00  0.00000000000E+00  0.20964865821E+02  0.20964865976E+02  0.25500000000E-02 0. -1.
          2   -1    0    0  501    0  0.00000000000E+00 -0.00000000000E+00 -0.29268897598E+04  0.29268897598E+04  0.25500000000E-02 0.  1.
    5000001    1    1    2    0    0  0.31179407566E+02  0.16425134733E+03 -0.19209545166E+04  0.19352627510E+04  0.16500000000E+03 0.  0.
   -5000001    1    1    2    0    0 -0.31179407566E+02 -0.16425134733E+03 -0.98497037746E+03  0.10125918749E+04  0.16500000000E+03 0.  0.
<mgrwt>
<rscale>  0 0.49542649E+03</rscale>
<asrwt>0</asrwt>
<pdfrwt beam="1">  1        2 0.41812685E+00 0.49542649E+03</pdfrwt>
<pdfrwt beam="2">  1       -2 0.29949827E-02 0.49542649E+03</pdfrwt>
<totfact> 0.12553037E+03</totfact>
</mgrwt>
</event>
<event>
 4    1  0.5531008E-005  0.5209696E+03  0.7818608E-02  0.1008446E+00
          2   -1    0    0  501    0  0.00000000000E+00  0.00000000000E+00  0.53918935481E+02  0.53918935541E+02  0.25500000000E-02 0.  1.
         -2   -1    0    0    0  501 -0.00000000000E+00 -0.00000000000E+00 -0.12584135898E+04  0.12584135898E+04  0.25500000000E-02 0. -1.
    5000001    1    1    2    0    0  0.17257263841E+02  0.17707556514E+03 -0.36362087704E+03  0.43714838572E+03  0.16500000000E+03 0.  0.
   -5000001    1    1    2    0    0 -0.17257263841E+02 -0.17707556514E+03 -0.84087377732E+03  0.87518413966E+03  0.16500000000E+03 0.  0.
<mgrwt>
<rscale>  0 0.52096956E+03</rscale>
<asrwt>0</asrwt>
<pdfrwt beam="1">  1        2 0.77027059E-02 0.52096956E+03</pdfrwt>
<pdfrwt beam="2">  1       -2 0.17977335E+00 0.52096956E+03</pdfrwt>
<totfact> 0.17329129E+02</totfact>
</mgrwt>
</event>
<event>
 4    1  0.5531008E-005  0.5820498E+03  0.7818608E-02  0.9943363E-01
         -2   -1    0    0    0  501 -0.00000000000E+00  0.00000000000E+00  0.37812818880E+02  0.37812818966E+02  0.25500000000E-02 0. -1.
          2   -1    0    0  501    0  0.00000000000E+00 -0.00000000000E+00 -0.22398618909E+04  0.22398618909E+04  0.25500000000E-02 0.  1.
    5000001    1    1    2    0    0  0.18253220162E+03  0.70217770514E+02 -0.16435627111E+04  0.16633616339E+04  0.16500000000E+03 0.  0.
   -5000001    1    1    2    0    0 -0.18253220162E+03 -0.70217770514E+02 -0.55848636090E+03  0.61431307591E+03  0.16500000000E+03 0.  0.
<mgrwt>
<rscale>  0 0.58204980E+03</rscale>
<asrwt>0</asrwt>
<pdfrwt beam="1">  1        2 0.31998019E+00 0.58204980E+03</pdfrwt>
<pdfrwt beam="2">  1       -2 0.54018327E-02 0.58204980E+03</pdfrwt>
<totfact> 0.11432642E+03</totfact>
</mgrwt>
</event>
<event>
 4    1  0.5531008E-005  0.7192467E+03  0.7818608E-02  0.9684872E-01
          2   -1    0    0  501    0  0.00000000000E+00  0.00000000000E+00  0.83657060118E+03  0.83657060118E+03  0.25500000000E-02 0.  1.
         -2   -1    0    0    0  501 -0.00000000000E+00 -0.00000000000E+00 -0.15459420384E+03  0.15459420386E+03  0.25500000000E-02 0. -1.
    5000001    1    1    2    0    0  0.20928898023E+03 -0.12352096788E+02  0.86800273051E+01  0.26693593691E+03  0.16500000000E+03 0.  0.
   -5000001    1    1    2    0    0 -0.20928898023E+03  0.12352096788E+02  0.67329637003E+03  0.72422886813E+03  0.16500000000E+03 0.  0.
<mgrwt>
<rscale>  0 0.71924673E+03</rscale>
<asrwt>0</asrwt>
<pdfrwt beam="1">  1        2 0.11951009E+00 0.71924673E+03</pdfrwt>
<pdfrwt beam="2">  1       -2 0.22084886E-01 0.71924673E+03</pdfrwt>
<totfact> 0.64427178E+02</totfact>
</mgrwt>
</event>
<event>
 4    1  0.5531008E-005  0.4918353E+03  0.7818608E-02  0.1015932E+00
         -2   -1    0    0    0  501 -0.00000000000E+00  0.00000000000E+00  0.42987635897E+02  0.42987635973E+02  0.25500000000E-02 0. -1.
          2   -1    0    0  501    0  0.00000000000E+00 -0.00000000000E+00 -0.14068114753E+04  0.14068114753E+04  0.25500000000E-02 0.  1.
    5000001    1    1    2    0    0  0.65146593764E+02 -0.72583440575E+02 -0.22774995626E+03  0.29767008096E+03  0.16500000000E+03 0.  0.
   -5000001    1    1    2    0    0 -0.65146593764E+02  0.72583440575E+02 -0.11360738831E+04  0.11521290303E+04  0.16500000000E+03 0.  0.
<mgrwt>
<rscale>  0 0.49183534E+03</rscale>
<asrwt>0</asrwt>
<pdfrwt beam="1">  1        2 0.20097304E+00 0.49183534E+03</pdfrwt>
<pdfrwt beam="2">  1       -2 0.61410917E-02 0.49183534E+03</pdfrwt>
<totfact> 0.24828225E+03</totfact>
</mgrwt>
</event>
<event>
 4    1  0.5531008E-005  0.8016960E+03  0.7818608E-02  0.9557566E-01
         -2   -1    0    0    0  501 -0.00000000000E+00  0.00000000000E+00  0.16945661137E+03  0.16945661139E+03  0.25500000000E-02 0. -1.
          2   -1    0    0  501    0  0.00000000000E+00 -0.00000000000E+00 -0.94820204848E+03  0.94820204849E+03  0.25500000000E-02 0.  1.
    5000001    1    1    2    0    0  0.22116147016E+03 -0.26139087661E+03 -0.21184003555E+03  0.43513076991E+03  0.16500000000E+03 0.  0.
   -5000001    1    1    2    0    0 -0.22116147016E+03  0.26139087661E+03 -0.56690540157E+03  0.68252788997E+03  0.16500000000E+03 0.  0.
<mgrwt>
<rscale>  0 0.80169597E+03</rscale>
<asrwt>0</asrwt>
<pdfrwt beam="1">  1        2 0.13545743E+00 0.80169597E+03</pdfrwt>
<pdfrwt beam="2">  1       -2 0.24208088E-01 0.80169597E+03</pdfrwt>
<totfact> 0.46094961E+02</totfact>
</mgrwt>
</event>
<event>
 4    1  0.5531008E-005  0.8984919E+03  0.7818608E-02  0.9427469E-01
          2   -1    0    0  501    0  0.00000000000E+00  0.00000000000E+00  0.93883315327E+03  0.93883315328E+03  0.25500000000E-02 0.  1.
         -2   -1    0    0    0  501 -0.00000000000E+00 -0.00000000000E+00 -0.21497104248E+03  0.21497104249E+03  0.25500000000E-02 0. -1.
    5000001    1    1    2    0    0  0.36131185398E+03 -0.86732237060E+02  0.11649854284E+03  0.42292510833E+03  0.16500000000E+03 0.  0.
   -5000001    1    1    2    0    0 -0.36131185398E+03  0.86732237060E+02  0.60736356795E+03  0.73087908744E+03  0.16500000000E+03 0.  0.
<mgrwt>
<rscale>  0 0.89849194E+03</rscale>
<asrwt>0</asrwt>
<pdfrwt beam="1">  1        2 0.13411902E+00 0.89849194E+03</pdfrwt>
<pdfrwt beam="2">  1       -2 0.30710149E-01 0.89849194E+03</pdfrwt>
<totfact> 0.30112034E+02</totfact>
</mgrwt>
</event>
<event>
 4    1  0.5531008E-005  0.4692868E+03  0.7818608E-02  0.1022122E+00
          2   -1    0    0  501    0  0.00000000000E+00  0.00000000000E+00  0.89802920367E+03  0.89802920368E+03  0.25500000000E-02 0.  1.
         -2   -1    0    0    0  501 -0.00000000000E+00 -0.00000000000E+00 -0.61309284116E+02  0.61309284169E+02  0.25500000000E-02 0. -1.
    5000001    1    1    2    0    0 -0.13757775642E+03 -0.86632407516E+02  0.34187901312E+03  0.41296376682E+03  0.16500000000E+03 0.  0.
   -5000001    1    1    2    0    0  0.13757775642E+03  0.86632407516E+02  0.49484090644E+03  0.54637472103E+03  0.16500000000E+03 0.  0.
<mgrwt>
<rscale>  0 0.46928681E+03</rscale>
<asrwt>0</asrwt>
<pdfrwt beam="1">  1        2 0.12828988E+00 0.46928681E+03</pdfrwt>
<pdfrwt beam="2">  1       -2 0.87584696E-02 0.46928681E+03</pdfrwt>
<totfact> 0.27692761E+03</totfact>
</mgrwt>
</event>
<event>
 4    1  0.5531008E-005  0.3443073E+03  0.7818608E-02  0.1064976E+00
          2   -1    0    0  501    0  0.00000000000E+00  0.00000000000E+00  0.96149881956E+03  0.96149881956E+03  0.25500000000E-02 0.  1.
         -2   -1    0    0    0  501 -0.00000000000E+00 -0.00000000000E+00 -0.30823629218E+02  0.30823629323E+02  0.25500000000E-02 0. -1.
    5000001    1    1    2    0    0  0.20756534168E+02  0.95751191954E+01  0.34006252145E+03  0.37866876702E+03  0.16500000000E+03 0.  0.
   -5000001    1    1    2    0    0 -0.20756534168E+02 -0.95751191954E+01  0.59061266889E+03  0.61365368187E+03  0.16500000000E+03 0.  0.
<mgrwt>
<rscale>  0 0.34430732E+03</rscale>
<asrwt>0</asrwt>
<pdfrwt beam="1">  1        2 0.13735696E+00 0.34430732E+03</pdfrwt>
<pdfrwt beam="2">  1       -2 0.44033759E-02 0.34430732E+03</pdfrwt>
<totfact> 0.73330852E+03</totfact>
</mgrwt>
</event>
<event>
 4    1  0.5531008E-005  0.1174306E+04  0.7818608E-02  0.9135649E-01
         -2   -1    0    0    0  501 -0.00000000000E+00  0.00000000000E+00  0.24151892237E+03  0.24151892239E+03  0.25500000000E-02 0. -1.
          2   -1    0    0  501    0  0.00000000000E+00 -0.00000000000E+00 -0.14274182548E+04  0.14274182548E+04  0.25500000000E-02 0.  1.
    5000001    1    1    2    0    0 -0.49437369415E+03  0.21921829342E+03 -0.36796008983E+03  0.67459738907E+03  0.16500000000E+03 0.  0.
   -5000001    1    1    2    0    0  0.49437369415E+03 -0.21921829342E+03 -0.81793924256E+03  0.99433978808E+03  0.16500000000E+03 0.  0.
<mgrwt>
<rscale>  0 0.11743058E+04</rscale>
<asrwt>0</asrwt>
<pdfrwt beam="1">  1        2 0.20391689E+00 0.11743058E+04</pdfrwt>
<pdfrwt beam="2">  1       -2 0.34502704E-01 0.11743058E+04</pdfrwt>
<totfact> 0.12428691E+02</totfact>
</mgrwt>
</event>
<event>
 4    1  0.5531008E-005  0.4791704E+03  0.7818608E-02  0.1019363E+00
         -2   -1    0    0    0  501 -0.00000000000E+00  0.00000000000E+00  0.21899372517E+03  0.21899372518E+03  0.25500000000E-02 0. -1.
          2   -1    0    0  501    0  0.00000000000E+00 -0.00000000000E+00 -0.26211282465E+03  0.26211282466E+03  0.25500000000E-02 0.  1.
    5000001    1    1    2    0    0 -0.11141456472E+03 -0.39988587246E+02 -0.14921008928E+03  0.25199393462E+03  0.16500000000E+03 0.  0.
   -5000001    1    1    2    0    0  0.11141456472E+03  0.39988587246E+02  0.10609098980E+03  0.22911261523E+03  0.16500000000E+03 0.  0.
<mgrwt>
<rscale>  0 0.47917038E+03</rscale>
<asrwt>0</asrwt>
<pdfrwt beam="1">  1        2 0.37444689E-01 0.47917038E+03</pdfrwt>
<pdfrwt beam="2">  1       -2 0.31284818E-01 0.47917038E+03</pdfrwt>
<totfact> 0.13109980E+03</totfact>
</mgrwt>
</event>
<event>
 4    1  0.5531008E-005  0.3649083E+03  0.7818608E-02  0.1056657E+00
          2   -1    0    0  501    0  0.00000000000E+00  0.00000000000E+00  0.60464721839E+03  0.60464721839E+03  0.25500000000E-02 0.  1.
         -2   -1    0    0    0  501 -0.00000000000E+00 -0.00000000000E+00 -0.55056111629E+02  0.55056111688E+02  0.25500000000E-02 0. -1.
    5000001    1    1    2    0    0  0.59556637070E+02 -0.49095027171E+02  0.25607655297E+03  0.31425708535E+03  0.16500000000E+03 0.  0.
   -5000001    1    1    2    0    0 -0.59556637070E+02  0.49095027171E+02  0.29351455379E+03  0.34544624473E+03  0.16500000000E+03 0.  0.
<mgrwt>
<rscale>  0 0.36490834E+03</rscale>
<asrwt>0</asrwt>
<pdfrwt beam="1">  1        2 0.86378175E-01 0.36490834E+03</pdfrwt>
<pdfrwt beam="2">  1       -2 0.78651587E-02 0.36490834E+03</pdfrwt>
<totfact> 0.53238364E+03</totfact>
</mgrwt>
</event>
<event>
 4    1  0.5531008E-005  0.4194764E+03  0.7818608E-02  0.1037237E+00
          2   -1    0    0  501    0  0.00000000000E+00  0.00000000000E+00  0.20142071054E+04  0.20142071054E+04  0.25500000000E-02 0.  1.
         -2   -1    0    0    0  501 -0.00000000000E+00 -0.00000000000E+00 -0.21839912286E+02  0.21839912435E+02  0.25500000000E-02 0. -1.
    5000001    1    1    2    0    0 -0.12678217580E+02  0.11846421078E+03  0.75009155440E+03  0.77721094075E+03  0.16500000000E+03 0.  0.
   -5000001    1    1    2    0    0  0.12678217580E+02 -0.11846421078E+03  0.12422756387E+04  0.12588360771E+04  0.16500000000E+03 0.  0.
<mgrwt>
<rscale>  0 0.41947637E+03</rscale>
<asrwt>0</asrwt>
<pdfrwt beam="1">  1        2 0.28774372E+00 0.41947637E+03</pdfrwt>
<pdfrwt beam="2">  1       -2 0.31199891E-02 0.41947637E+03</pdfrwt>
<totfact> 0.34612355E+03</totfact>
</mgrwt>
</event>
<event>
 4    1  0.5531008E-005  0.4498167E+03  0.7818608E-02  0.1027777E+00
         -2   -1    0    0    0  501 -0.00000000000E+00  0.00000000000E+00  0.29857344296E+03  0.29857344297E+03  0.25500000000E-02 0. -1.
          2   -1    0    0  501    0  0.00000000000E+00 -0.00000000000E+00 -0.16941813801E+03  0.16941813803E+03  0.25500000000E-02 0.  1.
    5000001    1    1    2    0    0  0.90497768121E+01  0.11089929046E+03 -0.44432810996E+02  0.20391131842E+03  0.16500000000E+03 0.  0.
   -5000001    1    1    2    0    0 -0.90497768121E+01 -0.11089929046E+03  0.17358811594E+03  0.26408026258E+03  0.16500000000E+03 0.  0.
<mgrwt>
<rscale>  0 0.44981666E+03</rscale>
<asrwt>0</asrwt>
<pdfrwt beam="1">  1        2 0.24202591E-01 0.44981666E+03</pdfrwt>
<pdfrwt beam="2">  1       -2 0.42653349E-01 0.44981666E+03</pdfrwt>
<totfact> 0.11839359E+03</totfact>
</mgrwt>
</event>
<event>
 4    1  0.5531008E-005  0.4375898E+03  0.7818608E-02  0.1031489E+00
          2   -1    0    0  501    0  0.00000000000E+00  0.00000000000E+00  0.99070492074E+03  0.99070492075E+03  0.25500000000E-02 0.  1.
         -2   -1    0    0    0  501 -0.00000000000E+00 -0.00000000000E+00 -0.48320349227E+02  0.48320349295E+02  0.25500000000E-02 0. -1.
    5000001    1    1    2    0    0 -0.41152190890E+02 -0.13284299406E+03  0.55698255470E+03  0.59732347194E+03  0.16500000000E+03 0.  0.
   -5000001    1    1    2    0    0  0.41152190890E+02  0.13284299406E+03  0.38540201682E+03  0.44170179811E+03  0.16500000000E+03 0.  0.
<mgrwt>
<rscale>  0 0.43758980E+03</rscale>
<asrwt>0</asrwt>
<pdfrwt beam="1">  1        2 0.14152928E+00 0.43758980E+03</pdfrwt>
<pdfrwt beam="2">  1       -2 0.69029067E-02 0.43758980E+03</pdfrwt>
<totfact> 0.35315079E+03</totfact>
</mgrwt>
</event>
<event>
 4    1  0.5531008E-005  0.6162326E+03  0.7818608E-02  0.9872289E-01
          2   -1    0    0  501    0  0.00000000000E+00  0.00000000000E+00  0.53425688917E+03  0.53425688917E+03  0.25500000000E-02 0.  1.
         -2   -1    0    0    0  501 -0.00000000000E+00 -0.00000000000E+00 -0.17769661933E+03  0.17769661935E+03  0.25500000000E-02 0. -1.
    5000001    1    1    2    0    0  0.23318857145E+03 -0.66754357981E+01  0.31146532906E+03  0.42267850963E+03  0.16500000000E+03 0.  0.
   -5000001    1    1    2    0    0 -0.23318857145E+03  0.66754357981E+01  0.45094940771E+02  0.28927499889E+03  0.16500000000E+03 0.  0.
<mgrwt>
<rscale>  0 0.61623256E+03</rscale>
<asrwt>0</asrwt>
<pdfrwt beam="1">  1        2 0.76322413E-01 0.61623256E+03</pdfrwt>
<pdfrwt beam="2">  1       -2 0.25385231E-01 0.61623256E+03</pdfrwt>
<totfact> 0.86952631E+02</totfact>
</mgrwt>
</event>
<event>
 4    1  0.5531008E-005  0.5436257E+03  0.7818608E-02  0.1002980E+00
          2   -1    0    0  501    0  0.00000000000E+00  0.00000000000E+00  0.58463149445E+03  0.58463149445E+03  0.25500000000E-02 0.  1.
         -2   -1    0    0    0  501 -0.00000000000E+00 -0.00000000000E+00 -0.12637401007E+03  0.12637401009E+03  0.25500000000E-02 0. -1.
    5000001    1    1    2    0    0 -0.12203239758E+03 -0.11343595397E+03  0.49334259717E+02  0.23962155766E+03  0.16500000000E+03 0.  0.
   -5000001    1    1    2    0    0  0.12203239758E+03  0.11343595397E+03  0.40892322466E+03  0.47138394689E+03  0.16500000000E+03 0.  0.
<mgrwt>
<rscale>  0 0.54362570E+03</rscale>
<asrwt>0</asrwt>
<pdfrwt beam="1">  1        2 0.83518787E-01 0.54362570E+03</pdfrwt>
<pdfrwt beam="2">  1       -2 0.18053430E-01 0.54362570E+03</pdfrwt>
<totfact> 0.14264157E+03</totfact>
</mgrwt>
</event>
<event>
 4    1  0.5531008E-005  0.5375144E+03  0.7818608E-02  0.1004426E+00
          2   -1    0    0  501    0  0.00000000000E+00  0.00000000000E+00  0.30596296585E+03  0.30596296586E+03  0.25500000000E-02 0.  1.
         -2   -1    0    0    0  501 -0.00000000000E+00 -0.00000000000E+00 -0.23607570712E+03  0.23607570714E+03  0.25500000000E-02 0. -1.
    5000001    1    1    2    0    0  0.11880309228E+03 -0.96787964890E+02  0.18288683216E+03  0.29009425754E+03  0.16500000000E+03 0.  0.
   -5000001    1    1    2    0    0 -0.11880309228E+03  0.96787964890E+02 -0.11299957343E+03  0.25194441545E+03  0.16500000000E+03 0.  0.
<mgrwt>
<rscale>  0 0.53751437E+03</rscale>
<asrwt>0</asrwt>
<pdfrwt beam="1">  1        2 0.43708995E-01 0.53751437E+03</pdfrwt>
<pdfrwt beam="2">  1       -2 0.33725101E-01 0.53751437E+03</pdfrwt>
<totfact> 0.96139629E+02</totfact>
</mgrwt>
</event>
<event>
 4    1  0.5531008E-005  0.5366340E+03  0.7818608E-02  0.1004636E+00
          2   -1    0    0  501    0  0.00000000000E+00  0.00000000000E+00  0.61927729582E+03  0.61927729582E+03  0.25500000000E-02 0.  1.
         -2   -1    0    0    0  501 -0.00000000000E+00 -0.00000000000E+00 -0.11625488997E+03  0.11625488999E+03  0.25500000000E-02 0. -1.
    5000001    1    1    2    0    0  0.20436323043E+03 -0.40109192043E+02  0.30272138833E+03  0.40278817782E+03  0.16500000000E+03 0.  0.
   -5000001    1    1    2    0    0 -0.20436323043E+03  0.40109192043E+02  0.20030101752E+03  0.33274400800E+03  0.16500000000E+03 0.  0.
<mgrwt>
<rscale>  0 0.53663401E+03</rscale>
<asrwt>0</asrwt>
<pdfrwt beam="1">  1        2 0.88468182E-01 0.53663401E+03</pdfrwt>
<pdfrwt beam="2">  1       -2 0.16607842E-01 0.53663401E+03</pdfrwt>
<totfact> 0.15373772E+03</totfact>
</mgrwt>
</event>
<event>
 4    1  0.5531008E-005  0.4671709E+03  0.7818608E-02  0.1022722E+00
          2   -1    0    0  501    0  0.00000000000E+00  0.00000000000E+00  0.46140819899E+04  0.46140819899E+04  0.25500000000E-02 0.  1.
         -2   -1    0    0    0  501 -0.00000000000E+00 -0.00000000000E+00 -0.11825139642E+02  0.11825139917E+02  0.25500000000E-02 0. -1.
    5000001    1    1    2    0    0 -0.10934788936E+03  0.11569723343E+03  0.18589248838E+04  0.18730108206E+04  0.16500000000E+03 0.  0.
   -5000001    1    1    2    0    0  0.10934788936E+03 -0.11569723343E+03  0.27433319665E+04  0.27528963092E+04  0.16500000000E+03 0.  0.
<mgrwt>
<rscale>  0 0.46717091E+03</rscale>
<asrwt>0</asrwt>
<pdfrwt beam="1">  1        2 0.65915399E+00 0.46717091E+03</pdfrwt>
<pdfrwt beam="2">  1       -2 0.16893072E-02 0.46717091E+03</pdfrwt>
<totfact> 0.24798743E+02</totfact>
</mgrwt>
</event>
<event>
 4    1  0.5531008E-005  0.9312279E+03  0.7818608E-02  0.9387365E-01
         -2   -1    0    0    0  501 -0.00000000000E+00  0.00000000000E+00  0.75849549449E+03  0.75849549449E+03  0.25500000000E-02 0. -1.
          2   -1    0    0  501    0  0.00000000000E+00 -0.00000000000E+00 -0.28582420582E+03  0.28582420583E+03  0.25500000000E-02 0.  1.
    5000001    1    1    2    0    0 -0.23295307018E+03 -0.60487404702E+02  0.64322890875E+03  0.70632449207E+03  0.16500000000E+03 0.  0.
   -5000001    1    1    2    0    0  0.23295307018E+03  0.60487404702E+02 -0.17055762009E+03  0.33799520826E+03  0.16500000000E+03 0.  0.
<mgrwt>
<rscale>  0 0.93122795E+03</rscale>
<asrwt>0</asrwt>
<pdfrwt beam="1">  1        2 0.40832029E-01 0.93122795E+03</pdfrwt>
<pdfrwt beam="2">  1       -2 0.10835650E+00 0.93122795E+03</pdfrwt>
<totfact> 0.85946228E+01</totfact>
</mgrwt>
</event>
<event>
 4    1  0.5531008E-005  0.5744762E+03  0.7818608E-02  0.9959822E-01
          2   -1    0    0  501    0  0.00000000000E+00  0.00000000000E+00  0.74481646605E+03  0.74481646605E+03  0.25500000000E-02 0.  1.
         -2   -1    0    0    0  501 -0.00000000000E+00 -0.00000000000E+00 -0.11077324654E+03  0.11077324657E+03  0.25500000000E-02 0. -1.
    5000001    1    1    2    0    0  0.12373183512E+03 -0.19748282028E+03  0.36344758995E+03  0.46219928815E+03  0.16500000000E+03 0.  0.
   -5000001    1    1    2    0    0 -0.12373183512E+03  0.19748282028E+03  0.27059562956E+03  0.39339042447E+03  0.16500000000E+03 0.  0.
<mgrwt>
<rscale>  0 0.57447624E+03</rscale>
<asrwt>0</asrwt>
<pdfrwt beam="1">  1        2 0.10640236E+00 0.57447624E+03</pdfrwt>
<pdfrwt beam="2">  1       -2 0.15824749E-01 0.57447624E+03</pdfrwt>
<totfact> 0.13339812E+03</totfact>
</mgrwt>
</event>
<event>
 4    1  0.5531008E-005  0.4243740E+03  0.7818608E-02  0.1035652E+00
         -2   -1    0    0    0  501 -0.00000000000E+00  0.00000000000E+00  0.29309604333E+03  0.29309604335E+03  0.25500000000E-02 0. -1.
          2   -1    0    0  501    0  0.00000000000E+00 -0.00000000000E+00 -0.15361289897E+03  0.15361289899E+03  0.25500000000E-02 0.  1.
    5000001    1    1    2    0    0  0.12537427301E+03  0.39388717173E+02  0.93932689212E+02  0.23090805416E+03  0.16500000000E+03 0.  0.
   -5000001    1    1    2    0    0 -0.12537427301E+03 -0.39388717173E+02  0.45550455154E+02  0.21580088818E+03  0.16500000000E+03 0.  0.
<mgrwt>
<rscale>  0 0.42437405E+03</rscale>
<asrwt>0</asrwt>
<pdfrwt beam="1">  1        2 0.21944700E-01 0.42437405E+03</pdfrwt>
<pdfrwt beam="2">  1       -2 0.41870863E-01 0.42437405E+03</pdfrwt>
<totfact> 0.13722806E+03</totfact>
</mgrwt>
</event>
<event>
 4    1  0.5531008E-005  0.5639961E+03  0.7818608E-02  0.9983053E-01
         -2   -1    0    0    0  501 -0.00000000000E+00  0.00000000000E+00  0.63767103061E+02  0.63767103112E+02  0.25500000000E-02 0. -1.
          2   -1    0    0  501    0  0.00000000000E+00 -0.00000000000E+00 -0.12470836489E+04  0.12470836489E+04  0.25500000000E-02 0.  1.
    5000001    1    1    2    0    0 -0.10768142909E+03  0.13150127085E+03 -0.94727171386E+03  0.97644076844E+03  0.16500000000E+03 0.  0.
   -5000001    1    1    2    0    0  0.10768142909E+03 -0.13150127085E+03 -0.23604483198E+03  0.33440998357E+03  0.16500000000E+03 0.  0.
<mgrwt>
<rscale>  0 0.56399614E+03</rscale>
<asrwt>0</asrwt>
<pdfrwt beam="1">  1        2 0.17815479E+00 0.56399614E+03</pdfrwt>
<pdfrwt beam="2">  1       -2 0.91095869E-02 0.56399614E+03</pdfrwt>
<totfact> 0.16188594E+03</totfact>
</mgrwt>
</event>
<event>
 4    1  0.5531008E-005  0.7976381E+03  0.7818608E-02  0.9563442E-01
         -2   -1    0    0    0  501 -0.00000000000E+00  0.00000000000E+00  0.60737206883E+02  0.60737206937E+02  0.25500000000E-02 0. -1.
          2   -1    0    0  501    0  0.00000000000E+00 -0.00000000000E+00 -0.26187677948E+04  0.26187677948E+04  0.25500000000E-02 0.  1.
    5000001    1    1    2    0    0  0.33275232040E+03  0.14356716172E+03 -0.12041997928E+04  0.12683287341E+04  0.16500000000E+03 0.  0.
   -5000001    1    1    2    0    0 -0.33275232040E+03 -0.14356716172E+03 -0.13538307950E+04  0.14111762676E+04  0.16500000000E+03 0.  0.
<mgrwt>
<rscale>  0 0.79763812E+03</rscale>
<asrwt>0</asrwt>
<pdfrwt beam="1">  1        2 0.37410961E+00 0.79763812E+03</pdfrwt>
<pdfrwt beam="2">  1       -2 0.86767455E-02 0.79763812E+03</pdfrwt>
<totfact> 0.33969462E+02</totfact>
</mgrwt>
</event>
<event>
 4    1  0.5531008E-005  0.3524761E+03  0.7818608E-02  0.1061603E+00
         -2   -1    0    0    0  501 -0.00000000000E+00  0.00000000000E+00  0.14116582722E+03  0.14116582724E+03  0.25500000000E-02 0. -1.
          2   -1    0    0  501    0  0.00000000000E+00 -0.00000000000E+00 -0.22002385267E+03  0.22002385268E+03  0.25500000000E-02 0.  1.
    5000001    1    1    2    0    0  0.36661242453E+02 -0.47617595679E+02 -0.54743950248E+02  0.18393852833E+03  0.16500000000E+03 0.  0.
   -5000001    1    1    2    0    0 -0.36661242453E+02  0.47617595679E+02 -0.24114075200E+02  0.17725115159E+03  0.16500000000E+03 0.  0.
<mgrwt>
<rscale>  0 0.35247609E+03</rscale>
<asrwt>0</asrwt>
<pdfrwt beam="1">  1        2 0.31431979E-01 0.35247609E+03</pdfrwt>
<pdfrwt beam="2">  1       -2 0.20166547E-01 0.35247609E+03</pdfrwt>
<totfact> 0.34651132E+03</totfact>
</mgrwt>
</event>
<event>
 4    1  0.5531008E-005  0.5852771E+03  0.7818608E-02  0.9936431E-01
         -2   -1    0    0    0  501 -0.00000000000E+00  0.00000000000E+00  0.73647290641E+02  0.73647290685E+02  0.25500000000E-02 0. -1.
          2   -1    0    0  501    0  0.00000000000E+00 -0.00000000000E+00 -0.11628033045E+04  0.11628033045E+04  0.25500000000E-02 0.  1.
    5000001    1    1    2    0    0 -0.35215866273E+02 -0.23156413740E+03 -0.41870226823E+03  0.50734475103E+03  0.16500000000E+03 0.  0.
   -5000001    1    1    2    0    0  0.35215866273E+02  0.23156413740E+03 -0.67045374564E+03  0.72910584417E+03  0.16500000000E+03 0.  0.
<mgrwt>
<rscale>  0 0.58527707E+03</rscale>
<asrwt>0</asrwt>
<pdfrwt beam="1">  1        2 0.16611475E+00 0.58527707E+03</pdfrwt>
<pdfrwt beam="2">  1       -2 0.10521042E-01 0.58527707E+03</pdfrwt>
<totfact> 0.14287325E+03</totfact>
</mgrwt>
</event>
<event>
 4    1  0.5531008E-005  0.4488601E+03  0.7818608E-02  0.1028063E+00
         -2   -1    0    0    0  501 -0.00000000000E+00  0.00000000000E+00  0.60532100320E+03  0.60532100320E+03  0.25500000000E-02 0.  1.
          2   -1    0    0  501    0  0.00000000000E+00 -0.00000000000E+00 -0.83210124762E+02  0.83210124801E+02  0.25500000000E-02 0. -1.
    5000001    1    1    2    0    0  0.11313933753E+02  0.14712491795E+03  0.20427652081E+03  0.30121029786E+03  0.16500000000E+03 0.  0.
   -5000001    1    1    2    0    0 -0.11313933753E+02 -0.14712491795E+03  0.31783435762E+03  0.38732083015E+03  0.16500000000E+03 0.  0.
<mgrwt>
<rscale>  0 0.44886005E+03</rscale>
<asrwt>0</asrwt>
<pdfrwt beam="1">  1        2 0.11887161E-01 0.44886005E+03</pdfrwt>
<pdfrwt beam="2">  1       -2 0.86474425E-01 0.44886005E+03</pdfrwt>
<totfact> 0.62303641E+02</totfact>
</mgrwt>
</event>
<event>
 4    1  0.5531008E-005  0.7862289E+03  0.7818608E-02  0.9580167E-01
         -2   -1    0    0    0  501 -0.00000000000E+00  0.00000000000E+00  0.71613450785E+03  0.71613450786E+03  0.25500000000E-02 0. -1.
          2   -1    0    0  501    0  0.00000000000E+00 -0.00000000000E+00 -0.21579600291E+03  0.21579600293E+03  0.25500000000E-02 0.  1.
    5000001    1    1    2    0    0  0.35117989564E+03 -0.35303183244E+02  0.18812007790E+03  0.43265205137E+03  0.16500000000E+03 0.  0.
   -5000001    1    1    2    0    0 -0.35117989564E+03  0.35303183244E+02  0.31221842704E+03  0.49927845941E+03  0.16500000000E+03 0.  0.
<mgrwt>
<rscale>  0 0.78622888E+03</rscale>
<asrwt>0</asrwt>
<pdfrwt beam="1">  1        2 0.30828001E-01 0.78622888E+03</pdfrwt>
<pdfrwt beam="2">  1       -2 0.10230493E+00 0.78622888E+03</pdfrwt>
<totfact> 0.13604621E+02</totfact>
</mgrwt>
</event>
<event>
 4    1  0.5531008E-005  0.6575932E+03  0.7818608E-02  0.9792635E-01
          2   -1    0    0  501    0  0.00000000000E+00  0.00000000000E+00  0.20853277148E+04  0.20853277148E+04  0.25500000000E-02 0.  1.
         -2   -1    0    0    0  501 -0.00000000000E+00 -0.00000000000E+00 -0.51841825358E+02  0.51841825421E+02  0.25500000000E-02 0. -1.
    5000001    1    1    2    0    0  0.16657951653E+03 -0.22423230277E+03  0.84313963063E+03  0.90340372906E+03  0.16500000000E+03 0.  0.
   -5000001    1    1    2    0    0 -0.16657951653E+03  0.22423230277E+03  0.11903462588E+04  0.12337658111E+04  0.16500000000E+03 0.  0.
<mgrwt>
<rscale>  0 0.65759317E+03</rscale>
<asrwt>0</asrwt>
<pdfrwt beam="1">  1        2 0.29790392E+00 0.65759317E+03</pdfrwt>
<pdfrwt beam="2">  1       -2 0.74059760E-02 0.65759317E+03</pdfrwt>
<totfact> 0.82898129E+02</totfact>
</mgrwt>
</event>
<event>
 4    1  0.5531008E-005  0.4721003E+03  0.7818608E-02  0.1021329E+00
         -2   -1    0    0    0  501 -0.00000000000E+00  0.00000000000E+00  0.67693698237E+03  0.67693698237E+03  0.25500000000E-02 0. -1.
          2   -1    0    0  501    0  0.00000000000E+00 -0.00000000000E+00 -0.82311448352E+02  0.82311448392E+02  0.25500000000E-02 0.  1.
    5000001    1    1    2    0    0  0.10495003639E+02 -0.64041079849E+02  0.46700026206E+02  0.18335020441E+03  0.16500000000E+03 0.  0.
   -5000001    1    1    2    0    0 -0.10495003639E+02  0.64041079849E+02  0.54792550781E+03  0.57589822635E+03  0.16500000000E+03 0.  0.
<mgrwt>
<rscale>  0 0.47210026E+03</rscale>
<asrwt>0</asrwt>
<pdfrwt beam="1">  1        2 0.11758778E-01 0.47210026E+03</pdfrwt>
<pdfrwt beam="2">  1       -2 0.96705285E-01 0.47210026E+03</pdfrwt>
<totfact> 0.48853698E+02</totfact>
</mgrwt>
</event>
<event>
 4    1  0.5531008E-005  0.5816440E+03  0.7818608E-02  0.9944238E-01
          2   -1    0    0  501    0  0.00000000000E+00  0.00000000000E+00  0.17120984784E+04  0.17120984784E+04  0.25500000000E-02 0.  1.
         -2   -1    0    0    0  501 -0.00000000000E+00 -0.00000000000E+00 -0.49399863165E+02  0.49399863230E+02  0.25500000000E-02 0. -1.
    5000001    1    1    2    0    0  0.18642629773E+03 -0.13708903145E+03  0.10181421794E+04  0.10570651184E+04  0.16500000000E+03 0.  0.
   -5000001    1    1    2    0    0 -0.18642629773E+03  0.13708903145E+03  0.64455643576E+03  0.70443322318E+03  0.16500000000E+03 0.  0.
<mgrwt>
<rscale>  0 0.58164398E+03</rscale>
<asrwt>0</asrwt>
<pdfrwt beam="1">  1        2 0.24458544E+00 0.58164398E+03</pdfrwt>
<pdfrwt beam="2">  1       -2 0.70571251E-02 0.58164398E+03</pdfrwt>
<totfact> 0.13856813E+03</totfact>
</mgrwt>
</event>
<event>
 4    1  0.5531008E-005  0.5588414E+03  0.7818608E-02  0.9994680E-01
         -2   -1    0    0    0  501 -0.00000000000E+00  0.00000000000E+00  0.23435362202E+03  0.23435362204E+03  0.25500000000E-02 0. -1.
          2   -1    0    0  501    0  0.00000000000E+00 -0.00000000000E+00 -0.33315431019E+03  0.33315431020E+03  0.25500000000E-02 0.  1.
    5000001    1    1    2    0    0 -0.21945395958E+03  0.44371889633E+02 -0.76687375692E+02  0.28850452086E+03  0.16500000000E+03 0.  0.
   -5000001    1    1    2    0    0  0.21945395958E+03 -0.44371889633E+02 -0.22113312472E+02  0.27900341137E+03  0.16500000000E+03 0.  0.
<mgrwt>
<rscale>  0 0.55884137E+03</rscale>
<asrwt>0</asrwt>
<pdfrwt beam="1">  1        2 0.47593472E-01 0.55884137E+03</pdfrwt>
<pdfrwt beam="2">  1       -2 0.33479089E-01 0.55884137E+03</pdfrwt>
<totfact> 0.88741959E+02</totfact>
</mgrwt>
</event>
<event>
 4    1  0.5531008E-005  0.3598549E+03  0.7818608E-02  0.1058641E+00
          2   -1    0    0  501    0  0.00000000000E+00  0.00000000000E+00  0.24963060810E+04  0.24963060810E+04  0.25500000000E-02 0.  1.
         -2   -1    0    0    0  501 -0.00000000000E+00 -0.00000000000E+00 -0.12968715218E+02  0.12968715468E+02  0.25500000000E-02 0. -1.
    5000001    1    1    2    0    0  0.30363043491E+02 -0.40754131277E+02  0.88844076020E+03  0.90506065985E+03  0.16500000000E+03 0.  0.
   -5000001    1    1    2    0    0 -0.30363043491E+02  0.40754131277E+02  0.15948966056E+04  0.16042141366E+04  0.16500000000E+03 0.  0.
<mgrwt>
<rscale>  0 0.35985488E+03</rscale>
<asrwt>0</asrwt>
<pdfrwt beam="1">  1        2 0.35661529E+00 0.35985488E+03</pdfrwt>
<pdfrwt beam="2">  1       -2 0.18526729E-02 0.35985488E+03</pdfrwt>
<totfact> 0.43455753E+03</totfact>
</mgrwt>
</event>
<event>
 4    1  0.5531008E-005  0.6991321E+03  0.7818608E-02  0.9718717E-01
          2   -1    0    0  501    0  0.00000000000E+00  0.00000000000E+00  0.77732288579E+03  0.77732288579E+03  0.25500000000E-02 0.  1.
         -2   -1    0    0    0  501 -0.00000000000E+00 -0.00000000000E+00 -0.15720165001E+03  0.15720165003E+03  0.25500000000E-02 0. -1.
    5000001    1    1    2    0    0  0.12210723142E+03  0.18141860506E+03  0.19815031517E+02  0.27466438011E+03  0.16500000000E+03 0.  0.
   -5000001    1    1    2    0    0 -0.12210723142E+03 -0.18141860506E+03  0.60030620425E+03  0.65986015571E+03  0.16500000000E+03 0.  0.
<mgrwt>
<rscale>  0 0.69913215E+03</rscale>
<asrwt>0</asrwt>
<pdfrwt beam="1">  1        2 0.11104612E+00 0.69913215E+03</pdfrwt>
<pdfrwt beam="2">  1       -2 0.22457379E-01 0.69913215E+03</pdfrwt>
<totfact> 0.68794828E+02</totfact>
</mgrwt>
</event>
<event>
 4    1  0.5531008E-005  0.4531225E+03  0.7818608E-02  0.1026795E+00
         -2   -1    0    0    0  501 -0.00000000000E+00  0.00000000000E+00  0.40089791369E+02  0.40089791451E+02  0.25500000000E-02 0. -1.
          2   -1    0    0  501    0  0.00000000000E+00 -0.00000000000E+00 -0.12803760585E+04  0.12803760585E+04  0.25500000000E-02 0.  1.
    5000001    1    1    2    0    0 -0.46177021859E+02 -0.46914879485E+02 -0.21037955093E+03  0.27535046525E+03  0.16500000000E+03 0.  0.
   -5000001    1    1    2    0    0  0.46177021859E+02  0.46914879485E+02 -0.10299067162E+04  0.10451153847E+04  0.16500000000E+03 0.  0.
<mgrwt>
<rscale>  0 0.45312254E+03</rscale>
<asrwt>0</asrwt>
<pdfrwt beam="1">  1        2 0.18291084E+00 0.45312254E+03</pdfrwt>
<pdfrwt beam="2">  1       -2 0.57271139E-02 0.45312254E+03</pdfrwt>
<totfact> 0.32332439E+03</totfact>
</mgrwt>
</event>
<event>
 4    1  0.5531008E-005  0.5313119E+03  0.7818608E-02  0.1005914E+00
          2   -1    0    0  501    0  0.00000000000E+00  0.00000000000E+00  0.82861562641E+03  0.82861562641E+03  0.25500000000E-02 0.  1.
         -2   -1    0    0    0  501 -0.00000000000E+00 -0.00000000000E+00 -0.85169875802E+02  0.85169875840E+02  0.25500000000E-02 0. -1.
    5000001    1    1    2    0    0  0.16738424221E+03 -0.38815906855E+02  0.57393652952E+03  0.62141153761E+03  0.16500000000E+03 0.  0.
   -5000001    1    1    2    0    0 -0.16738424221E+03  0.38815906855E+02  0.16950922109E+03  0.29237396464E+03  0.16500000000E+03 0.  0.
<mgrwt>
<rscale>  0 0.53131192E+03</rscale>
<asrwt>0</asrwt>
<pdfrwt beam="1">  1        2 0.11837366E+00 0.53131192E+03</pdfrwt>
<pdfrwt beam="2">  1       -2 0.12167126E-01 0.53131192E+03</pdfrwt>
<totfact> 0.18070618E+03</totfact>
</mgrwt>
</event>
<event>
 4    1  0.5531008E-005  0.7161174E+03  0.7818608E-02  0.9690059E-01
          2   -1    0    0  501    0  0.00000000000E+00  0.00000000000E+00  0.98819861162E+03  0.98819861162E+03  0.25500000000E-02 0.  1.
         -2   -1    0    0    0  501 -0.00000000000E+00 -0.00000000000E+00 -0.12973712835E+03  0.12973712838E+03  0.25500000000E-02 0. -1.
    5000001    1    1    2    0    0 -0.29444150926E+03  0.11673511728E+03  0.38918112385E+03  0.52821381764E+03  0.16500000000E+03 0.  0.
   -5000001    1    1    2    0    0  0.29444150926E+03 -0.11673511728E+03  0.46928035942E+03  0.58972192236E+03  0.16500000000E+03 0.  0.
<mgrwt>
<rscale>  0 0.71611745E+03</rscale>
<asrwt>0</asrwt>
<pdfrwt beam="1">  1        2 0.14117124E+00 0.71611745E+03</pdfrwt>
<pdfrwt beam="2">  1       -2 0.18533875E-01 0.71611745E+03</pdfrwt>
<totfact> 0.69901069E+02</totfact>
</mgrwt>
</event>
<event>
 4    1  0.5531008E-005  0.5383004E+03  0.7818608E-02  0.1004239E+00
         -2   -1    0    0    0  501 -0.00000000000E+00  0.00000000000E+00  0.46155336060E+03  0.46155336061E+03  0.25500000000E-02 0. -1.
          2   -1    0    0  501    0  0.00000000000E+00 -0.00000000000E+00 -0.15695224322E+03  0.15695224324E+03  0.25500000000E-02 0.  1.
    5000001    1    1    2    0    0 -0.10020572810E+03 -0.12281761186E+03 -0.10563368464E+02  0.22904571264E+03  0.16500000000E+03 0.  0.
   -5000001    1    1    2    0    0  0.10020572810E+03  0.12281761186E+03  0.31516448585E+03  0.38945989121E+03  0.16500000000E+03 0.  0.
<mgrwt>
<rscale>  0 0.53830042E+03</rscale>
<asrwt>0</asrwt>
<pdfrwt beam="1">  1        2 0.22421749E-01 0.53830042E+03</pdfrwt>
<pdfrwt beam="2">  1       -2 0.65936194E-01 0.53830042E+03</pdfrwt>
<totfact> 0.53045105E+02</totfact>
</mgrwt>
</event>
<event>
 4    1  0.5531008E-005  0.8249095E+03  0.7818608E-02  0.9524645E-01
         -2   -1    0    0    0  501 -0.00000000000E+00  0.00000000000E+00  0.18165670876E+03  0.18165670877E+03  0.25500000000E-02 0. -1.
          2   -1    0    0  501    0  0.00000000000E+00 -0.00000000000E+00 -0.93648566647E+03  0.93648566647E+03  0.25500000000E-02 0.  1.
    5000001    1    1    2    0    0  0.26319742165E+03 -0.13978658456E+03 -0.69263327318E+03  0.77186723153E+03  0.16500000000E+03 0.  0.
   -5000001    1    1    2    0    0 -0.26319742165E+03  0.13978658456E+03 -0.62195684532E+02  0.34627514372E+03  0.16500000000E+03 0.  0.
<mgrwt>
<rscale>  0 0.82490946E+03</rscale>
<asrwt>0</asrwt>
<pdfrwt beam="1">  1        2 0.13378366E+00 0.82490946E+03</pdfrwt>
<pdfrwt beam="2">  1       -2 0.25950959E-01 0.82490946E+03</pdfrwt>
<totfact> 0.41321876E+02</totfact>
</mgrwt>
</event>
<event>
 4    1  0.5531008E-005  0.4152801E+03  0.7818608E-02  0.1038613E+00
         -2   -1    0    0    0  501 -0.00000000000E+00  0.00000000000E+00  0.89138819818E+03  0.89138819819E+03  0.25500000000E-02 0. -1.
          2   -1    0    0  501    0  0.00000000000E+00 -0.00000000000E+00 -0.48367700407E+02  0.48367700474E+02  0.25500000000E-02 0.  1.
    5000001    1    1    2    0    0 -0.10843745789E+03 -0.56646011830E+02  0.49022124973E+03  0.53151606431E+03  0.16500000000E+03 0.  0.
   -5000001    1    1    2    0    0  0.10843745789E+03  0.56646011830E+02  0.35279924804E+03  0.40823983435E+03  0.16500000000E+03 0.  0.
<mgrwt>
<rscale>  0 0.41528013E+03</rscale>
<asrwt>0</asrwt>
<pdfrwt beam="1">  1        2 0.69096726E-02 0.41528013E+03</pdfrwt>
<pdfrwt beam="2">  1       -2 0.12734115E+00 0.41528013E+03</pdfrwt>
<totfact> 0.49598638E+02</totfact>
</mgrwt>
</event>
<event>
 4    1  0.5531008E-005  0.4536911E+03  0.7818608E-02  0.1026627E+00
          2   -1    0    0  501    0  0.00000000000E+00  0.00000000000E+00  0.51402871517E+03  0.51402871518E+03  0.25500000000E-02 0.  1.
         -2   -1    0    0    0  501 -0.00000000000E+00 -0.00000000000E+00 -0.10010899287E+03  0.10010899291E+03  0.25500000000E-02 0. -1.
    5000001    1    1    2    0    0  0.12041892564E+03  0.23948212303E+02  0.77407519593E+02  0.21975249399E+03  0.16500000000E+03 0.  0.
   -5000001    1    1    2    0    0 -0.12041892564E+03 -0.23948212303E+02  0.33651220271E+03  0.39438521409E+03  0.16500000000E+03 0.  0.
<mgrwt>
<rscale>  0 0.45369107E+03</rscale>
<asrwt>0</asrwt>
<pdfrwt beam="1">  1        2 0.73432672E-01 0.45369107E+03</pdfrwt>
<pdfrwt beam="2">  1       -2 0.14301285E-01 0.45369107E+03</pdfrwt>
<totfact> 0.24492708E+03</totfact>
</mgrwt>
</event>
<event>
 4    1  0.5531008E-005  0.3632199E+03  0.7818608E-02  0.1057316E+00
         -2   -1    0    0    0  501 -0.00000000000E+00  0.00000000000E+00  0.29025419566E+02  0.29025419678E+02  0.25500000000E-02 0. -1.
          2   -1    0    0  501    0  0.00000000000E+00 -0.00000000000E+00 -0.11363203400E+04  0.11363203400E+04  0.25500000000E-02 0.  1.
    5000001    1    1    2    0    0  0.58068239570E+02 -0.43868895940E+02 -0.62251732759E+03  0.64811204558E+03  0.16500000000E+03 0.  0.
   -5000001    1    1    2    0    0 -0.58068239570E+02  0.43868895940E+02 -0.48477759284E+03  0.51723371409E+03  0.16500000000E+03 0.  0.
<mgrwt>
<rscale>  0 0.36321990E+03</rscale>
<asrwt>0</asrwt>
<pdfrwt beam="1">  1        2 0.16233145E+00 0.36321990E+03</pdfrwt>
<pdfrwt beam="2">  1       -2 0.41464892E-02 0.36321990E+03</pdfrwt>
<totfact> 0.63592539E+03</totfact>
</mgrwt>
</event>
<event>
 4    1  0.5531008E-005  0.7434338E+03  0.7818608E-02  0.9645708E-01
          2   -1    0    0  501    0  0.00000000000E+00  0.00000000000E+00  0.77661010582E+03  0.77661010582E+03  0.25500000000E-02 0.  1.
         -2   -1    0    0    0  501 -0.00000000000E+00 -0.00000000000E+00 -0.17791870488E+03  0.17791870490E+03  0.25500000000E-02 0. -1.
    5000001    1    1    2    0    0 -0.68221550373E+02  0.32598478678E+03  0.29252710341E+03  0.47298770320E+03  0.16500000000E+03 0.  0.
   -5000001    1    1    2    0    0  0.68221550373E+02 -0.32598478678E+03  0.30616429753E+03  0.48154110752E+03  0.16500000000E+03 0.  0.
<mgrwt>
<rscale>  0 0.74343383E+03</rscale>
<asrwt>0</asrwt>
<pdfrwt beam="1">  1        2 0.11094430E+00 0.74343383E+03</pdfrwt>
<pdfrwt beam="2">  1       -2 0.25416958E-01 0.74343383E+03</pdfrwt>
<totfact> 0.55112276E+02</totfact>
</mgrwt>
</event>
<event>
 4    1  0.5531008E-005  0.6791432E+03  0.7818608E-02  0.9753580E-01
          2   -1    0    0  501    0  0.00000000000E+00  0.00000000000E+00  0.24156975332E+04  0.24156975332E+04  0.25500000000E-02 0.  1.
         -2   -1    0    0    0  501 -0.00000000000E+00 -0.00000000000E+00 -0.47733162516E+02  0.47733162584E+02  0.25500000000E-02 0. -1.
    5000001    1    1    2    0    0 -0.10067357657E+03  0.25598933719E+03  0.15881929059E+04  0.16202615271E+04  0.16500000000E+03 0.  0.
   -5000001    1    1    2    0    0  0.10067357657E+03 -0.25598933719E+03  0.77977146479E+03  0.84316916872E+03  0.16500000000E+03 0.  0.
<mgrwt>
<rscale>  0 0.67914323E+03</rscale>
<asrwt>0</asrwt>
<pdfrwt beam="1">  1        2 0.34509959E+00 0.67914323E+03</pdfrwt>
<pdfrwt beam="2">  1       -2 0.68190243E-02 0.67914323E+03</pdfrwt>
<totfact> 0.64157831E+02</totfact>
</mgrwt>
</event>
<event>
 4    1  0.5531008E-005  0.4893471E+03  0.7818608E-02  0.1016597E+00
          2   -1    0    0  501    0  0.00000000000E+00  0.00000000000E+00  0.69795384123E+03  0.69795384124E+03  0.25500000000E-02 0.  1.
         -2   -1    0    0    0  501 -0.00000000000E+00 -0.00000000000E+00 -0.85772368118E+02  0.85772368155E+02  0.25500000000E-02 0. -1.
    5000001    1    1    2    0    0  0.10058616768E+03  0.94484484966E+02  0.11934914189E+03  0.24599616399E+03  0.16500000000E+03 0.  0.
   -5000001    1    1    2    0    0 -0.10058616768E+03 -0.94484484966E+02  0.49283233122E+03  0.53773004540E+03  0.16500000000E+03 0.  0.
<mgrwt>
<rscale>  0 0.48934713E+03</rscale>
<asrwt>0</asrwt>
<pdfrwt beam="1">  1        2 0.99707695E-01 0.48934713E+03</pdfrwt>
<pdfrwt beam="2">  1       -2 0.12253195E-01 0.48934713E+03</pdfrwt>
<totfact> 0.22131932E+03</totfact>
</mgrwt>
</event>
<event>
 4    1  0.5531008E-005  0.4283227E+03  0.7818608E-02  0.1034391E+00
         -2   -1    0    0    0  501 -0.00000000000E+00  0.00000000000E+00  0.14505093777E+03  0.14505093779E+03  0.25500000000E-02 0. -1.
          2   -1    0    0  501    0  0.00000000000E+00 -0.00000000000E+00 -0.31619983080E+03  0.31619983081E+03  0.25500000000E-02 0.  1.
    5000001    1    1    2    0    0 -0.68456370744E+02 -0.11001878386E+03 -0.39260299108E+02  0.21344033963E+03  0.16500000000E+03 0.  0.
   -5000001    1    1    2    0    0  0.68456370744E+02  0.11001878386E+03 -0.13188859393E+03  0.24781042897E+03  0.16500000000E+03 0.  0.
<mgrwt>
<rscale>  0 0.42832269E+03</rscale>
<asrwt>0</asrwt>
<pdfrwt beam="1">  1        2 0.45171404E-01 0.42832269E+03</pdfrwt>
<pdfrwt beam="2">  1       -2 0.20721563E-01 0.42832269E+03</pdfrwt>
<totfact> 0.22303171E+03</totfact>
</mgrwt>
</event>
<event>
 4    1  0.5531008E-005  0.9293473E+03  0.7818608E-02  0.9389622E-01
          2   -1    0    0  501    0  0.00000000000E+00  0.00000000000E+00  0.11091772914E+04  0.11091772914E+04  0.25500000000E-02 0.  1.
         -2   -1    0    0    0  501 -0.00000000000E+00 -0.00000000000E+00 -0.19466826796E+03  0.19466826798E+03  0.25500000000E-02 0. -1.
    5000001    1    1    2    0    0  0.39000708637E+03 -0.15134679091E+03  0.29312965635E+03  0.53680664487E+03  0.16500000000E+03 0.  0.
   -5000001    1    1    2    0    0 -0.39000708637E+03  0.15134679091E+03  0.62137936711E+03  0.76703891453E+03  0.16500000000E+03 0.  0.
<mgrwt>
<rscale>  0 0.92934735E+03</rscale>
<asrwt>0</asrwt>
<pdfrwt beam="1">  1        2 0.15845389E+00 0.92934735E+03</pdfrwt>
<pdfrwt beam="2">  1       -2 0.27809753E-01 0.92934735E+03</pdfrwt>
<totfact> 0.28431777E+02</totfact>
</mgrwt>
</event>
<event>
 4    1  0.5531008E-005  0.1157947E+04  0.7818608E-02  0.9150483E-01
          2   -1    0    0  501    0  0.00000000000E+00  0.00000000000E+00  0.15190832361E+04  0.15190832361E+04  0.25500000000E-02 0.  1.
         -2   -1    0    0    0  501 -0.00000000000E+00 -0.00000000000E+00 -0.22066622758E+03  0.22066622760E+03  0.25500000000E-02 0. -1.
    5000001    1    1    2    0    0 -0.44020176051E+02 -0.54591251939E+03  0.51459839819E+03  0.76941196127E+03  0.16500000000E+03 0.  0.
   -5000001    1    1    2    0    0  0.44020176051E+02  0.54591251939E+03  0.78381861033E+03  0.97033750243E+03  0.16500000000E+03 0.  0.
<mgrwt>
<rscale>  0 0.11579471E+04</rscale>
<asrwt>0</asrwt>
<pdfrwt beam="1">  1        2 0.21701190E+00 0.11579471E+04</pdfrwt>
<pdfrwt beam="2">  1       -2 0.31523746E-01 0.11579471E+04</pdfrwt>
<totfact> 0.13186016E+02</totfact>
</mgrwt>
</event>
<event>
 4    1  0.5531008E-005  0.5286936E+03  0.7818608E-02  0.1006549E+00
          2   -1    0    0  501    0  0.00000000000E+00  0.00000000000E+00  0.73794129011E+03  0.73794129011E+03  0.25500000000E-02 0.  1.
         -2   -1    0    0    0  501 -0.00000000000E+00 -0.00000000000E+00 -0.94694831611E+02  0.94694831646E+02  0.25500000000E-02 0. -1.
    5000001    1    1    2    0    0 -0.16914870703E+03 -0.10693295993E+03  0.40205517621E+03  0.47845512614E+03  0.16500000000E+03 0.  0.
   -5000001    1    1    2    0    0  0.16914870703E+03  0.10693295993E+03  0.24119128229E+03  0.35418099562E+03  0.16500000000E+03 0.  0.
<mgrwt>
<rscale>  0 0.52869358E+03</rscale>
<asrwt>0</asrwt>
<pdfrwt beam="1">  1        2 0.10542019E+00 0.52869358E+03</pdfrwt>
<pdfrwt beam="2">  1       -2 0.13527833E-01 0.52869358E+03</pdfrwt>
<totfact> 0.17556367E+03</totfact>
</mgrwt>
</event>
<event>
 4    1  0.5531008E-005  0.6622893E+03  0.7818608E-02  0.9783989E-01
         -2   -1    0    0    0  501 -0.00000000000E+00  0.00000000000E+00  0.16238653052E+03  0.16238653054E+03  0.25500000000E-02 0. -1.
          2   -1    0    0  501    0  0.00000000000E+00 -0.00000000000E+00 -0.67528251447E+03  0.67528251447E+03  0.25500000000E-02 0.  1.
    5000001    1    1    2    0    0  0.31392512501E+02  0.22419764791E+03 -0.33103792344E+02  0.28208320800E+03  0.16500000000E+03 0.  0.
   -5000001    1    1    2    0    0 -0.31392512501E+02 -0.22419764791E+03 -0.47979219160E+03  0.55558583701E+03  0.16500000000E+03 0.  0.
<mgrwt>
<rscale>  0 0.66228932E+03</rscale>
<asrwt>0</asrwt>
<pdfrwt beam="1">  1        2 0.96468929E-01 0.66228932E+03</pdfrwt>
<pdfrwt beam="2">  1       -2 0.23198076E-01 0.66228932E+03</pdfrwt>
<totfact> 0.77415957E+02</totfact>
</mgrwt>
</event>
<event>
 4    1  0.5531008E-005  0.4038802E+03  0.7818608E-02  0.1042444E+00
          2   -1    0    0  501    0  0.00000000000E+00  0.00000000000E+00  0.41849775320E+03  0.41849775321E+03  0.25500000000E-02 0.  1.
         -2   -1    0    0    0  501 -0.00000000000E+00 -0.00000000000E+00 -0.97443294729E+02  0.97443294762E+02  0.25500000000E-02 0. -1.
    5000001    1    1    2    0    0 -0.16170702882E+02  0.10040493360E+03  0.88125996156E+02  0.21291743358E+03  0.16500000000E+03 0.  0.
   -5000001    1    1    2    0    0  0.16170702882E+02 -0.10040493360E+03  0.23292846232E+03  0.30302361439E+03  0.16500000000E+03 0.  0.
<mgrwt>
<rscale>  0 0.40388018E+03</rscale>
<asrwt>0</asrwt>
<pdfrwt beam="1">  1        2 0.59785393E-01 0.40388018E+03</pdfrwt>
<pdfrwt beam="2">  1       -2 0.13920471E-01 0.40388018E+03</pdfrwt>
<totfact> 0.32162541E+03</totfact>
</mgrwt>
</event>
<event>
 4    1  0.5531008E-005  0.3487491E+03  0.7818608E-02  0.1063130E+00
          2   -1    0    0  501    0  0.00000000000E+00  0.00000000000E+00  0.13417172723E+04  0.13417172723E+04  0.25500000000E-02 0.  1.
         -2   -1    0    0    0  501 -0.00000000000E+00 -0.00000000000E+00 -0.22662364638E+02  0.22662364781E+02  0.25500000000E-02 0. -1.
    5000001    1    1    2    0    0 -0.14852702017E+02 -0.54372560788E+02  0.66783391592E+03  0.69022033973E+03  0.16500000000E+03 0.  0.
   -5000001    1    1    2    0    0  0.14852702017E+02  0.54372560788E+02  0.65122099177E+03  0.67415929738E+03  0.16500000000E+03 0.  0.
<mgrwt>
<rscale>  0 0.34874911E+03</rscale>
<asrwt>0</asrwt>
<pdfrwt beam="1">  1        2 0.19167393E+00 0.34874911E+03</pdfrwt>
<pdfrwt beam="2">  1       -2 0.32374800E-02 0.34874911E+03</pdfrwt>
<totfact> 0.71444132E+03</totfact>
</mgrwt>
</event>
<event>
 4    1  0.5531008E-005  0.5254916E+03  0.7818608E-02  0.1007331E+00
          2   -1    0    0  501    0  0.00000000000E+00  0.00000000000E+00  0.80741263254E+03  0.80741263255E+03  0.25500000000E-02 0.  1.
         -2   -1    0    0    0  501 -0.00000000000E+00 -0.00000000000E+00 -0.85501965780E+02  0.85501965818E+02  0.25500000000E-02 0. -1.
    5000001    1    1    2    0    0  0.19247398015E+03 -0.58010135743E+02  0.29740080361E+03  0.39507422957E+03  0.16500000000E+03 0.  0.
   -5000001    1    1    2    0    0 -0.19247398015E+03  0.58010135743E+02  0.42450986315E+03  0.49784036879E+03  0.16500000000E+03 0.  0.
<mgrwt>
<rscale>  0 0.52549165E+03</rscale>
<asrwt>0</asrwt>
<pdfrwt beam="1">  1        2 0.11534466E+00 0.52549165E+03</pdfrwt>
<pdfrwt beam="2">  1       -2 0.12214567E-01 0.52549165E+03</pdfrwt>
<totfact> 0.18562493E+03</totfact>
</mgrwt>
</event>
<event>
 4    1  0.5531008E-005  0.4147743E+03  0.7818608E-02  0.1038781E+00
          2   -1    0    0  501    0  0.00000000000E+00  0.00000000000E+00  0.94504703258E+03  0.94504703258E+03  0.25500000000E-02 0.  1.
         -2   -1    0    0    0  501 -0.00000000000E+00 -0.00000000000E+00 -0.45510367279E+02  0.45510367350E+02  0.25500000000E-02 0. -1.
    5000001    1    1    2    0    0  0.90891342909E+02 -0.74560026834E+02  0.34393098988E+03  0.39916658129E+03  0.16500000000E+03 0.  0.
   -5000001    1    1    2    0    0 -0.90891342909E+02  0.74560026834E+02  0.55560567542E+03  0.59139081864E+03  0.16500000000E+03 0.  0.
<mgrwt>
<rscale>  0 0.41477434E+03</rscale>
<asrwt>0</asrwt>
<pdfrwt beam="1">  1        2 0.13500671E+00 0.41477434E+03</pdfrwt>
<pdfrwt beam="2">  1       -2 0.65014817E-02 0.41477434E+03</pdfrwt>
<totfact> 0.41338785E+03</totfact>
</mgrwt>
</event>
<event>
 4    1  0.5531008E-005  0.4163803E+03  0.7818608E-02  0.1038251E+00
          2   -1    0    0  501    0  0.00000000000E+00  0.00000000000E+00  0.13720294977E+04  0.13720294977E+04  0.25500000000E-02 0.  1.
         -2   -1    0    0    0  501 -0.00000000000E+00 -0.00000000000E+00 -0.31590526537E+02  0.31590526640E+02  0.25500000000E-02 0. -1.
    5000001    1    1    2    0    0 -0.97934388103E+02 -0.71816975107E+02  0.54547808474E+03  0.58268358756E+03  0.16500000000E+03 0.  0.
   -5000001    1    1    2    0    0  0.97934388103E+02  0.71816975107E+02  0.79496088644E+03  0.82093643680E+03  0.16500000000E+03 0.  0.
<mgrwt>
<rscale>  0 0.41638028E+03</rscale>
<asrwt>0</asrwt>
<pdfrwt beam="1">  1        2 0.19600428E+00 0.41638028E+03</pdfrwt>
<pdfrwt beam="2">  1       -2 0.45129309E-02 0.41638028E+03</pdfrwt>
<totfact> 0.41694012E+03</totfact>
</mgrwt>
</event>
<event>
 4    1  0.5531008E-005  0.4923159E+03  0.7818608E-02  0.1015804E+00
          2   -1    0    0  501    0  0.00000000000E+00  0.00000000000E+00  0.12241543465E+04  0.12241543465E+04  0.25500000000E-02 0.  1.
         -2   -1    0    0    0  501 -0.00000000000E+00 -0.00000000000E+00 -0.49498440622E+02  0.49498440687E+02  0.25500000000E-02 0. -1.
    5000001    1    1    2    0    0  0.12533103852E+03 -0.13183111111E+03  0.54392844156E+03  0.59680018483E+03  0.16500000000E+03 0.  0.
   -5000001    1    1    2    0    0 -0.12533103852E+03  0.13183111111E+03  0.63072746429E+03  0.67685260234E+03  0.16500000000E+03 0.  0.
<mgrwt>
<rscale>  0 0.49231588E+03</rscale>
<asrwt>0</asrwt>
<pdfrwt beam="1">  1        2 0.17487920E+00 0.49231588E+03</pdfrwt>
<pdfrwt beam="2">  1       -2 0.70712056E-02 0.49231588E+03</pdfrwt>
<totfact> 0.24959409E+03</totfact>
</mgrwt>
</event>
<event>
 4    1  0.5531008E-005  0.4628051E+03  0.7818608E-02  0.1023971E+00
         -2   -1    0    0    0  501 -0.00000000000E+00  0.00000000000E+00  0.29661137061E+03  0.29661137062E+03  0.25500000000E-02 0. -1.
          2   -1    0    0  501    0  0.00000000000E+00 -0.00000000000E+00 -0.18052966367E+03  0.18052966369E+03  0.25500000000E-02 0.  1.
    5000001    1    1    2    0    0 -0.11893741499E+03 -0.10840323749E+03  0.79289477993E+02  0.24374000883E+03  0.16500000000E+03 0.  0.
   -5000001    1    1    2    0    0  0.11893741499E+03  0.10840323749E+03  0.36792228950E+02  0.23340102548E+03  0.16500000000E+03 0.  0.
<mgrwt>
<rscale>  0 0.46280515E+03</rscale>
<asrwt>0</asrwt>
<pdfrwt beam="1">  1        2 0.25789952E-01 0.46280515E+03</pdfrwt>
<pdfrwt beam="2">  1       -2 0.42373053E-01 0.46280515E+03</pdfrwt>
<totfact> 0.11160134E+03</totfact>
</mgrwt>
</event>
<event>
 4    1  0.5531008E-005  0.7058055E+03  0.7818608E-02  0.9707355E-01
         -2   -1    0    0    0  501 -0.00000000000E+00  0.00000000000E+00  0.10838704303E+03  0.10838704306E+03  0.25500000000E-02 0. -1.
          2   -1    0    0  501    0  0.00000000000E+00 -0.00000000000E+00 -0.11490336471E+04  0.11490336471E+04  0.25500000000E-02 0.  1.
    5000001    1    1    2    0    0 -0.28556790380E+03 -0.11034065428E+03 -0.62708603463E+03  0.71706762756E+03  0.16500000000E+03 0.  0.
   -5000001    1    1    2    0    0  0.28556790380E+03  0.11034065428E+03 -0.41356056941E+03  0.54035306258E+03  0.16500000000E+03 0.  0.
<mgrwt>
<rscale>  0 0.70580552E+03</rscale>
<asrwt>0</asrwt>
<pdfrwt beam="1">  1        2 0.16414766E+00 0.70580552E+03</pdfrwt>
<pdfrwt beam="2">  1       -2 0.15483864E-01 0.70580552E+03</pdfrwt>
<totfact> 0.76346929E+02</totfact>
</mgrwt>
</event>
<event>
 4    1  0.5531008E-005  0.7539853E+03  0.7818608E-02  0.9629119E-01
         -2   -1    0    0    0  501 -0.00000000000E+00  0.00000000000E+00  0.95452519506E+02  0.95452519540E+02  0.25500000000E-02 0. -1.
          2   -1    0    0  501    0  0.00000000000E+00 -0.00000000000E+00 -0.14889439623E+04  0.14889439623E+04  0.25500000000E-02 0.  1.
    5000001    1    1    2    0    0  0.30618380274E+03  0.13798078940E+03 -0.79329946486E+03  0.87711815638E+03  0.16500000000E+03 0.  0.
   -5000001    1    1    2    0    0 -0.30618380274E+03 -0.13798078940E+03 -0.60019197797E+03  0.70727832550E+03  0.16500000000E+03 0.  0.
<mgrwt>
<rscale>  0 0.75398529E+03</rscale>
<asrwt>0</asrwt>
<pdfrwt beam="1">  1        2 0.21270627E+00 0.75398529E+03</pdfrwt>
<pdfrwt beam="2">  1       -2 0.13636075E-01 0.75398529E+03</pdfrwt>
<totfact> 0.61524978E+02</totfact>
</mgrwt>
</event>
<event>
 4    1  0.5531008E-005  0.3857413E+03  0.7818608E-02  0.1048832E+00
         -2   -1    0    0    0  501 -0.00000000000E+00  0.00000000000E+00  0.42350551232E+02  0.42350551309E+02  0.25500000000E-02 0. -1.
          2   -1    0    0  501    0  0.00000000000E+00 -0.00000000000E+00 -0.87836148158E+03  0.87836148159E+03  0.25500000000E-02 0.  1.
    5000001    1    1    2    0    0 -0.66948345577E+02 -0.18290819061E+02 -0.58941915161E+03  0.61600046374E+03  0.16500000000E+03 0.  0.
   -5000001    1    1    2    0    0  0.66948345577E+02  0.18290819061E+02 -0.24659177874E+03  0.30471156916E+03  0.16500000000E+03 0.  0.
<mgrwt>
<rscale>  0 0.38574133E+03</rscale>
<asrwt>0</asrwt>
<pdfrwt beam="1">  1        2 0.12548020E+00 0.38574133E+03</pdfrwt>
<pdfrwt beam="2">  1       -2 0.60500793E-02 0.38574133E+03</pdfrwt>
<totfact> 0.50880755E+03</totfact>
</mgrwt>
</event>
<event>
 4    1  0.5531008E-005  0.6488199E+03  0.7818608E-02  0.9808996E-01
         -2   -1    0    0    0  501 -0.00000000000E+00  0.00000000000E+00  0.66766027073E+02  0.66766027121E+02  0.25500000000E-02 0. -1.
          2   -1    0    0  501    0  0.00000000000E+00 -0.00000000000E+00 -0.15762778907E+04  0.15762778907E+04  0.25500000000E-02 0.  1.
    5000001    1    1    2    0    0 -0.27921533468E+03  0.28746374543E+01 -0.73733123208E+03  0.80551338441E+03  0.16500000000E+03 0.  0.
   -5000001    1    1    2    0    0  0.27921533468E+03 -0.28746374543E+01 -0.77218063155E+03  0.83753053341E+03  0.16500000000E+03 0.  0.
<mgrwt>
<rscale>  0 0.64881989E+03</rscale>
<asrwt>0</asrwt>
<pdfrwt beam="1">  1        2 0.22518253E+00 0.64881989E+03</pdfrwt>
<pdfrwt beam="2">  1       -2 0.95380048E-02 0.64881989E+03</pdfrwt>
<totfact> 0.10020673E+03</totfact>
</mgrwt>
</event>
<event>
 4    1  0.5531008E-005  0.5288872E+03  0.7818608E-02  0.1006502E+00
          2   -1    0    0  501    0  0.00000000000E+00  0.00000000000E+00  0.15485376860E+04  0.15485376860E+04  0.25500000000E-02 0.  1.
         -2   -1    0    0    0  501 -0.00000000000E+00 -0.00000000000E+00 -0.45159005320E+02  0.45159005392E+02  0.25500000000E-02 0. -1.
    5000001    1    1    2    0    0  0.15102766722E+03  0.11906619750E+03  0.52380511225E+03  0.58187877713E+03  0.16500000000E+03 0.  0.
   -5000001    1    1    2    0    0 -0.15102766722E+03 -0.11906619750E+03  0.97957356839E+03  0.10118179142E+04  0.16500000000E+03 0.  0.
<mgrwt>
<rscale>  0 0.52888722E+03</rscale>
<asrwt>0</asrwt>
<pdfrwt beam="1">  1        2 0.22121965E+00 0.52888722E+03</pdfrwt>
<pdfrwt beam="2">  1       -2 0.64512869E-02 0.52888722E+03</pdfrwt>
<totfact> 0.19381200E+03</totfact>
</mgrwt>
</event>
<event>
 4    1  0.5531008E-005  0.5980258E+03  0.7818608E-02  0.9909510E-01
          2   -1    0    0  501    0  0.00000000000E+00  0.00000000000E+00  0.91383071246E+03  0.91383071246E+03  0.25500000000E-02 0.  1.
         -2   -1    0    0    0  501 -0.00000000000E+00 -0.00000000000E+00 -0.97839471333E+02  0.97839471366E+02  0.25500000000E-02 0. -1.
    5000001    1    1    2    0    0 -0.18518638243E+03  0.16021888790E+03  0.48769572440E+03  0.57011946807E+03  0.16500000000E+03 0.  0.
   -5000001    1    1    2    0    0  0.18518638243E+03 -0.16021888790E+03  0.32829551673E+03  0.44155071576E+03  0.16500000000E+03 0.  0.
<mgrwt>
<rscale>  0 0.59802580E+03</rscale>
<asrwt>0</asrwt>
<pdfrwt beam="1">  1        2 0.13054724E+00 0.59802580E+03</pdfrwt>
<pdfrwt beam="2">  1       -2 0.13977068E-01 0.59802580E+03</pdfrwt>
<totfact> 0.12613827E+03</totfact>
</mgrwt>
</event>
<event>
 4    1  0.5531008E-005  0.5365786E+03  0.7818608E-02  0.1004649E+00
          2   -1    0    0  501    0  0.00000000000E+00  0.00000000000E+00  0.39771800777E+03  0.39771800778E+03  0.25500000000E-02 0.  1.
         -2   -1    0    0    0  501 -0.00000000000E+00 -0.00000000000E+00 -0.18098034595E+03  0.18098034597E+03  0.25500000000E-02 0. -1.
    5000001    1    1    2    0    0  0.20360555516E+03  0.23316165055E+01  0.46475094195E+02  0.26616835445E+03  0.16500000000E+03 0.  0.
   -5000001    1    1    2    0    0 -0.20360555516E+03 -0.23316165055E+01  0.17026256763E+03  0.31252999930E+03  0.16500000000E+03 0.  0.
<mgrwt>
<rscale>  0 0.53657858E+03</rscale>
<asrwt>0</asrwt>
<pdfrwt beam="1">  1        2 0.56816858E-01 0.53657858E+03</pdfrwt>
<pdfrwt beam="2">  1       -2 0.25854335E-01 0.53657858E+03</pdfrwt>
<totfact> 0.11737249E+03</totfact>
</mgrwt>
</event>
<event>
 4    1  0.5531008E-005  0.1007628E+04  0.7818608E-02  0.9300218E-01
         -2   -1    0    0    0  501 -0.00000000000E+00  0.00000000000E+00  0.11081291417E+04  0.11081291417E+04  0.25500000000E-02 0. -1.
          2   -1    0    0  501    0  0.00000000000E+00 -0.00000000000E+00 -0.22906047940E+03  0.22906047942E+03  0.25500000000E-02 0.  1.
    5000001    1    1    2    0    0  0.41428753829E+03  0.90732329389E+02  0.15263899826E+03  0.47998977466E+03  0.16500000000E+03 0.  0.
   -5000001    1    1    2    0    0 -0.41428753829E+03 -0.90732329389E+02  0.72642966400E+03  0.85719984643E+03  0.16500000000E+03 0.  0.
<mgrwt>
<rscale>  0 0.10076281E+04</rscale>
<asrwt>0</asrwt>
<pdfrwt beam="1">  1        2 0.32722925E-01 0.10076281E+04</pdfrwt>
<pdfrwt beam="2">  1       -2 0.15830416E+00 0.10076281E+04</pdfrwt>
<totfact> 0.41752446E+01</totfact>
</mgrwt>
</event>
<event>
 4    1  0.5531008E-005  0.5217390E+03  0.7818608E-02  0.1008255E+00
         -2   -1    0    0    0  501 -0.00000000000E+00  0.00000000000E+00  0.28749856268E+03  0.28749856269E+03  0.25500000000E-02 0. -1.
          2   -1    0    0  501    0  0.00000000000E+00 -0.00000000000E+00 -0.23670694100E+03  0.23670694101E+03  0.25500000000E-02 0.  1.
    5000001    1    1    2    0    0  0.12066222617E+03  0.57682207443E+02  0.17757568274E+03  0.27684785168E+03  0.16500000000E+03 0.  0.
   -5000001    1    1    2    0    0 -0.12066222617E+03 -0.57682207443E+02 -0.12678406105E+03  0.24735765203E+03  0.16500000000E+03 0.  0.
<mgrwt>
<rscale>  0 0.52173904E+03</rscale>
<asrwt>0</asrwt>
<pdfrwt beam="1">  1        2 0.33815277E-01 0.52173904E+03</pdfrwt>
<pdfrwt beam="2">  1       -2 0.41071223E-01 0.52173904E+03</pdfrwt>
<totfact> 0.87577492E+02</totfact>
</mgrwt>
</event>
<event>
 4    1  0.5531008E-005  0.5087136E+03  0.7818608E-02  0.1011529E+00
         -2   -1    0    0    0  501 -0.00000000000E+00  0.00000000000E+00  0.22249131848E+02  0.22249131994E+02  0.25500000000E-02 0. -1.
          2   -1    0    0  501    0  0.00000000000E+00 -0.00000000000E+00 -0.29078613925E+04  0.29078613925E+04  0.25500000000E-02 0.  1.
    5000001    1    1    2    0    0 -0.92201547375E+02 -0.12339865161E+03 -0.76755112417E+03  0.80005504859E+03  0.16500000000E+03 0.  0.
   -5000001    1    1    2    0    0  0.92201547375E+02  0.12339865161E+03 -0.21180611365E+04  0.21300554759E+04  0.16500000000E+03 0.  0.
<mgrwt>
<rscale>  0 0.50871364E+03</rscale>
<asrwt>0</asrwt>
<pdfrwt beam="1">  1        2 0.41540853E+00 0.50871364E+03</pdfrwt>
<pdfrwt beam="2">  1       -2 0.31784493E-02 0.50871364E+03</pdfrwt>
<totfact> 0.11730111E+03</totfact>
</mgrwt>
</event>
<event>
 4    1  0.5531008E-005  0.5320910E+03  0.7818608E-02  0.1005726E+00
         -2   -1    0    0    0  501 -0.00000000000E+00  0.00000000000E+00  0.87653124539E+03  0.87653124539E+03  0.25500000000E-02 0. -1.
          2   -1    0    0  501    0  0.00000000000E+00 -0.00000000000E+00 -0.80750346930E+02  0.80750346971E+02  0.25500000000E-02 0.  1.
    5000001    1    1    2    0    0 -0.20119791516E+03 -0.41742269301E+02  0.33222514954E+03  0.42405373256E+03  0.16500000000E+03 0.  0.
   -5000001    1    1    2    0    0  0.20119791516E+03  0.41742269301E+02  0.46355574892E+03  0.53322785980E+03  0.16500000000E+03 0.  0.
<mgrwt>
<rscale>  0 0.53209098E+03</rscale>
<asrwt>0</asrwt>
<pdfrwt beam="1">  1        2 0.11535764E-01 0.53209098E+03</pdfrwt>
<pdfrwt beam="2">  1       -2 0.12521875E+00 0.53209098E+03</pdfrwt>
<totfact> 0.26847498E+02</totfact>
</mgrwt>
</event>
<event>
 4    1  0.5531008E-005  0.8046684E+03  0.7818608E-02  0.9553284E-01
          2   -1    0    0  501    0  0.00000000000E+00  0.00000000000E+00  0.70659810511E+03  0.70659810511E+03  0.25500000000E-02 0.  1.
         -2   -1    0    0    0  501 -0.00000000000E+00 -0.00000000000E+00 -0.22908751829E+03  0.22908751830E+03  0.25500000000E-02 0. -1.
    5000001    1    1    2    0    0  0.56834805908E+02 -0.20696871116E+03 -0.10733122700E+03  0.29122368525E+03  0.16500000000E+03 0.  0.
   -5000001    1    1    2    0    0 -0.56834805908E+02  0.20696871116E+03  0.58484181382E+03  0.64446193817E+03  0.16500000000E+03 0.  0.
<mgrwt>
<rscale>  0 0.80466839E+03</rscale>
<asrwt>0</asrwt>
<pdfrwt beam="1">  1        2 0.10094259E+00 0.80466839E+03</pdfrwt>
<pdfrwt beam="2">  1       -2 0.32726788E-01 0.80466839E+03</pdfrwt>
<totfact> 0.38851820E+02</totfact>
</mgrwt>
</event>
<event>
 4    1  0.5531008E-005  0.4667524E+03  0.7818608E-02  0.1022841E+00
          2   -1    0    0  501    0  0.00000000000E+00  0.00000000000E+00  0.95193096597E+03  0.95193096597E+03  0.25500000000E-02 0.  1.
         -2   -1    0    0    0  501 -0.00000000000E+00 -0.00000000000E+00 -0.57214703593E+02  0.57214703650E+02  0.25500000000E-02 0. -1.
    5000001    1    1    2    0    0 -0.39175356141E+02 -0.95468713636E+02  0.16887648240E+03  0.25766887689E+03  0.16500000000E+03 0.  0.
   -5000001    1    1    2    0    0  0.39175356141E+02  0.95468713636E+02  0.72583977998E+03  0.75147679273E+03  0.16500000000E+03 0.  0.
<mgrwt>
<rscale>  0 0.46675239E+03</rscale>
<asrwt>0</asrwt>
<pdfrwt beam="1">  1        2 0.13599013E+00 0.46675239E+03</pdfrwt>
<pdfrwt beam="2">  1       -2 0.81735296E-02 0.46675239E+03</pdfrwt>
<totfact> 0.28586682E+03</totfact>
</mgrwt>
</event>
<event>
 4    1  0.5531008E-005  0.3876233E+03  0.7818608E-02  0.1048152E+00
         -2   -1    0    0    0  501 -0.00000000000E+00  0.00000000000E+00  0.37020772395E+02  0.37020772483E+02  0.25500000000E-02 0. -1.
          2   -1    0    0  501    0  0.00000000000E+00 -0.00000000000E+00 -0.10146452512E+04  0.10146452512E+04  0.25500000000E-02 0.  1.
    5000001    1    1    2    0    0  0.55184635691E+02 -0.85241208489E+02 -0.50279025659E+03  0.53882692005E+03  0.16500000000E+03 0.  0.
   -5000001    1    1    2    0    0 -0.55184635691E+02  0.85241208489E+02 -0.47483422224E+03  0.51283910366E+03  0.16500000000E+03 0.  0.
<mgrwt>
<rscale>  0 0.38762328E+03</rscale>
<asrwt>0</asrwt>
<pdfrwt beam="1">  1        2 0.14494930E+00 0.38762328E+03</pdfrwt>
<pdfrwt beam="2">  1       -2 0.52886824E-02 0.38762328E+03</pdfrwt>
<totfact> 0.51594701E+03</totfact>
</mgrwt>
</event>
<event>
 4    1  0.5531008E-005  0.4862280E+03  0.7818608E-02  0.1017437E+00
         -2   -1    0    0    0  501 -0.00000000000E+00  0.00000000000E+00  0.18470374376E+02  0.18470374552E+02  0.25500000000E-02 0.  1.
          2   -1    0    0  501    0  0.00000000000E+00 -0.00000000000E+00 -0.31999578136E+04  0.31999578136E+04  0.25500000000E-02 0. -1.
    5000001    1    1    2    0    0  0.77916854012E+02  0.16059073996E+03 -0.15618935385E+04  0.15806950520E+04  0.16500000000E+03 0.  0.
   -5000001    1    1    2    0    0 -0.77916854012E+02 -0.16059073996E+03 -0.16195939007E+04  0.16377331361E+04  0.16500000000E+03 0.  0.
<mgrwt>
<rscale>  0 0.48622801E+03</rscale>
<asrwt>0</asrwt>
<pdfrwt beam="1">  1        2 0.45713648E+00 0.48622801E+03</pdfrwt>
<pdfrwt beam="2">  1       -2 0.26386270E-02 0.48622801E+03</pdfrwt>
<totfact> 0.10791462E+03</totfact>
</mgrwt>
</event>
<event>
 4    1  0.5531008E-005  0.9750328E+03  0.7818608E-02  0.9336360E-01
         -2   -1    0    0    0  501 -0.00000000000E+00  0.00000000000E+00  0.82498618858E+03  0.82498618858E+03  0.25500000000E-02 0. -1.
          2   -1    0    0  501    0  0.00000000000E+00 -0.00000000000E+00 -0.28809236257E+03  0.28809236258E+03  0.25500000000E-02 0.  1.
    5000001    1    1    2    0    0 -0.39713658967E+03 -0.20736758392E+03  0.15584958478E+03  0.50222791518E+03  0.16500000000E+03 0.  0.
   -5000001    1    1    2    0    0  0.39713658967E+03  0.20736758392E+03  0.38104424122E+03  0.61085063598E+03  0.16500000000E+03 0.  0.
<mgrwt>
<rscale>  0 0.97503276E+03</rscale>
<asrwt>0</asrwt>
<pdfrwt beam="1">  1        2 0.41156052E-01 0.97503276E+03</pdfrwt>
<pdfrwt beam="2">  1       -2 0.11785517E+00 0.97503276E+03</pdfrwt>
<totfact> 0.69264688E+01</totfact>
</mgrwt>
</event>
<event>
 4    1  0.5531008E-005  0.9102444E+03  0.7818608E-02  0.9412865E-01
         -2   -1    0    0    0  501 -0.00000000000E+00  0.00000000000E+00  0.77381037446E+02  0.77381037488E+02  0.25500000000E-02 0. -1.
          2   -1    0    0  501    0  0.00000000000E+00 -0.00000000000E+00 -0.26768340979E+04  0.26768340979E+04  0.25500000000E-02 0.  1.
    5000001    1    1    2    0    0  0.40119256913E+03  0.13106202462E+03 -0.14273301125E+04  0.14975409783E+04  0.16500000000E+03 0.  0.
   -5000001    1    1    2    0    0 -0.40119256913E+03 -0.13106202462E+03 -0.11721229480E+04  0.12566741570E+04  0.16500000000E+03 0.  0.
<mgrwt>
<rscale>  0 0.91024436E+03</rscale>
<asrwt>0</asrwt>
<pdfrwt beam="1">  1        2 0.38240481E+00 0.91024436E+03</pdfrwt>
<pdfrwt beam="2">  1       -2 0.11054436E-01 0.91024436E+03</pdfrwt>
<totfact> 0.21140511E+02</totfact>
</mgrwt>
</event>
<event>
 4    1  0.5531008E-005  0.1032717E+04  0.7818608E-02  0.9273372E-01
         -2   -1    0    0    0  501 -0.00000000000E+00  0.00000000000E+00  0.10001495837E+04  0.10001495837E+04  0.25500000000E-02 0. -1.
          2   -1    0    0  501    0  0.00000000000E+00 -0.00000000000E+00 -0.26658609690E+03  0.26658609691E+03  0.25500000000E-02 0.  1.
    5000001    1    1    2    0    0 -0.46702862628E+03  0.13085196119E+03  0.44592392237E+03  0.67919887960E+03  0.16500000000E+03 0.  0.
   -5000001    1    1    2    0    0  0.46702862628E+03 -0.13085196119E+03  0.28763956442E+03  0.58753680100E+03  0.16500000000E+03 0.  0.
<mgrwt>
<rscale>  0 0.10327168E+04</rscale>
<asrwt>0</asrwt>
<pdfrwt beam="1">  1        2 0.38083728E-01 0.10327168E+04</pdfrwt>
<pdfrwt beam="2">  1       -2 0.14287851E+00 0.10327168E+04</pdfrwt>
<totfact> 0.46180567E+01</totfact>
</mgrwt>
</event>
<event>
 4    1  0.5531008E-005  0.1094393E+04  0.7818608E-02  0.9210674E-01
          2   -1    0    0  501    0  0.00000000000E+00  0.00000000000E+00  0.58456400875E+03  0.58456400875E+03  0.25500000000E-02 0.  1.
         -2   -1    0    0    0  501 -0.00000000000E+00 -0.00000000000E+00 -0.51221787706E+03  0.51221787707E+03  0.25500000000E-02 0. -1.
    5000001    1    1    2    0    0  0.12689535804E+03  0.35945472755E+03 -0.32081924572E+03  0.52484294935E+03  0.16500000000E+03 0.  0.
   -5000001    1    1    2    0    0 -0.12689535804E+03 -0.35945472755E+03  0.39316537741E+03  0.57193893647E+03  0.16500000000E+03 0.  0.
<mgrwt>
<rscale>  0 0.10943932E+04</rscale>
<asrwt>0</asrwt>
<pdfrwt beam="1">  1        2 0.83509144E-01 0.10943932E+04</pdfrwt>
<pdfrwt beam="2">  1       -2 0.73173982E-01 0.10943932E+04</pdfrwt>
<totfact> 0.93837644E+01</totfact>
</mgrwt>
</event>
<event>
 4    1  0.5531008E-005  0.4316534E+03  0.7818608E-02  0.1033339E+00
          2   -1    0    0  501    0  0.00000000000E+00  0.00000000000E+00  0.21405576387E+04  0.21405576387E+04  0.25500000000E-02 0. -1.
         -2   -1    0    0    0  501 -0.00000000000E+00 -0.00000000000E+00 -0.21761225991E+02  0.21761226140E+02  0.25500000000E-02 0.  1.
    5000001    1    1    2    0    0 -0.45852000559E+02 -0.13043848590E+03  0.98186523536E+03  0.10051870199E+04  0.16500000000E+03 0.  0.
   -5000001    1    1    2    0    0  0.45852000559E+02  0.13043848590E+03  0.11369311774E+04  0.11571318450E+04  0.16500000000E+03 0.  0.
<mgrwt>
<rscale>  0 0.43165337E+03</rscale>
<asrwt>0</asrwt>
<pdfrwt beam="1">  1        2 0.30579382E+00 0.43165337E+03</pdfrwt>
<pdfrwt beam="2">  1       -2 0.31087479E-02 0.43165337E+03</pdfrwt>
<totfact> 0.30112848E+03</totfact>
</mgrwt>
</event>
<event>
 4    1  0.5531008E-005  0.6550775E+03  0.7818608E-02  0.9797298E-01
          2   -1    0    0  501    0  0.00000000000E+00  0.00000000000E+00  0.86569609196E+03  0.86569609197E+03  0.25500000000E-02 0.  1.
         -2   -1    0    0    0  501 -0.00000000000E+00 -0.00000000000E+00 -0.12392528106E+03  0.12392528109E+03  0.25500000000E-02 0. -1.
    5000001    1    1    2    0    0 -0.16891516202E+03  0.19372771380E+03  0.54959395983E+03  0.62876170346E+03  0.16500000000E+03 0.  0.
   -5000001    1    1    2    0    0  0.16891516202E+03 -0.19372771380E+03  0.19217685107E+03  0.36085966960E+03  0.16500000000E+03 0.  0.
<mgrwt>
<rscale>  0 0.65507750E+03</rscale>
<asrwt>0</asrwt>
<pdfrwt beam="1">  1        2 0.12367087E+00 0.65507750E+03</pdfrwt>
<pdfrwt beam="2">  1       -2 0.17703612E-01 0.65507750E+03</pdfrwt>
<totfact> 0.90734177E+02</totfact>
</mgrwt>
</event>
<event>
 4    1  0.5531008E-005  0.4167018E+03  0.7818608E-02  0.1038145E+00
          2   -1    0    0  501    0  0.00000000000E+00  0.00000000000E+00  0.17789720594E+03  0.17789720596E+03  0.25500000000E-02 0.  1.
         -2   -1    0    0    0  501 -0.00000000000E+00 -0.00000000000E+00 -0.24401790112E+03  0.24401790114E+03  0.25500000000E-02 0. -1.
    5000001    1    1    2    0    0  0.11303303578E+03  0.58345900037E+02 -0.35182176515E+02  0.21129007732E+03  0.16500000000E+03 0.  0.
   -5000001    1    1    2    0    0 -0.11303303578E+03 -0.58345900037E+02 -0.30938518670E+02  0.21062502977E+03  0.16500000000E+03 0.  0.
<mgrwt>
<rscale>  0 0.41670183E+03</rscale>
<asrwt>0</asrwt>
<pdfrwt beam="1">  1        2 0.25413887E-01 0.41670183E+03</pdfrwt>
<pdfrwt beam="2">  1       -2 0.34859700E-01 0.41670183E+03</pdfrwt>
<totfact> 0.16478203E+03</totfact>
</mgrwt>
</event>
<event>
 4    1  0.5531008E-005  0.5650263E+03  0.7818608E-02  0.9980745E-01
         -2   -1    0    0    0  501 -0.00000000000E+00  0.00000000000E+00  0.77433966085E+02  0.77433966126E+02  0.25500000000E-02 0. -1.
          2   -1    0    0  501    0  0.00000000000E+00 -0.00000000000E+00 -0.10307322514E+04  0.10307322514E+04  0.25500000000E-02 0.  1.
    5000001    1    1    2    0    0  0.16085426760E+03 -0.14832071357E+03 -0.34196926482E+03  0.43822495086E+03  0.16500000000E+03 0.  0.
   -5000001    1    1    2    0    0 -0.16085426760E+03  0.14832071357E+03 -0.61132902047E+03  0.66994126664E+03  0.16500000000E+03 0.  0.
<mgrwt>
<rscale>  0 0.56502632E+03</rscale>
<asrwt>0</asrwt>
<pdfrwt beam="1">  1        2 0.14724746E+00 0.56502632E+03</pdfrwt>
<pdfrwt beam="2">  1       -2 0.11061996E-01 0.56502632E+03</pdfrwt>
<totfact> 0.15722428E+03</totfact>
</mgrwt>
</event>
<event>
 4    1  0.5531008E-005  0.4158075E+03  0.7818608E-02  0.1038440E+00
          2   -1    0    0  501    0  0.00000000000E+00  0.00000000000E+00  0.20571717164E+03  0.20571717166E+03  0.25500000000E-02 0.  1.
         -2   -1    0    0    0  501 -0.00000000000E+00 -0.00000000000E+00 -0.21011354427E+03  0.21011354429E+03  0.25500000000E-02 0. -1.
    5000001    1    1    2    0    0  0.11107492039E+01  0.12596126232E+03  0.92693936045E+01  0.20779411692E+03  0.16500000000E+03 0.  0.
   -5000001    1    1    2    0    0 -0.11107492039E+01 -0.12596126232E+03 -0.13665766230E+02  0.20803659903E+03  0.16500000000E+03 0.  0.
<mgrwt>
<rscale>  0 0.41580747E+03</rscale>
<asrwt>0</asrwt>
<pdfrwt beam="1">  1        2 0.29388167E-01 0.41580747E+03</pdfrwt>
<pdfrwt beam="2">  1       -2 0.30016221E-01 0.41580747E+03</pdfrwt>
<totfact> 0.18480392E+03</totfact>
</mgrwt>
</event>
<event>
 4    1  0.5531008E-005  0.6276165E+03  0.7818608E-02  0.9849711E-01
          2   -1    0    0  501    0  0.00000000000E+00  0.00000000000E+00  0.69308213322E+03  0.69308213323E+03  0.25500000000E-02 0.  1.
         -2   -1    0    0    0  501 -0.00000000000E+00 -0.00000000000E+00 -0.14208361820E+03  0.14208361823E+03  0.25500000000E-02 0. -1.
    5000001    1    1    2    0    0  0.18141048074E+03 -0.19427209892E+02  0.53477452680E+03  0.58863908596E+03  0.16500000000E+03 0.  0.
   -5000001    1    1    2    0    0 -0.18141048074E+03  0.19427209892E+02  0.16223988221E+02  0.24652666549E+03  0.16500000000E+03 0.  0.
<mgrwt>
<rscale>  0 0.62761650E+03</rscale>
<asrwt>0</asrwt>
<pdfrwt beam="1">  1        2 0.99011733E-01 0.62761650E+03</pdfrwt>
<pdfrwt beam="2">  1       -2 0.20297660E-01 0.62761650E+03</pdfrwt>
<totfact> 0.94980060E+02</totfact>
</mgrwt>
</event>
<event>
 4    1  0.5531008E-005  0.4527667E+03  0.7818608E-02  0.1026900E+00
          2   -1    0    0  501    0  0.00000000000E+00  0.00000000000E+00  0.16033439585E+03  0.16033439587E+03  0.25500000000E-02 0.  1.
         -2   -1    0    0    0  501 -0.00000000000E+00 -0.00000000000E+00 -0.31964085142E+03  0.31964085143E+03  0.25500000000E-02 0. -1.
    5000001    1    1    2    0    0  0.98907068686E+02 -0.94411025180E+02 -0.15703553269E+03  0.26567124127E+03  0.16500000000E+03 0.  0.
   -5000001    1    1    2    0    0 -0.98907068686E+02  0.94411025180E+02 -0.22709228838E+01  0.21430400603E+03  0.16500000000E+03 0.  0.
<mgrwt>
<rscale>  0 0.45276671E+03</rscale>
<asrwt>0</asrwt>
<pdfrwt beam="1">  1        2 0.22904914E-01 0.45276671E+03</pdfrwt>
<pdfrwt beam="2">  1       -2 0.45662978E-01 0.45276671E+03</pdfrwt>
<totfact> 0.11026434E+03</totfact>
</mgrwt>
</event>
<event>
 4    1  0.5531008E-005  0.5832330E+03  0.7818608E-02  0.9940816E-01
          2   -1    0    0  501    0  0.00000000000E+00  0.00000000000E+00  0.87394953470E+03  0.87394953470E+03  0.25500000000E-02 0.  1.
         -2   -1    0    0    0  501 -0.00000000000E+00 -0.00000000000E+00 -0.97305613207E+02  0.97305613240E+02  0.25500000000E-02 0. -1.
    5000001    1    1    2    0    0  0.20236962327E+03  0.12908277339E+03  0.41183558569E+03  0.50442975373E+03  0.16500000000E+03 0.  0.
   -5000001    1    1    2    0    0 -0.20236962327E+03 -0.12908277339E+03  0.36480833580E+03  0.46682539421E+03  0.16500000000E+03 0.  0.
<mgrwt>
<rscale>  0 0.58323304E+03</rscale>
<asrwt>0</asrwt>
<pdfrwt beam="1">  1        2 0.12484993E+00 0.58323304E+03</pdfrwt>
<pdfrwt beam="2">  1       -2 0.13900802E-01 0.58323304E+03</pdfrwt>
<totfact> 0.13513122E+03</totfact>
</mgrwt>
</event>
<event>
 4    1  0.5531008E-005  0.7159994E+03  0.7818608E-02  0.9690256E-01
         -2   -1    0    0    0  501 -0.00000000000E+00  0.00000000000E+00  0.38478856996E+02  0.38478857081E+02  0.25500000000E-02 0. -1.
          2   -1    0    0  501    0  0.00000000000E+00 -0.00000000000E+00 -0.33307585877E+04  0.33307585878E+04  0.25500000000E-02 0.  1.
    5000001    1    1    2    0    0  0.19184181745E+03 -0.24665734511E+03 -0.13759992934E+04  0.14206485083E+04  0.16500000000E+03 0.  0.
   -5000001    1    1    2    0    0 -0.19184181745E+03  0.24665734511E+03 -0.19162804374E+04  0.19485889365E+04  0.16500000000E+03 0.  0.
<mgrwt>
<rscale>  0 0.71599940E+03</rscale>
<asrwt>0</asrwt>
<pdfrwt beam="1">  1        2 0.47582247E+00 0.71599940E+03</pdfrwt>
<pdfrwt beam="2">  1       -2 0.54969817E-02 0.71599940E+03</pdfrwt>
<totfact> 0.28794083E+02</totfact>
</mgrwt>
</event>
<event>
 4    1  0.5531008E-005  0.6791003E+03  0.7818608E-02  0.9753656E-01
          2   -1    0    0  501    0  0.00000000000E+00  0.00000000000E+00  0.37764167442E+03  0.37764167442E+03  0.25500000000E-02 0.  1.
         -2   -1    0    0    0  501 -0.00000000000E+00 -0.00000000000E+00 -0.30530076027E+03  0.30530076028E+03  0.25500000000E-02 0. -1.
    5000001    1    1    2    0    0 -0.10127628633E+03 -0.26301951024E+03 -0.57269930055E+02  0.33157351195E+03  0.16500000000E+03 0.  0.
   -5000001    1    1    2    0    0  0.10127628633E+03  0.26301951024E+03  0.12961084420E+03  0.35136892275E+03  0.16500000000E+03 0.  0.
<mgrwt>
<rscale>  0 0.67910026E+03</rscale>
<asrwt>0</asrwt>
<pdfrwt beam="1">  1        2 0.53948811E-01 0.67910026E+03</pdfrwt>
<pdfrwt beam="2">  1       -2 0.43614394E-01 0.67910026E+03</pdfrwt>
<totfact> 0.46320894E+02</totfact>
</mgrwt>
</event>
<event>
 4    1  0.5531008E-005  0.4184118E+03  0.7818608E-02  0.1037584E+00
         -2   -1    0    0    0  501 -0.00000000000E+00  0.00000000000E+00  0.32840557647E+02  0.32840557746E+02  0.25500000000E-02 0. -1.
          2   -1    0    0  501    0  0.00000000000E+00 -0.00000000000E+00 -0.13327149163E+04  0.13327149163E+04  0.25500000000E-02 0.  1.
    5000001    1    1    2    0    0  0.10492020783E+03  0.38899584321E+02 -0.44299221600E+03  0.48578650774E+03  0.16500000000E+03 0.  0.
   -5000001    1    1    2    0    0 -0.10492020783E+03 -0.38899584321E+02 -0.85688214268E+03  0.87976896632E+03  0.16500000000E+03 0.  0.
<mgrwt>
<rscale>  0 0.41841176E+03</rscale>
<asrwt>0</asrwt>
<pdfrwt beam="1">  1        2 0.19038781E+00 0.41841176E+03</pdfrwt>
<pdfrwt beam="2">  1       -2 0.46915091E-02 0.41841176E+03</pdfrwt>
<totfact> 0.41216756E+03</totfact>
</mgrwt>
</event>
<event>
 4    1  0.5531008E-005  0.4133393E+03  0.7818608E-02  0.1039256E+00
         -2   -1    0    0    0  501 -0.00000000000E+00  0.00000000000E+00  0.86027298462E+02  0.86027298500E+02  0.25500000000E-02 0. -1.
          2   -1    0    0  501    0  0.00000000000E+00 -0.00000000000E+00 -0.49649767520E+03  0.49649767521E+03  0.25500000000E-02 0.  1.
    5000001    1    1    2    0    0  0.78635640160E+02  0.43128676659E+02 -0.83643906335E+02  0.20558441021E+03  0.16500000000E+03 0.  0.
   -5000001    1    1    2    0    0 -0.78635640160E+02 -0.43128676659E+02 -0.32682647040E+03  0.37694056350E+03  0.16500000000E+03 0.  0.
<mgrwt>
<rscale>  0 0.41333935E+03</rscale>
<asrwt>0</asrwt>
<pdfrwt beam="1">  1        2 0.70928238E-01 0.41333935E+03</pdfrwt>
<pdfrwt beam="2">  1       -2 0.12289614E-01 0.41333935E+03</pdfrwt>
<totfact> 0.32669187E+03</totfact>
</mgrwt>
</event>
<event>
 4    1  0.5531008E-005  0.4572951E+03  0.7818608E-02  0.1025569E+00
         -2   -1    0    0    0  501 -0.00000000000E+00  0.00000000000E+00  0.35710294711E+03  0.35710294712E+03  0.25500000000E-02 0. -1.
          2   -1    0    0  501    0  0.00000000000E+00 -0.00000000000E+00 -0.14639953214E+03  0.14639953216E+03  0.25500000000E-02 0.  1.
    5000001    1    1    2    0    0 -0.92438670070E+02  0.82496392379E+02  0.21381521024E+03  0.29714055026E+03  0.16500000000E+03 0.  0.
   -5000001    1    1    2    0    0  0.92438670070E+02 -0.82496392379E+02 -0.31117952640E+01  0.20636192902E+03  0.16500000000E+03 0.  0.
<mgrwt>
<rscale>  0 0.45729511E+03</rscale>
<asrwt>0</asrwt>
<pdfrwt beam="1">  1        2 0.20914219E-01 0.45729511E+03</pdfrwt>
<pdfrwt beam="2">  1       -2 0.51014706E-01 0.45729511E+03</pdfrwt>
<totfact> 0.98074652E+02</totfact>
</mgrwt>
</event>
<event>
 4    1  0.5531008E-005  0.5839473E+03  0.7818608E-02  0.9939282E-01
          2   -1    0    0  501    0  0.00000000000E+00  0.00000000000E+00  0.25778325365E+03  0.25778325366E+03  0.25500000000E-02 0.  1.
         -2   -1    0    0    0  501 -0.00000000000E+00 -0.00000000000E+00 -0.33069874946E+03  0.33069874947E+03  0.25500000000E-02 0. -1.
    5000001    1    1    2    0    0 -0.80347490852E+02  0.17768383934E+03  0.10604877704E+03  0.27658381941E+03  0.16500000000E+03 0.  0.
   -5000001    1    1    2    0    0  0.80347490852E+02 -0.17768383934E+03 -0.17896427285E+03  0.31189818372E+03  0.16500000000E+03 0.  0.
<mgrwt>
<rscale>  0 0.58394726E+03</rscale>
<asrwt>0</asrwt>
<pdfrwt beam="1">  1        2 0.36826180E-01 0.58394726E+03</pdfrwt>
<pdfrwt beam="2">  1       -2 0.47242678E-01 0.58394726E+03</pdfrwt>
<totfact> 0.60404547E+02</totfact>
</mgrwt>
</event>
<event>
 4    1  0.5531008E-005  0.7505737E+03  0.7818608E-02  0.9634451E-01
         -2   -1    0    0    0  501 -0.00000000000E+00  0.00000000000E+00  0.94641015232E+02  0.94641015266E+02  0.25500000000E-02 0. -1.
          2   -1    0    0  501    0  0.00000000000E+00 -0.00000000000E+00 -0.14881521375E+04  0.14881521375E+04  0.25500000000E-02 0.  1.
    5000001    1    1    2    0    0  0.15106033355E+03  0.26252593171E+03 -0.10086561194E+04  0.10659977751E+04  0.16500000000E+03 0.  0.
   -5000001    1    1    2    0    0 -0.15106033355E+03 -0.26252593171E+03 -0.38485500280E+03  0.51679537766E+03  0.16500000000E+03 0.  0.
<mgrwt>
<rscale>  0 0.75057372E+03</rscale>
<asrwt>0</asrwt>
<pdfrwt beam="1">  1        2 0.21259315E+00 0.75057372E+03</pdfrwt>
<pdfrwt beam="2">  1       -2 0.13520146E-01 0.75057372E+03</pdfrwt>
<totfact> 0.62480663E+02</totfact>
</mgrwt>
</event>
<event>
 4    1  0.5531008E-005  0.5773577E+03  0.7818608E-02  0.9953528E-01
         -2   -1    0    0    0  501 -0.00000000000E+00  0.00000000000E+00  0.41698003959E+02  0.41698004037E+02  0.25500000000E-02 0. -1.
          2   -1    0    0  501    0  0.00000000000E+00 -0.00000000000E+00 -0.19985486727E+04  0.19985486727E+04  0.25500000000E-02 0.  1.
    5000001    1    1    2    0    0  0.80911377362E+02  0.21596445346E+03 -0.11694839096E+04  0.12033723078E+04  0.16500000000E+03 0.  0.
   -5000001    1    1    2    0    0 -0.80911377362E+02 -0.21596445346E+03 -0.78736675914E+03  0.83687436903E+03  0.16500000000E+03 0.  0.
<mgrwt>
<rscale>  0 0.57735774E+03</rscale>
<asrwt>0</asrwt>
<pdfrwt beam="1">  1        2 0.28550689E+00 0.57735774E+03</pdfrwt>
<pdfrwt beam="2">  1       -2 0.59568590E-02 0.57735774E+03</pdfrwt>
<totfact> 0.12978109E+03</totfact>
</mgrwt>
</event>
<event>
 4    1  0.5531008E-005  0.5636249E+03  0.7818608E-02  0.9983886E-01
          2   -1    0    0  501    0  0.00000000000E+00  0.00000000000E+00  0.72853739685E+03  0.72853739686E+03  0.25500000000E-02 0.  1.
         -2   -1    0    0    0  501 -0.00000000000E+00 -0.00000000000E+00 -0.10901055980E+03  0.10901055983E+03  0.25500000000E-02 0. -1.
    5000001    1    1    2    0    0 -0.21803583330E+03  0.58489191398E+02  0.36193584286E+03  0.45736546050E+03  0.16500000000E+03 0.  0.
   -5000001    1    1    2    0    0  0.21803583330E+03 -0.58489191398E+02  0.25759099420E+03  0.38018249619E+03  0.16500000000E+03 0.  0.
<mgrwt>
<rscale>  0 0.56362494E+03</rscale>
<asrwt>0</asrwt>
<pdfrwt beam="1">  1        2 0.10407677E+00 0.56362494E+03</pdfrwt>
<pdfrwt beam="2">  1       -2 0.15572937E-01 0.56362494E+03</pdfrwt>
<totfact> 0.14088697E+03</totfact>
</mgrwt>
</event>
<event>
 4    1  0.5531008E-005  0.5572539E+03  0.7818608E-02  0.9998287E-01
          2   -1    0    0  501    0  0.00000000000E+00  0.00000000000E+00  0.25716338398E+03  0.25716338399E+03  0.25500000000E-02 0.  1.
         -2   -1    0    0    0  501 -0.00000000000E+00 -0.00000000000E+00 -0.30188197688E+03  0.30188197689E+03  0.25500000000E-02 0. -1.
    5000001    1    1    2    0    0  0.15976990160E+03  0.61390931511E+02  0.12340998621E+03  0.26786245094E+03  0.16500000000E+03 0.  0.
   -5000001    1    1    2    0    0 -0.15976990160E+03 -0.61390931511E+02 -0.16812857910E+03  0.29118290994E+03  0.16500000000E+03 0.  0.
<mgrwt>
<rscale>  0 0.55725395E+03</rscale>
<asrwt>0</asrwt>
<pdfrwt beam="1">  1        2 0.36737626E-01 0.55725395E+03</pdfrwt>
<pdfrwt beam="2">  1       -2 0.43125997E-01 0.55725395E+03</pdfrwt>
<totfact> 0.72595788E+02</totfact>
</mgrwt>
</event>
<event>
 4    1  0.5531008E-005  0.4472223E+03  0.7818608E-02  0.1028554E+00
          2   -1    0    0  501    0  0.00000000000E+00  0.00000000000E+00  0.78246366940E+03  0.78246366940E+03  0.25500000000E-02 0. -1.
         -2   -1    0    0    0  501 -0.00000000000E+00 -0.00000000000E+00 -0.63903221656E+02  0.63903221707E+02  0.25500000000E-02 0.  1.
    5000001    1    1    2    0    0  0.10536290497E+03 -0.97964609931E+02  0.44556112786E+03  0.49643541896E+03  0.16500000000E+03 0.  0.
   -5000001    1    1    2    0    0 -0.10536290497E+03  0.97964609931E+02  0.27299931989E+03  0.34993147215E+03  0.16500000000E+03 0.  0.
<mgrwt>
<rscale>  0 0.44722231E+03</rscale>
<asrwt>0</asrwt>
<pdfrwt beam="1">  1        2 0.11178052E+00 0.44722231E+03</pdfrwt>
<pdfrwt beam="2">  1       -2 0.91290317E-02 0.44722231E+03</pdfrwt>
<totfact> 0.30940214E+03</totfact>
</mgrwt>
</event>
<event>
 4    1  0.5531008E-005  0.5493276E+03  0.7818608E-02  0.1001650E+00
         -2   -1    0    0    0  501 -0.00000000000E+00  0.00000000000E+00  0.18998121106E+02  0.18998121277E+02  0.25500000000E-02 0. -1.
          2   -1    0    0  501    0  0.00000000000E+00 -0.00000000000E+00 -0.39709292170E+04  0.39709292170E+04  0.25500000000E-02 0.  1.
    5000001    1    1    2    0    0 -0.15499436645E+03 -0.35139318406E+02 -0.30764724195E+04  0.30849903685E+04  0.16500000000E+03 0.  0.
   -5000001    1    1    2    0    0  0.15499436645E+03  0.35139318406E+02 -0.87545867631E+03  0.90493696977E+03  0.16500000000E+03 0.  0.
<mgrwt>
<rscale>  0 0.54932757E+03</rscale>
<asrwt>0</asrwt>
<pdfrwt beam="1">  1        2 0.56727507E+00 0.54932757E+03</pdfrwt>
<pdfrwt beam="2">  1       -2 0.27140198E-02 0.54932757E+03</pdfrwt>
<totfact> 0.35101853E+02</totfact>
</mgrwt>
</event>
<event>
 4    1  0.5531008E-005  0.4139375E+03  0.7818608E-02  0.1039058E+00
         -2   -1    0    0    0  501 -0.00000000000E+00  0.00000000000E+00  0.88089562189E+02  0.88089562226E+02  0.25500000000E-02 0. -1.
          2   -1    0    0  501    0  0.00000000000E+00 -0.00000000000E+00 -0.48627864779E+03  0.48627864779E+03  0.25500000000E-02 0.  1.
    5000001    1    1    2    0    0  0.57048705933E+02  0.95116604941E+02 -0.11927175134E+03  0.23184579801E+03  0.16500000000E+03 0.  0.
   -5000001    1    1    2    0    0 -0.57048705933E+02 -0.95116604941E+02 -0.27891733425E+03  0.34252241201E+03  0.16500000000E+03 0.  0.
<mgrwt>
<rscale>  0 0.41393755E+03</rscale>
<asrwt>0</asrwt>
<pdfrwt beam="1">  1        2 0.69468377E-01 0.41393755E+03</pdfrwt>
<pdfrwt beam="2">  1       -2 0.12584223E-01 0.41393755E+03</pdfrwt>
<totfact> 0.32168200E+03</totfact>
</mgrwt>
</event>
<event>
 4    1  0.5531008E-005  0.4415548E+03  0.7818608E-02  0.1030271E+00
         -2   -1    0    0    0  501 -0.00000000000E+00  0.00000000000E+00  0.28049416322E+02  0.28049416437E+02  0.25500000000E-02 0. -1.
          2   -1    0    0  501    0  0.00000000000E+00 -0.00000000000E+00 -0.17377424356E+04  0.17377424357E+04  0.25500000000E-02 0.  1.
    5000001    1    1    2    0    0  0.14589823874E+02  0.13067552943E+03 -0.59479549789E+03  0.63110667978E+03  0.16500000000E+03 0.  0.
   -5000001    1    1    2    0    0 -0.14589823874E+02 -0.13067552943E+03 -0.11148975214E+04  0.11346851723E+04  0.16500000000E+03 0.  0.
<mgrwt>
<rscale>  0 0.44155480E+03</rscale>
<asrwt>0</asrwt>
<pdfrwt beam="1">  1        2 0.24824885E+00 0.44155480E+03</pdfrwt>
<pdfrwt beam="2">  1       -2 0.40070606E-02 0.44155480E+03</pdfrwt>
<totfact> 0.32493770E+03</totfact>
</mgrwt>
</event>
<event>
 4    1  0.5531008E-005  0.7016164E+03  0.7818608E-02  0.9714472E-01
         -2   -1    0    0    0  501 -0.00000000000E+00  0.00000000000E+00  0.72367393403E+02  0.72367393448E+02  0.25500000000E-02 0.  1.
          2   -1    0    0  501    0  0.00000000000E+00 -0.00000000000E+00 -0.17005778301E+04  0.17005778301E+04  0.25500000000E-02 0. -1.
    5000001    1    1    2    0    0  0.79319459608E+02 -0.28473023176E+03 -0.58142728467E+03  0.67278939417E+03  0.16500000000E+03 0.  0.
   -5000001    1    1    2    0    0 -0.79319459608E+02  0.28473023176E+03 -0.10467831520E+04  0.11001558294E+04  0.16500000000E+03 0.  0.
<mgrwt>
<rscale>  0 0.70161638E+03</rscale>
<asrwt>0</asrwt>
<pdfrwt beam="1">  1        2 0.24293966E+00 0.70161638E+03</pdfrwt>
<pdfrwt beam="2">  1       -2 0.10338200E-01 0.70161638E+03</pdfrwt>
<totfact> 0.75702060E+02</totfact>
</mgrwt>
</event>
<event>
 4    1  0.5531008E-005  0.4865530E+03  0.7818608E-02  0.1017350E+00
          2   -1    0    0  501    0  0.00000000000E+00  0.00000000000E+00  0.93137045049E+03  0.93137045049E+03  0.25500000000E-02 0.  1.
         -2   -1    0    0    0  501 -0.00000000000E+00 -0.00000000000E+00 -0.63544480712E+02  0.63544480763E+02  0.25500000000E-02 0. -1.
    5000001    1    1    2    0    0 -0.14081432596E+03  0.92842608375E+02  0.31276643325E+03  0.39178599528E+03  0.16500000000E+03 0.  0.
   -5000001    1    1    2    0    0  0.14081432596E+03 -0.92842608375E+02  0.55505953653E+03  0.60312893598E+03  0.16500000000E+03 0.  0.
<mgrwt>
<rscale>  0 0.48655298E+03</rscale>
<asrwt>0</asrwt>
<pdfrwt beam="1">  1        2 0.13305291E+00 0.48655298E+03</pdfrwt>
<pdfrwt beam="2">  1       -2 0.90777835E-02 0.48655298E+03</pdfrwt>
<totfact> 0.24913012E+03</totfact>
</mgrwt>
</event>
<event>
 4    1  0.5531008E-005  0.5124140E+03  0.7818608E-02  0.1010589E+00
         -2   -1    0    0    0  501 -0.00000000000E+00  0.00000000000E+00  0.13282398110E+03  0.13282398113E+03  0.25500000000E-02 0. -1.
          2   -1    0    0  501    0  0.00000000000E+00 -0.00000000000E+00 -0.49420307875E+03  0.49420307876E+03  0.25500000000E-02 0.  1.
    5000001    1    1    2    0    0  0.14960745192E+03 -0.12503654214E+03 -0.20517810895E+03  0.32762720115E+03  0.16500000000E+03 0.  0.
   -5000001    1    1    2    0    0 -0.14960745192E+03  0.12503654214E+03 -0.15620098869E+03  0.29939985873E+03  0.16500000000E+03 0.  0.
<mgrwt>
<rscale>  0 0.51241397E+03</rscale>
<asrwt>0</asrwt>
<pdfrwt beam="1">  1        2 0.70600439E-01 0.51241397E+03</pdfrwt>
<pdfrwt beam="2">  1       -2 0.18974855E-01 0.51241397E+03</pdfrwt>
<totfact> 0.15877619E+03</totfact>
</mgrwt>
</event>
<event>
 4    1  0.5531008E-005  0.5236236E+03  0.7818608E-02  0.1007790E+00
          2   -1    0    0  501    0  0.00000000000E+00  0.00000000000E+00  0.63466330994E+03  0.63466330995E+03  0.25500000000E-02 0.  1.
         -2   -1    0    0    0  501 -0.00000000000E+00 -0.00000000000E+00 -0.10800280788E+03  0.10800280791E+03  0.25500000000E-02 0. -1.
    5000001    1    1    2    0    0  0.17667470637E+03  0.98248595956E+02  0.29354018144E+03  0.39275638327E+03  0.16500000000E+03 0.  0.
   -5000001    1    1    2    0    0 -0.17667470637E+03 -0.98248595956E+02  0.23312032062E+03  0.34990973459E+03  0.16500000000E+03 0.  0.
<mgrwt>
<rscale>  0 0.52362360E+03</rscale>
<asrwt>0</asrwt>
<pdfrwt beam="1">  1        2 0.90666187E-01 0.52362360E+03</pdfrwt>
<pdfrwt beam="2">  1       -2 0.15428973E-01 0.52362360E+03</pdfrwt>
<totfact> 0.16913582E+03</totfact>
</mgrwt>
</event>
<event>
 4    1  0.5531008E-005  0.8753546E+03  0.7818608E-02  0.9456925E-01
         -2   -1    0    0    0  501 -0.00000000000E+00  0.00000000000E+00  0.14875379611E+03  0.14875379613E+03  0.25500000000E-02 0. -1.
          2   -1    0    0  501    0  0.00000000000E+00 -0.00000000000E+00 -0.12877751384E+04  0.12877751384E+04  0.25500000000E-02 0.  1.
    5000001    1    1    2    0    0 -0.25959588597E+03  0.29158326544E+03 -0.39029716344E+03  0.57616638264E+03  0.16500000000E+03 0.  0.
   -5000001    1    1    2    0    0  0.25959588597E+03 -0.29158326544E+03 -0.74872417881E+03  0.86036255185E+03  0.16500000000E+03 0.  0.
<mgrwt>
<rscale>  0 0.87535465E+03</rscale>
<asrwt>0</asrwt>
<pdfrwt beam="1">  1        2 0.18396787E+00 0.87535465E+03</pdfrwt>
<pdfrwt beam="2">  1       -2 0.21250543E-01 0.87535465E+03</pdfrwt>
<totfact> 0.36623061E+02</totfact>
</mgrwt>
</event>
<event>
 4    1  0.5531008E-005  0.5583577E+03  0.7818608E-02  0.9995778E-01
         -2   -1    0    0    0  501 -0.00000000000E+00  0.00000000000E+00  0.79304515322E+02  0.79304515363E+02  0.25500000000E-02 0. -1.
          2   -1    0    0  501    0  0.00000000000E+00 -0.00000000000E+00 -0.98280433028E+03  0.98280433029E+03  0.25500000000E-02 0.  1.
    5000001    1    1    2    0    0 -0.15972309300E+03 -0.13442735829E+03 -0.61241152539E+03  0.66772378835E+03  0.16500000000E+03 0.  0.
   -5000001    1    1    2    0    0  0.15972309300E+03  0.13442735829E+03 -0.29108828957E+03  0.39438505730E+03  0.16500000000E+03 0.  0.
<mgrwt>
<rscale>  0 0.55835767E+03</rscale>
<asrwt>0</asrwt>
<pdfrwt beam="1">  1        2 0.14040061E+00 0.55835767E+03</pdfrwt>
<pdfrwt beam="2">  1       -2 0.11329217E-01 0.55835767E+03</pdfrwt>
<totfact> 0.16168360E+03</totfact>
</mgrwt>
</event>
<event>
 4    1  0.5531008E-005  0.5618260E+03  0.7818608E-02  0.9987931E-01
         -2   -1    0    0    0  501 -0.00000000000E+00  0.00000000000E+00  0.41011507273E+02  0.41011507352E+02  0.25500000000E-02 0. -1.
          2   -1    0    0  501    0  0.00000000000E+00 -0.00000000000E+00 -0.19241458592E+04  0.19241458592E+04  0.25500000000E-02 0.  1.
    5000001    1    1    2    0    0  0.16009305446E+03 -0.14342767114E+03 -0.68249724604E+03  0.73432198236E+03  0.16500000000E+03 0.  0.
   -5000001    1    1    2    0    0 -0.16009305446E+03  0.14342767114E+03 -0.12006371059E+04  0.12308353842E+04  0.16500000000E+03 0.  0.
<mgrwt>
<rscale>  0 0.56182603E+03</rscale>
<asrwt>0</asrwt>
<pdfrwt beam="1">  1        2 0.27487792E+00 0.56182603E+03</pdfrwt>
<pdfrwt beam="2">  1       -2 0.58587880E-02 0.56182603E+03</pdfrwt>
<totfact> 0.14525222E+03</totfact>
</mgrwt>
</event>
<event>
 4    1  0.5531008E-005  0.5162420E+03  0.7818608E-02  0.1009624E+00
          2   -1    0    0  501    0  0.00000000000E+00  0.00000000000E+00  0.24095219419E+04  0.24095219419E+04  0.25500000000E-02 0.  1.
         -2   -1    0    0    0  501 -0.00000000000E+00 -0.00000000000E+00 -0.27651310027E+02  0.27651310145E+02  0.25500000000E-02 0. -1.
    5000001    1    1    2    0    0 -0.19742246288E+03  0.12231654586E+02  0.11124764690E+04  0.11419081120E+04  0.16500000000E+03 0.  0.
   -5000001    1    1    2    0    0  0.19742246288E+03 -0.12231654586E+02  0.12693941630E+04  0.12952651401E+04  0.16500000000E+03 0.  0.
<mgrwt>
<rscale>  0 0.51624195E+03</rscale>
<asrwt>0</asrwt>
<pdfrwt beam="1">  1        2 0.34421752E+00 0.51624195E+03</pdfrwt>
<pdfrwt beam="2">  1       -2 0.39501860E-02 0.51624195E+03</pdfrwt>
<totfact> 0.15272486E+03</totfact>
</mgrwt>
</event>
<event>
 4    1  0.5531008E-005  0.7070856E+03  0.7818608E-02  0.9705191E-01
         -2   -1    0    0    0  501 -0.00000000000E+00  0.00000000000E+00  0.95902761272E+02  0.95902761306E+02  0.25500000000E-02 0. -1.
          2   -1    0    0  501    0  0.00000000000E+00 -0.00000000000E+00 -0.13033254341E+04  0.13033254341E+04  0.25500000000E-02 0.  1.
    5000001    1    1    2    0    0 -0.20625342163E+03  0.23321181783E+03 -0.54638284212E+03  0.65014416560E+03  0.16500000000E+03 0.  0.
   -5000001    1    1    2    0    0  0.20625342163E+03 -0.23321181783E+03 -0.66103983067E+03  0.74908402976E+03  0.16500000000E+03 0.  0.
<mgrwt>
<rscale>  0 0.70708559E+03</rscale>
<asrwt>0</asrwt>
<pdfrwt beam="1">  1        2 0.18618934E+00 0.70708559E+03</pdfrwt>
<pdfrwt beam="2">  1       -2 0.13700395E-01 0.70708559E+03</pdfrwt>
<totfact> 0.76904924E+02</totfact>
</mgrwt>
</event>
<event>
 4    1  0.5531008E-005  0.5606752E+03  0.7818608E-02  0.9990528E-01
         -2   -1    0    0    0  501 -0.00000000000E+00  0.00000000000E+00  0.13018248659E+03  0.13018248661E+03  0.25500000000E-02 0. -1.
          2   -1    0    0  501    0  0.00000000000E+00 -0.00000000000E+00 -0.60368458704E+03  0.60368458704E+03  0.25500000000E-02 0.  1.
    5000001    1    1    2    0    0  0.18948044202E+02  0.19509201764E+03 -0.38566806056E+03  0.46301703712E+03  0.16500000000E+03 0.  0.
   -5000001    1    1    2    0    0 -0.18948044202E+02 -0.19509201764E+03 -0.87834039890E+02  0.27085003653E+03  0.16500000000E+03 0.  0.
<mgrwt>
<rscale>  0 0.56067517E+03</rscale>
<asrwt>0</asrwt>
<pdfrwt beam="1">  1        2 0.86240654E-01 0.56067517E+03</pdfrwt>
<pdfrwt beam="2">  1       -2 0.18597498E-01 0.56067517E+03</pdfrwt>
<totfact> 0.13054017E+03</totfact>
</mgrwt>
</event>
<event>
 4    1  0.5531008E-005  0.5003934E+03  0.7818608E-02  0.1013676E+00
         -2   -1    0    0    0  501 -0.00000000000E+00  0.00000000000E+00  0.60238925777E+02  0.60238925831E+02  0.25500000000E-02 0. -1.
          2   -1    0    0  501    0  0.00000000000E+00 -0.00000000000E+00 -0.10391684596E+04  0.10391684596E+04  0.25500000000E-02 0.  1.
    5000001    1    1    2    0    0 -0.14180782522E+03  0.80395354756E+02 -0.69557578972E+03  0.73322817158E+03  0.16500000000E+03 0.  0.
   -5000001    1    1    2    0    0  0.14180782522E+03 -0.80395354756E+02 -0.28335374411E+03  0.36617921385E+03  0.16500000000E+03 0.  0.
<mgrwt>
<rscale>  0 0.50039341E+03</rscale>
<asrwt>0</asrwt>
<pdfrwt beam="1">  1        2 0.14845263E+00 0.50039341E+03</pdfrwt>
<pdfrwt beam="2">  1       -2 0.86055615E-02 0.50039341E+03</pdfrwt>
<totfact> 0.23320625E+03</totfact>
</mgrwt>
</event>
<event>
 4    1  0.5531008E-005  0.7077913E+03  0.7818608E-02  0.9704000E-01
         -2   -1    0    0    0  501 -0.00000000000E+00  0.00000000000E+00  0.21630443136E+03  0.21630443137E+03  0.25500000000E-02 0. -1.
          2   -1    0    0  501    0  0.00000000000E+00 -0.00000000000E+00 -0.57900859534E+03  0.57900859535E+03  0.25500000000E-02 0.  1.
    5000001    1    1    2    0    0  0.65308313552E+02  0.29112576360E+03 -0.74766225278E+02  0.34904781119E+03  0.16500000000E+03 0.  0.
   -5000001    1    1    2    0    0 -0.65308313552E+02 -0.29112576360E+03 -0.28793793870E+03  0.44626521553E+03  0.16500000000E+03 0.  0.
<mgrwt>
<rscale>  0 0.70779128E+03</rscale>
<asrwt>0</asrwt>
<pdfrwt beam="1">  1        2 0.82715513E-01 0.70779128E+03</pdfrwt>
<pdfrwt beam="2">  1       -2 0.30900633E-01 0.70779128E+03</pdfrwt>
<totfact> 0.55149140E+02</totfact>
</mgrwt>
</event>
<event>
 4    1  0.5531008E-005  0.5705270E+03  0.7818608E-02  0.9968513E-01
         -2   -1    0    0    0  501 -0.00000000000E+00  0.00000000000E+00  0.19526520711E+03  0.19526520713E+03  0.25500000000E-02 0. -1.
          2   -1    0    0  501    0  0.00000000000E+00 -0.00000000000E+00 -0.41674230261E+03  0.41674230262E+03  0.25500000000E-02 0.  1.
    5000001    1    1    2    0    0  0.48747809232E+02  0.16150167676E+03  0.61199560957E+02  0.24378171950E+03  0.16500000000E+03 0.  0.
   -5000001    1    1    2    0    0 -0.48747809232E+02 -0.16150167676E+03 -0.28267665645E+03  0.36822579025E+03  0.16500000000E+03 0.  0.
<mgrwt>
<rscale>  0 0.57052703E+03</rscale>
<asrwt>0</asrwt>
<pdfrwt beam="1">  1        2 0.59534614E-01 0.57052703E+03</pdfrwt>
<pdfrwt beam="2">  1       -2 0.27895030E-01 0.57052703E+03</pdfrwt>
<totfact> 0.97094263E+02</totfact>
</mgrwt>
</event>
<event>
 4    1  0.5531008E-005  0.5146834E+03  0.7818608E-02  0.1010016E+00
          2   -1    0    0  501    0  0.00000000000E+00  0.00000000000E+00  0.20766330659E+04  0.20766330659E+04  0.25500000000E-02 0.  1.
         -2   -1    0    0    0  501 -0.00000000000E+00 -0.00000000000E+00 -0.31890442462E+02  0.31890442564E+02  0.25500000000E-02 0. -1.
    5000001    1    1    2    0    0  0.10066276431E+03  0.13037648878E+03  0.14686851545E+04  0.14870750163E+04  0.16500000000E+03 0.  0.
   -5000001    1    1    2    0    0 -0.10066276431E+03 -0.13037648878E+03  0.57605746896E+03  0.62144849222E+03  0.16500000000E+03 0.  0.
<mgrwt>
<rscale>  0 0.51468339E+03</rscale>
<asrwt>0</asrwt>
<pdfrwt beam="1">  1        2 0.29666199E+00 0.51468339E+03</pdfrwt>
<pdfrwt beam="2">  1       -2 0.45557756E-02 0.51468339E+03</pdfrwt>
<totfact> 0.18036337E+03</totfact>
</mgrwt>
</event>
<event>
 4    1  0.5531008E-005  0.6522446E+03  0.7818608E-02  0.9802576E-01
         -2   -1    0    0    0  501 -0.00000000000E+00  0.00000000000E+00  0.10595379468E+03  0.10595379471E+03  0.25500000000E-02 0. -1.
          2   -1    0    0  501    0  0.00000000000E+00 -0.00000000000E+00 -0.10037938807E+04  0.10037938807E+04  0.25500000000E-02 0.  1.
    5000001    1    1    2    0    0 -0.97930475140E+02  0.23465692801E+03 -0.65363321612E+03  0.72049679600E+03  0.16500000000E+03 0.  0.
   -5000001    1    1    2    0    0  0.97930475140E+02 -0.23465692801E+03 -0.24420686989E+03  0.38925087941E+03  0.16500000000E+03 0.  0.
<mgrwt>
<rscale>  0 0.65224465E+03</rscale>
<asrwt>0</asrwt>
<pdfrwt beam="1">  1        2 0.14339912E+00 0.65224465E+03</pdfrwt>
<pdfrwt beam="2">  1       -2 0.15136257E-01 0.65224465E+03</pdfrwt>
<totfact> 0.96831513E+02</totfact>
</mgrwt>
</event>
<event>
 4    1  0.5531008E-005  0.3467217E+03  0.7818608E-02  0.1063969E+00
         -2   -1    0    0    0  501 -0.00000000000E+00  0.00000000000E+00  0.67170614244E+02  0.67170614292E+02  0.25500000000E-02 0. -1.
          2   -1    0    0  501    0  0.00000000000E+00 -0.00000000000E+00 -0.44742766652E+03  0.44742766652E+03  0.25500000000E-02 0.  1.
    5000001    1    1    2    0    0 -0.59761773639E+01 -0.52304277848E+02 -0.20138671457E+03  0.26561826177E+03  0.16500000000E+03 0.  0.
   -5000001    1    1    2    0    0  0.59761773639E+01  0.52304277848E+02 -0.17887033770E+03  0.24898001905E+03  0.16500000000E+03 0.  0.
<mgrwt>
<rscale>  0 0.34672174E+03</rscale>
<asrwt>0</asrwt>
<pdfrwt beam="1">  1        2 0.63918237E-01 0.34672174E+03</pdfrwt>
<pdfrwt beam="2">  1       -2 0.95958022E-02 0.34672174E+03</pdfrwt>
<totfact> 0.54471297E+03</totfact>
</mgrwt>
</event>
<event>
 4    1  0.5531008E-005  0.1005805E+04  0.7818608E-02  0.9302201E-01
         -2   -1    0    0    0  501 -0.00000000000E+00  0.00000000000E+00  0.34227928550E+03  0.34227928551E+03  0.25500000000E-02 0. -1.
          2   -1    0    0  501    0  0.00000000000E+00 -0.00000000000E+00 -0.73890182594E+03  0.73890182594E+03  0.25500000000E-02 0.  1.
    5000001    1    1    2    0    0 -0.33424787291E+02 -0.47081436496E+03 -0.25622264656E+03  0.56183487544E+03  0.16500000000E+03 0.  0.
   -5000001    1    1    2    0    0  0.33424787291E+02  0.47081436496E+03 -0.14039989387E+03  0.51934623601E+03  0.16500000000E+03 0.  0.
<mgrwt>
<rscale>  0 0.10058047E+04</rscale>
<asrwt>0</asrwt>
<pdfrwt beam="1">  1        2 0.10555740E+00 0.10058047E+04</pdfrwt>
<pdfrwt beam="2">  1       -2 0.48897041E-01 0.10058047E+04</pdfrwt>
<totfact> 0.16622426E+02</totfact>
</mgrwt>
</event>
<event>
 4    1  0.5531008E-005  0.5420595E+03  0.7818608E-02  0.1003349E+00
          2   -1    0    0  501    0  0.00000000000E+00  0.00000000000E+00  0.90984646492E+03  0.90984646492E+03  0.25500000000E-02 0.  1.
         -2   -1    0    0    0  501 -0.00000000000E+00 -0.00000000000E+00 -0.80735732325E+02  0.80735732365E+02  0.25500000000E-02 0. -1.
    5000001    1    1    2    0    0 -0.99067903348E+02 -0.16482475003E+03  0.23879314132E+03  0.34817928146E+03  0.16500000000E+03 0.  0.
   -5000001    1    1    2    0    0  0.99067903348E+02  0.16482475003E+03  0.59031759127E+03  0.64240291583E+03  0.16500000000E+03 0.  0.
<mgrwt>
<rscale>  0 0.54205948E+03</rscale>
<asrwt>0</asrwt>
<pdfrwt beam="1">  1        2 0.12997805E+00 0.54205948E+03</pdfrwt>
<pdfrwt beam="2">  1       -2 0.11533678E-01 0.54205948E+03</pdfrwt>
<totfact> 0.17445871E+03</totfact>
</mgrwt>
</event>
<event>
 4    1  0.5531008E-005  0.6192644E+03  0.7818608E-02  0.9866225E-01
         -2   -1    0    0    0  501 -0.00000000000E+00  0.00000000000E+00  0.58183721234E+02  0.58183721290E+02  0.25500000000E-02 0. -1.
          2   -1    0    0  501    0  0.00000000000E+00 -0.00000000000E+00 -0.16477475579E+04  0.16477475579E+04  0.25500000000E-02 0.  1.
    5000001    1    1    2    0    0 -0.80840636925E+02  0.19862670701E+03 -0.38010604690E+03  0.46657623622E+03  0.16500000000E+03 0.  0.
   -5000001    1    1    2    0    0  0.80840636925E+02 -0.19862670701E+03 -0.12094577897E+04  0.12393550429E+04  0.16500000000E+03 0.  0.
<mgrwt>
<rscale>  0 0.61926435E+03</rscale>
<asrwt>0</asrwt>
<pdfrwt beam="1">  1        2 0.23539248E+00 0.61926435E+03</pdfrwt>
<pdfrwt beam="2">  1       -2 0.83119612E-02 0.61926435E+03</pdfrwt>
<totfact> 0.11502618E+03</totfact>
</mgrwt>
</event>
<event>
 4    1  0.5531008E-005  0.4487143E+03  0.7818608E-02  0.1028106E+00
         -2   -1    0    0    0  501 -0.00000000000E+00  0.00000000000E+00  0.40684442299E+02  0.40684442379E+02  0.25500000000E-02 0. -1.
          2   -1    0    0  501    0  0.00000000000E+00 -0.00000000000E+00 -0.12372326933E+04  0.12372326933E+04  0.25500000000E-02 0.  1.
    5000001    1    1    2    0    0  0.10575622102E+03 -0.41240782928E+02 -0.31027943777E+03  0.36930138094E+03  0.16500000000E+03 0.  0.
   -5000001    1    1    2    0    0 -0.10575622102E+03  0.41240782928E+02 -0.88626881328E+03  0.90861575479E+03  0.16500000000E+03 0.  0.
<mgrwt>
<rscale>  0 0.44871426E+03</rscale>
<asrwt>0</asrwt>
<pdfrwt beam="1">  1        2 0.17674750E+00 0.44871426E+03</pdfrwt>
<pdfrwt beam="2">  1       -2 0.58120640E-02 0.44871426E+03</pdfrwt>
<totfact> 0.33357122E+03</totfact>
</mgrwt>
</event>
<event>
 4    1  0.5531008E-005  0.5409093E+03  0.7818608E-02  0.1003620E+00
          2   -1    0    0  501    0  0.00000000000E+00  0.00000000000E+00  0.75881062992E+03  0.75881062992E+03  0.25500000000E-02 0. -1.
         -2   -1    0    0    0  501 -0.00000000000E+00 -0.00000000000E+00 -0.96395224754E+02  0.96395224787E+02  0.25500000000E-02 0.  1.
    5000001    1    1    2    0    0  0.17025376360E+03  0.11665773935E+03  0.24003500041E+03  0.35698343602E+03  0.16500000000E+03 0.  0.
   -5000001    1    1    2    0    0 -0.17025376360E+03 -0.11665773935E+03  0.42238040475E+03  0.49822241869E+03  0.16500000000E+03 0.  0.
<mgrwt>
<rscale>  0 0.54090931E+03</rscale>
<asrwt>0</asrwt>
<pdfrwt beam="1">  1        2 0.10840152E+00 0.54090931E+03</pdfrwt>
<pdfrwt beam="2">  1       -2 0.13770747E-01 0.54090931E+03</pdfrwt>
<totfact> 0.16462487E+03</totfact>
</mgrwt>
</event>
<event>
 4    1  0.5531008E-005  0.7150339E+03  0.7818608E-02  0.9691862E-01
         -2   -1    0    0    0  501 -0.00000000000E+00  0.00000000000E+00  0.13318128978E+03  0.13318128981E+03  0.25500000000E-02 0. -1.
          2   -1    0    0  501    0  0.00000000000E+00 -0.00000000000E+00 -0.95973217357E+03  0.95973217358E+03  0.25500000000E-02 0.  1.
    5000001    1    1    2    0    0 -0.67008739029E+02  0.24187080565E+03 -0.11688585009E+03  0.32230259025E+03  0.16500000000E+03 0.  0.
   -5000001    1    1    2    0    0  0.67008739029E+02 -0.24187080565E+03 -0.70966503370E+03  0.77061087313E+03  0.16500000000E+03 0.  0.
<mgrwt>
<rscale>  0 0.71503390E+03</rscale>
<asrwt>0</asrwt>
<pdfrwt beam="1">  1        2 0.13710459E+00 0.71503390E+03</pdfrwt>
<pdfrwt beam="2">  1       -2 0.19025899E-01 0.71503390E+03</pdfrwt>
<totfact> 0.69577996E+02</totfact>
</mgrwt>
</event>
<event>
 4    1  0.5531008E-005  0.6088693E+03  0.7818608E-02  0.9887174E-01
          2   -1    0    0  501    0  0.00000000000E+00  0.00000000000E+00  0.22112306869E+04  0.22112306869E+04  0.25500000000E-02 0.  1.
         -2   -1    0    0    0  501 -0.00000000000E+00 -0.00000000000E+00 -0.41913516241E+02  0.41913516319E+02  0.25500000000E-02 0. -1.
    5000001    1    1    2    0    0  0.20898873799E+03 -0.73812910165E+02  0.15575580778E+04  0.15818776198E+04  0.16500000000E+03 0.  0.
   -5000001    1    1    2    0    0 -0.20898873799E+03  0.73812910165E+02  0.61175909284E+03  0.67126658340E+03  0.16500000000E+03 0.  0.
<mgrwt>
<rscale>  0 0.60886929E+03</rscale>
<asrwt>0</asrwt>
<pdfrwt beam="1">  1        2 0.31589016E+00 0.60886929E+03</pdfrwt>
<pdfrwt beam="2">  1       -2 0.59876440E-02 0.60886929E+03</pdfrwt>
<totfact> 0.10047224E+03</totfact>
</mgrwt>
</event>
<event>
 4    1  0.5531008E-005  0.5081950E+03  0.7818608E-02  0.1011662E+00
         -2   -1    0    0    0  501 -0.00000000000E+00  0.00000000000E+00  0.11233227721E+03  0.11233227724E+03  0.25500000000E-02 0. -1.
          2   -1    0    0  501    0  0.00000000000E+00 -0.00000000000E+00 -0.57477283409E+03  0.57477283410E+03  0.25500000000E-02 0.  1.
    5000001    1    1    2    0    0  0.45795852828E+02 -0.18703838284E+03 -0.20942228905E+03  0.32888191185E+03  0.16500000000E+03 0.  0.
   -5000001    1    1    2    0    0 -0.45795852828E+02  0.18703838284E+03 -0.25301826783E+03  0.35822319949E+03  0.16500000000E+03 0.  0.
<mgrwt>
<rscale>  0 0.50819501E+03</rscale>
<asrwt>0</asrwt>
<pdfrwt beam="1">  1        2 0.82110403E-01 0.50819501E+03</pdfrwt>
<pdfrwt beam="2">  1       -2 0.16047469E-01 0.50819501E+03</pdfrwt>
<totfact> 0.17778716E+03</totfact>
</mgrwt>
</event>
<event>
 4    1  0.5531008E-005  0.6293482E+03  0.7818608E-02  0.9846322E-01
         -2   -1    0    0    0  501 -0.00000000000E+00  0.00000000000E+00  0.25414457381E+03  0.25414457383E+03  0.25500000000E-02 0. -1.
          2   -1    0    0  501    0  0.00000000000E+00 -0.00000000000E+00 -0.38961994057E+03  0.38961994058E+03  0.25500000000E-02 0.  1.
    5000001    1    1    2    0    0  0.17229841174E+03 -0.16339935549E+03  0.59237559766E+02  0.29516127888E+03  0.16500000000E+03 0.  0.
   -5000001    1    1    2    0    0 -0.17229841174E+03  0.16339935549E+03 -0.19471292652E+03  0.34860323553E+03  0.16500000000E+03 0.  0.
<mgrwt>
<rscale>  0 0.62934821E+03</rscale>
<asrwt>0</asrwt>
<pdfrwt beam="1">  1        2 0.55659991E-01 0.62934821E+03</pdfrwt>
<pdfrwt beam="2">  1       -2 0.36306368E-01 0.62934821E+03</pdfrwt>
<totfact> 0.63950656E+02</totfact>
</mgrwt>
</event>
<event>
 4    1  0.5531008E-005  0.4617765E+03  0.7818608E-02  0.1024267E+00
          2   -1    0    0  501    0  0.00000000000E+00  0.00000000000E+00  0.62043571348E+03  0.62043571349E+03  0.25500000000E-02 0.  1.
         -2   -1    0    0    0  501 -0.00000000000E+00 -0.00000000000E+00 -0.85922506340E+02  0.85922506378E+02  0.25500000000E-02 0. -1.
    5000001    1    1    2    0    0 -0.41454515881E+02 -0.15104034598E+03  0.20698109095E+03  0.30756761048E+03  0.16500000000E+03 0.  0.
   -5000001    1    1    2    0    0  0.41454515881E+02  0.15104034598E+03  0.32753211619E+03  0.39879060939E+03  0.16500000000E+03 0.  0.
<mgrwt>
<rscale>  0 0.46177653E+03</rscale>
<asrwt>0</asrwt>
<pdfrwt beam="1">  1        2 0.88633677E-01 0.46177653E+03</pdfrwt>
<pdfrwt beam="2">  1       -2 0.12274643E-01 0.46177653E+03</pdfrwt>
<totfact> 0.25387735E+03</totfact>
</mgrwt>
</event>
<event>
 4    1  0.5531008E-005  0.3937363E+03  0.7818608E-02  0.1045970E+00
          2   -1    0    0  501    0  0.00000000000E+00  0.00000000000E+00  0.53188791877E+03  0.53188791878E+03  0.25500000000E-02 0.  1.
         -2   -1    0    0    0  501 -0.00000000000E+00 -0.00000000000E+00 -0.72866991480E+02  0.72866991525E+02  0.25500000000E-02 0. -1.
    5000001    1    1    2    0    0  0.36081795331E+02 -0.86366514364E+02  0.14865817430E+03  0.24100896984E+03  0.16500000000E+03 0.  0.
   -5000001    1    1    2    0    0 -0.36081795331E+02  0.86366514364E+02  0.31036275299E+03  0.36374594046E+03  0.16500000000E+03 0.  0.
<mgrwt>
<rscale>  0 0.39373632E+03</rscale>
<asrwt>0</asrwt>
<pdfrwt beam="1">  1        2 0.75983987E-01 0.39373632E+03</pdfrwt>
<pdfrwt beam="2">  1       -2 0.10409570E-01 0.39373632E+03</pdfrwt>
<totfact> 0.39539438E+03</totfact>
</mgrwt>
</event>
<event>
 4    1  0.5531008E-005  0.3432698E+03  0.7818608E-02  0.1065412E+00
         -2   -1    0    0    0  501 -0.00000000000E+00  0.00000000000E+00  0.11967267310E+03  0.11967267313E+03  0.25500000000E-02 0. -1.
          2   -1    0    0  501    0  0.00000000000E+00 -0.00000000000E+00 -0.24615929662E+03  0.24615929663E+03  0.25500000000E-02 0.  1.
    5000001    1    1    2    0    0  0.37012465837E+02 -0.11078430419E+02 -0.92251591160E+02  0.19294561493E+03  0.16500000000E+03 0.  0.
   -5000001    1    1    2    0    0 -0.37012465837E+02  0.11078430419E+02 -0.34235032354E+02  0.17288635484E+03  0.16500000000E+03 0.  0.
<mgrwt>
<rscale>  0 0.34326981E+03</rscale>
<asrwt>0</asrwt>
<pdfrwt beam="1">  1        2 0.35165614E-01 0.34326981E+03</pdfrwt>
<pdfrwt beam="2">  1       -2 0.17096096E-01 0.34326981E+03</pdfrwt>
<totfact> 0.40564657E+03</totfact>
</mgrwt>
</event>
<event>
 4    1  0.5531008E-005  0.3854230E+03  0.7818608E-02  0.1048947E+00
          2   -1    0    0  501    0  0.00000000000E+00  0.00000000000E+00  0.16722356725E+02  0.16722356919E+02  0.25500000000E-02 0.  1.
         -2   -1    0    0    0  501 -0.00000000000E+00 -0.00000000000E+00 -0.22208424553E+04  0.22208424553E+04  0.25500000000E-02 0. -1.
    5000001    1    1    2    0    0 -0.74441035973E+02 -0.56396227994E+02 -0.13023883924E+04  0.13161164565E+04  0.16500000000E+03 0.  0.
   -5000001    1    1    2    0    0  0.74441035973E+02  0.56396227994E+02 -0.90173170619E+03  0.92144835575E+03  0.16500000000E+03 0.  0.
<mgrwt>
<rscale>  0 0.38542299E+03</rscale>
<asrwt>0</asrwt>
<pdfrwt beam="1">  1        2 0.23889095E-02 0.38542299E+03</pdfrwt>
<pdfrwt beam="2">  1       -2 0.31726302E+00 0.38542299E+03</pdfrwt>
<totfact> 0.12297861E+02</totfact>
</mgrwt>
</event>
<event>
 4    1  0.5531008E-005  0.7113297E+03  0.7818608E-02  0.9698051E-01
          2   -1    0    0  501    0  0.00000000000E+00  0.00000000000E+00  0.40166735122E+03  0.40166735123E+03  0.25500000000E-02 0.  1.
         -2   -1    0    0    0  501 -0.00000000000E+00 -0.00000000000E+00 -0.31493092895E+03  0.31493092896E+03  0.25500000000E-02 0. -1.
    5000001    1    1    2    0    0  0.16972234215E+03 -0.24422365960E+03  0.14816564195E+03  0.37098372847E+03  0.16500000000E+03 0.  0.
   -5000001    1    1    2    0    0 -0.16972234215E+03  0.24422365960E+03 -0.61429219680E+02  0.34561455172E+03  0.16500000000E+03 0.  0.
<mgrwt>
<rscale>  0 0.71132966E+03</rscale>
<asrwt>0</asrwt>
<pdfrwt beam="1">  1        2 0.57381050E-01 0.71132966E+03</pdfrwt>
<pdfrwt beam="2">  1       -2 0.44990133E-01 0.71132966E+03</pdfrwt>
<totfact> 0.40625962E+02</totfact>
</mgrwt>
</event>
<event>
 4    1  0.5531008E-005  0.4377964E+03  0.7818608E-02  0.1031425E+00
          2   -1    0    0  501    0  0.00000000000E+00  0.00000000000E+00  0.18537271395E+03  0.18537271397E+03  0.25500000000E-02 0.  1.
         -2   -1    0    0    0  501 -0.00000000000E+00 -0.00000000000E+00 -0.25848691902E+03  0.25848691903E+03  0.25500000000E-02 0. -1.
    5000001    1    1    2    0    0  0.13220399578E+03  0.37168157806E+02 -0.79952384166E+02  0.22907804825E+03  0.16500000000E+03 0.  0.
   -5000001    1    1    2    0    0 -0.13220399578E+03 -0.37168157806E+02  0.68381790927E+01  0.21478158475E+03  0.16500000000E+03 0.  0.
<mgrwt>
<rscale>  0 0.43779640E+03</rscale>
<asrwt>0</asrwt>
<pdfrwt beam="1">  1        2 0.26481816E-01 0.43779640E+03</pdfrwt>
<pdfrwt beam="2">  1       -2 0.36926702E-01 0.43779640E+03</pdfrwt>
<totfact> 0.14113309E+03</totfact>
</mgrwt>
</event>
<event>
 4    1  0.5531008E-005  0.1073088E+04  0.7818608E-02  0.9231826E-01
          2   -1    0    0  501    0  0.00000000000E+00  0.00000000000E+00  0.11579878147E+04  0.11579878147E+04  0.25500000000E-02 0.  1.
         -2   -1    0    0    0  501 -0.00000000000E+00 -0.00000000000E+00 -0.24860326036E+03  0.24860326037E+03  0.25500000000E-02 0. -1.
    5000001    1    1    2    0    0 -0.12569649778E+03  0.38788985235E+03  0.51965811315E+02  0.44292617066E+03  0.16500000000E+03 0.  0.
   -5000001    1    1    2    0    0  0.12569649778E+03 -0.38788985235E+03  0.85741874298E+03  0.96366490437E+03  0.16500000000E+03 0.  0.
<mgrwt>
<rscale>  0 0.10730882E+04</rscale>
<asrwt>0</asrwt>
<pdfrwt beam="1">  1        2 0.16542683E+00 0.10730882E+04</pdfrwt>
<pdfrwt beam="2">  1       -2 0.35514751E-01 0.10730882E+04</pdfrwt>
<totfact> 0.16706558E+02</totfact>
</mgrwt>
</event>
<event>
 4    1  0.5531008E-005  0.5911279E+03  0.7818608E-02  0.9923986E-01
          2   -1    0    0  501    0  0.00000000000E+00  0.00000000000E+00  0.39233843361E+03  0.39233843362E+03  0.25500000000E-02 0.  1.
         -2   -1    0    0    0  501 -0.00000000000E+00 -0.00000000000E+00 -0.22265989574E+03  0.22265989575E+03  0.25500000000E-02 0. -1.
    5000001    1    1    2    0    0  0.24406024773E+03  0.21864744978E+02  0.74993329607E+02  0.30478266204E+03  0.16500000000E+03 0.  0.
   -5000001    1    1    2    0    0 -0.24406024773E+03 -0.21864744978E+02  0.94685208271E+02  0.31021566733E+03  0.16500000000E+03 0.  0.
<mgrwt>
<rscale>  0 0.59112785E+03</rscale>
<asrwt>0</asrwt>
<pdfrwt beam="1">  1        2 0.56048347E-01 0.59112785E+03</pdfrwt>
<pdfrwt beam="2">  1       -2 0.31808557E-01 0.59112785E+03</pdfrwt>
<totfact> 0.81488260E+02</totfact>
</mgrwt>
</event>
<event>
 4    1  0.5531008E-005  0.9440288E+03  0.7818608E-02  0.9372157E-01
          2   -1    0    0  501    0  0.00000000000E+00  0.00000000000E+00  0.30037608699E+04  0.30037608699E+04  0.25500000000E-02 0.  1.
         -2   -1    0    0    0  501 -0.00000000000E+00 -0.00000000000E+00 -0.74172883044E+02  0.74172883088E+02  0.25500000000E-02 0. -1.
    5000001    1    1    2    0    0 -0.30007513292E+03 -0.23817882964E+02  0.40849614544E+03  0.53357893304E+03  0.16500000000E+03 0.  0.
   -5000001    1    1    2    0    0  0.30007513292E+03  0.23817882964E+02  0.25210918414E+04  0.25443548200E+04  0.16500000000E+03 0.  0.
<mgrwt>
<rscale>  0 0.94402882E+03</rscale>
<asrwt>0</asrwt>
<pdfrwt beam="1">  1        2 0.42910875E+00 0.94402882E+03</pdfrwt>
<pdfrwt beam="2">  1       -2 0.10596125E-01 0.94402882E+03</pdfrwt>
<totfact> 0.15057281E+02</totfact>
</mgrwt>
</event>
<event>
 4    1  0.5531008E-005  0.8299320E+03  0.7818608E-02  0.9517674E-01
          2   -1    0    0  501    0  0.00000000000E+00  0.00000000000E+00  0.11879580137E+04  0.11879580137E+04  0.25500000000E-02 0.  1.
         -2   -1    0    0    0  501 -0.00000000000E+00 -0.00000000000E+00 -0.14495191960E+03  0.14495191963E+03  0.25500000000E-02 0. -1.
    5000001    1    1    2    0    0  0.29036815710E+03  0.24608567253E+03  0.53756107932E+03  0.67902042597E+03  0.16500000000E+03 0.  0.
   -5000001    1    1    2    0    0 -0.29036815710E+03 -0.24608567253E+03  0.50544501482E+03  0.65388950740E+03  0.16500000000E+03 0.  0.
<mgrwt>
<rscale>  0 0.82993203E+03</rscale>
<asrwt>0</asrwt>
<pdfrwt beam="1">  1        2 0.16970828E+00 0.82993203E+03</pdfrwt>
<pdfrwt beam="2">  1       -2 0.20707418E-01 0.82993203E+03</pdfrwt>
<totfact> 0.43697028E+02</totfact>
</mgrwt>
</event>
<event>
 4    1  0.5531008E-005  0.6237281E+03  0.7818608E-02  0.9857365E-01
         -2   -1    0    0    0  501 -0.00000000000E+00  0.00000000000E+00  0.90659308831E+02  0.90659308867E+02  0.25500000000E-02 0. -1.
          2   -1    0    0  501    0  0.00000000000E+00 -0.00000000000E+00 -0.10727985382E+04  0.10727985382E+04  0.25500000000E-02 0.  1.
    5000001    1    1    2    0    0  0.10878632240E+03  0.21462886340E+03 -0.28559401973E+03  0.40827558959E+03  0.16500000000E+03 0.  0.
   -5000001    1    1    2    0    0 -0.10878632240E+03 -0.21462886340E+03 -0.69654520964E+03  0.75518225749E+03  0.16500000000E+03 0.  0.
<mgrwt>
<rscale>  0 0.62372806E+03</rscale>
<asrwt>0</asrwt>
<pdfrwt beam="1">  1        2 0.15325693E+00 0.62372806E+03</pdfrwt>
<pdfrwt beam="2">  1       -2 0.12951330E-01 0.62372806E+03</pdfrwt>
<totfact> 0.11436772E+03</totfact>
</mgrwt>
</event>
<event>
 4    1  0.5531008E-005  0.4526962E+03  0.7818608E-02  0.1026921E+00
         -2   -1    0    0    0  501 -0.00000000000E+00  0.00000000000E+00  0.15633978583E+03  0.15633978585E+03  0.25500000000E-02 0. -1.
          2   -1    0    0  501    0  0.00000000000E+00 -0.00000000000E+00 -0.32770581873E+03  0.32770581874E+03  0.25500000000E-02 0.  1.
    5000001    1    1    2    0    0  0.13915575443E+03 -0.67865023343E+02 -0.92315140144E+02  0.24437076438E+03  0.16500000000E+03 0.  0.
   -5000001    1    1    2    0    0 -0.13915575443E+03  0.67865023343E+02 -0.79050892755E+02  0.23967484021E+03  0.16500000000E+03 0.  0.
<mgrwt>
<rscale>  0 0.45269618E+03</rscale>
<asrwt>0</asrwt>
<pdfrwt beam="1">  1        2 0.46815116E-01 0.45269618E+03</pdfrwt>
<pdfrwt beam="2">  1       -2 0.22334255E-01 0.45269618E+03</pdfrwt>
<totfact> 0.18827996E+03</totfact>
</mgrwt>
</event>
<event>
 4    1  0.5531008E-005  0.5669571E+03  0.7818608E-02  0.9976435E-01
         -2   -1    0    0    0  501 -0.00000000000E+00  0.00000000000E+00  0.23966916225E+03  0.23966916226E+03  0.25500000000E-02 0. -1.
          2   -1    0    0  501    0  0.00000000000E+00 -0.00000000000E+00 -0.33529588350E+03  0.33529588351E+03  0.25500000000E-02 0.  1.
    5000001    1    1    2    0    0 -0.74388330191E+02  0.19998694034E+03 -0.13626154697E+03  0.30219299985E+03  0.16500000000E+03 0.  0.
   -5000001    1    1    2    0    0  0.74388330191E+02 -0.19998694034E+03  0.40634825715E+02  0.27277204592E+03  0.16500000000E+03 0.  0.
<mgrwt>
<rscale>  0 0.56695708E+03</rscale>
<asrwt>0</asrwt>
<pdfrwt beam="1">  1        2 0.47899412E-01 0.56695708E+03</pdfrwt>
<pdfrwt beam="2">  1       -2 0.34238452E-01 0.56695708E+03</pdfrwt>
<totfact> 0.84470130E+02</totfact>
</mgrwt>
</event>
<event>
 4    1  0.5531008E-005  0.4865004E+03  0.7818608E-02  0.1017364E+00
          2   -1    0    0  501    0  0.00000000000E+00  0.00000000000E+00  0.69776006194E+03  0.69776006195E+03  0.25500000000E-02 0.  1.
         -2   -1    0    0    0  501 -0.00000000000E+00 -0.00000000000E+00 -0.84800857201E+02  0.84800857239E+02  0.25500000000E-02 0. -1.
    5000001    1    1    2    0    0  0.75383689671E+01 -0.17647690814E+03  0.35037641959E+03  0.42566367183E+03  0.16500000000E+03 0.  0.
   -5000001    1    1    2    0    0 -0.75383689671E+01  0.17647690814E+03  0.26258278515E+03  0.35689724736E+03  0.16500000000E+03 0.  0.
<mgrwt>
<rscale>  0 0.48650037E+03</rscale>
<asrwt>0</asrwt>
<pdfrwt beam="1">  1        2 0.99680011E-01 0.48650037E+03</pdfrwt>
<pdfrwt beam="2">  1       -2 0.12114408E-01 0.48650037E+03</pdfrwt>
<totfact> 0.22556403E+03</totfact>
</mgrwt>
</event>
<event>
 4    1  0.5531008E-005  0.6771635E+03  0.7818608E-02  0.9757103E-01
          2   -1    0    0  501    0  0.00000000000E+00  0.00000000000E+00  0.30529179110E+03  0.30529179111E+03  0.25500000000E-02 0.  1.
         -2   -1    0    0    0  501 -0.00000000000E+00 -0.00000000000E+00 -0.37550179317E+03  0.37550179318E+03  0.25500000000E-02 0. -1.
    5000001    1    1    2    0    0  0.27293591327E+03 -0.60805969958E+02  0.61437036983E+02  0.33044044584E+03  0.16500000000E+03 0.  0.
   -5000001    1    1    2    0    0 -0.27293591327E+03  0.60805969958E+02 -0.13164703905E+03  0.35035313845E+03  0.16500000000E+03 0.  0.
<mgrwt>
<rscale>  0 0.67716354E+03</rscale>
<asrwt>0</asrwt>
<pdfrwt beam="1">  1        2 0.43613113E-01 0.67716354E+03</pdfrwt>
<pdfrwt beam="2">  1       -2 0.53643113E-01 0.67716354E+03</pdfrwt>
<totfact> 0.38625532E+02</totfact>
</mgrwt>
</event>
<event>
 4    1  0.5531008E-005  0.4875729E+03  0.7818608E-02  0.1017074E+00
         -2   -1    0    0    0  501 -0.00000000000E+00  0.00000000000E+00  0.19256053336E+02  0.19256053505E+02  0.25500000000E-02 0. -1.
          2   -1    0    0  501    0  0.00000000000E+00 -0.00000000000E+00 -0.30863968499E+04  0.30863968499E+04  0.25500000000E-02 0.  1.
    5000001    1    1    2    0    0 -0.16786707624E+03  0.32111983427E+02 -0.11849079600E+04  0.12084876534E+04  0.16500000000E+03 0.  0.
   -5000001    1    1    2    0    0  0.16786707624E+03 -0.32111983427E+02 -0.18822328365E+04  0.18971652500E+04  0.16500000000E+03 0.  0.
<mgrwt>
<rscale>  0 0.48757286E+03</rscale>
<asrwt>0</asrwt>
<pdfrwt beam="1">  1        2 0.44091352E+00 0.48757286E+03</pdfrwt>
<pdfrwt beam="2">  1       -2 0.27508668E-02 0.48757286E+03</pdfrwt>
<totfact> 0.11708978E+03</totfact>
</mgrwt>
</event>
<event>
 4    1  0.5531008E-005  0.5483566E+03  0.7818608E-02  0.1001875E+00
          2   -1    0    0  501    0  0.00000000000E+00  0.00000000000E+00  0.21510379207E+04  0.21510379207E+04  0.25500000000E-02 0.  1.
         -2   -1    0    0    0  501 -0.00000000000E+00 -0.00000000000E+00 -0.34947664495E+02  0.34947664588E+02  0.25500000000E-02 0. -1.
    5000001    1    1    2    0    0 -0.58940621316E+02  0.18758423655E+03  0.67387837119E+03  0.72110949363E+03  0.16500000000E+03 0.  0.
   -5000001    1    1    2    0    0  0.58940621316E+02 -0.18758423655E+03  0.14422118850E+04  0.14648760917E+04  0.16500000000E+03 0.  0.
<mgrwt>
<rscale>  0 0.54835664E+03</rscale>
<asrwt>0</asrwt>
<pdfrwt beam="1">  1        2 0.30729118E+00 0.54835664E+03</pdfrwt>
<pdfrwt beam="2">  1       -2 0.49925228E-02 0.54835664E+03</pdfrwt>
<totfact> 0.14347738E+03</totfact>
</mgrwt>
</event>
<event>
 4    1  0.5531008E-005  0.9068546E+03  0.7818608E-02  0.9417053E-01
          2   -1    0    0  501    0  0.00000000000E+00  0.00000000000E+00  0.39393967433E+04  0.39393967433E+04  0.25500000000E-02 0.  1.
         -2   -1    0    0    0  501 -0.00000000000E+00 -0.00000000000E+00 -0.52189798775E+02  0.52189798837E+02  0.25500000000E-02 0. -1.
    5000001    1    1    2    0    0 -0.40524554783E+03 -0.11428956427E+03  0.17986008806E+04  0.18545824830E+04  0.16500000000E+03 0.  0.
   -5000001    1    1    2    0    0  0.40524554783E+03  0.11428956427E+03  0.20886060639E+04  0.21370040591E+04  0.16500000000E+03 0.  0.
<mgrwt>
<rscale>  0 0.90685462E+03</rscale>
<asrwt>0</asrwt>
<pdfrwt beam="1">  1        2 0.56277107E+00 0.90685462E+03</pdfrwt>
<pdfrwt beam="2">  1       -2 0.74556842E-02 0.90685462E+03</pdfrwt>
<totfact> 0.73210482E+01</totfact>
</mgrwt>
</event>
<event>
 4    1  0.5531008E-005  0.4268227E+03  0.7818608E-02  0.1034868E+00
         -2   -1    0    0    0  501 -0.00000000000E+00  0.00000000000E+00  0.21369882983E+02  0.21369883135E+02  0.25500000000E-02 0. -1.
          2   -1    0    0  501    0  0.00000000000E+00 -0.00000000000E+00 -0.21312422777E+04  0.21312422777E+04  0.25500000000E-02 0.  1.
    5000001    1    1    2    0    0  0.13441953816E+03 -0.15484060320E+02 -0.10381866235E+04  0.10598890666E+04  0.16500000000E+03 0.  0.
   -5000001    1    1    2    0    0 -0.13441953816E+03  0.15484060320E+02 -0.10716857712E+04  0.10927230942E+04  0.16500000000E+03 0.  0.
<mgrwt>
<rscale>  0 0.42682267E+03</rscale>
<asrwt>0</asrwt>
<pdfrwt beam="1">  1        2 0.30446305E+00 0.42682267E+03</pdfrwt>
<pdfrwt beam="2">  1       -2 0.30528418E-02 0.42682267E+03</pdfrwt>
<totfact> 0.31285550E+03</totfact>
</mgrwt>
</event>
<event>
 4    1  0.5531008E-005  0.7080713E+03  0.7818608E-02  0.9703528E-01
          2   -1    0    0  501    0  0.00000000000E+00  0.00000000000E+00  0.29755787493E+03  0.29755787494E+03  0.25500000000E-02 0.  1.
         -2   -1    0    0    0  501 -0.00000000000E+00 -0.00000000000E+00 -0.42123314413E+03  0.42123314414E+03  0.25500000000E-02 0. -1.
    5000001    1    1    2    0    0  0.18388189619E+03  0.21490807471E+03 -0.19847933627E+03  0.38290609717E+03  0.16500000000E+03 0.  0.
   -5000001    1    1    2    0    0 -0.18388189619E+03 -0.21490807471E+03  0.74804067065E+02  0.33588492192E+03  0.16500000000E+03 0.  0.
<mgrwt>
<rscale>  0 0.70807129E+03</rscale>
<asrwt>0</asrwt>
<pdfrwt beam="1">  1        2 0.42508268E-01 0.70807129E+03</pdfrwt>
<pdfrwt beam="2">  1       -2 0.60176163E-01 0.70807129E+03</pdfrwt>
<totfact> 0.31250238E+02</totfact>
</mgrwt>
</event>
<event>
 4    1  0.5531008E-005  0.3317987E+03  0.7818608E-02  0.1070344E+00
         -2   -1    0    0    0  501 -0.00000000000E+00  0.00000000000E+00  0.33415091676E+02  0.33415091774E+02  0.25500000000E-02 0. -1.
          2   -1    0    0  501    0  0.00000000000E+00 -0.00000000000E+00 -0.82365757238E+03  0.82365757239E+03  0.25500000000E-02 0.  1.
    5000001    1    1    2    0    0  0.15224653550E+02  0.20641566590E+01 -0.37485698751E+03  0.40985218300E+03  0.16500000000E+03 0.  0.
   -5000001    1    1    2    0    0 -0.15224653550E+02 -0.20641566590E+01 -0.41538549319E+03  0.44722048117E+03  0.16500000000E+03 0.  0.
<mgrwt>
<rscale>  0 0.33179869E+03</rscale>
<asrwt>0</asrwt>
<pdfrwt beam="1">  1        2 0.11766535E+00 0.33179869E+03</pdfrwt>
<pdfrwt beam="2">  1       -2 0.47735850E-02 0.33179869E+03</pdfrwt>
<totfact> 0.79256626E+03</totfact>
</mgrwt>
</event>
<event>
 4    1  0.5531008E-005  0.5976107E+03  0.7818608E-02  0.9910376E-01
          2   -1    0    0  501    0  0.00000000000E+00  0.00000000000E+00  0.14826728599E+04  0.14826728599E+04  0.25500000000E-02 0.  1.
         -2   -1    0    0    0  501 -0.00000000000E+00 -0.00000000000E+00 -0.60218694382E+02  0.60218694436E+02  0.25500000000E-02 0. -1.
    5000001    1    1    2    0    0  0.17101929330E+03  0.17541979920E+03  0.59462036923E+03  0.66394132884E+03  0.16500000000E+03 0.  0.
   -5000001    1    1    2    0    0 -0.17101929330E+03 -0.17541979920E+03  0.82783379629E+03  0.87895022551E+03  0.16500000000E+03 0.  0.
<mgrwt>
<rscale>  0 0.59761066E+03</rscale>
<asrwt>0</asrwt>
<pdfrwt beam="1">  1        2 0.21181041E+00 0.59761066E+03</pdfrwt>
<pdfrwt beam="2">  1       -2 0.86026706E-02 0.59761066E+03</pdfrwt>
<totfact> 0.13260849E+03</totfact>
</mgrwt>
</event>
<event>
 4    1  0.5531008E-005  0.4847618E+03  0.7818608E-02  0.1017835E+00
         -2   -1    0    0    0  501 -0.00000000000E+00  0.00000000000E+00  0.25563472831E+02  0.25563472958E+02  0.25500000000E-02 0. -1.
          2   -1    0    0  501    0  0.00000000000E+00 -0.00000000000E+00 -0.22981424958E+04  0.22981424958E+04  0.25500000000E-02 0.  1.
    5000001    1    1    2    0    0 -0.74441436663E+02  0.32130748354E+02 -0.18934439781E+04  0.19023482885E+04  0.16500000000E+03 0.  0.
   -5000001    1    1    2    0    0  0.74441436663E+02 -0.32130748354E+02 -0.37913504486E+03  0.42135768027E+03  0.16500000000E+03 0.  0.
<mgrwt>
<rscale>  0 0.48476181E+03</rscale>
<asrwt>0</asrwt>
<pdfrwt beam="1">  1        2 0.32830594E+00 0.48476181E+03</pdfrwt>
<pdfrwt beam="2">  1       -2 0.36519261E-02 0.48476181E+03</pdfrwt>
<totfact> 0.19631443E+03</totfact>
</mgrwt>
</event>
<event>
 4    1  0.5531008E-005  0.4500006E+03  0.7818608E-02  0.1027722E+00
          2   -1    0    0  501    0  0.00000000000E+00  0.00000000000E+00  0.57482186720E+03  0.57482186720E+03  0.25500000000E-02 0.  1.
         -2   -1    0    0    0  501 -0.00000000000E+00 -0.00000000000E+00 -0.88071016037E+02  0.88071016074E+02  0.25500000000E-02 0. -1.
    5000001    1    1    2    0    0  0.27465828981E+02 -0.40223688058E+02  0.29762545347E+02  0.17459417501E+03  0.16500000000E+03 0.  0.
   -5000001    1    1    2    0    0 -0.27465828981E+02  0.40223688058E+02  0.45698830581E+03  0.48829870827E+03  0.16500000000E+03 0.  0.
<mgrwt>
<rscale>  0 0.45000065E+03</rscale>
<asrwt>0</asrwt>
<pdfrwt beam="1">  1        2 0.82117409E-01 0.45000065E+03</pdfrwt>
<pdfrwt beam="2">  1       -2 0.12581574E-01 0.45000065E+03</pdfrwt>
<totfact> 0.26639198E+03</totfact>
</mgrwt>
</event>
<event>
 4    1  0.5531008E-005  0.3930620E+03  0.7818608E-02  0.1046209E+00
          2   -1    0    0  501    0  0.00000000000E+00  0.00000000000E+00  0.21383855073E+03  0.21383855074E+03  0.25500000000E-02 0. -1.
         -2   -1    0    0    0  501 -0.00000000000E+00 -0.00000000000E+00 -0.18062428200E+03  0.18062428202E+03  0.25500000000E-02 0.  1.
    5000001    1    1    2    0    0 -0.37894840778E+02  0.99629249334E+02  0.10467454210E+02  0.19671444756E+03  0.16500000000E+03 0.  0.
   -5000001    1    1    2    0    0  0.37894840778E+02 -0.99629249334E+02  0.22746814512E+02  0.19774838520E+03  0.16500000000E+03 0.  0.
<mgrwt>
<rscale>  0 0.39306200E+03</rscale>
<asrwt>0</asrwt>
<pdfrwt beam="1">  1        2 0.30548364E-01 0.39306200E+03</pdfrwt>
<pdfrwt beam="2">  1       -2 0.25803469E-01 0.39306200E+03</pdfrwt>
<totfact> 0.23257219E+03</totfact>
</mgrwt>
</event>
<event>
 4    1  0.5531008E-005  0.3387913E+03  0.7818608E-02  0.1067312E+00
         -2   -1    0    0    0  501 -0.00000000000E+00  0.00000000000E+00  0.17226388140E+03  0.17226388142E+03  0.25500000000E-02 0. -1.
          2   -1    0    0  501    0  0.00000000000E+00 -0.00000000000E+00 -0.16657512935E+03  0.16657512937E+03  0.25500000000E-02 0.  1.
    5000001    1    1    2    0    0 -0.22537243406E+02 -0.24681832634E+02  0.21628880015E+02  0.16973487754E+03  0.16500000000E+03 0.  0.
   -5000001    1    1    2    0    0  0.22537243406E+02  0.24681832634E+02 -0.15940127960E+02  0.16910413325E+03  0.16500000000E+03 0.  0.
<mgrwt>
<rscale>  0 0.33879125E+03</rscale>
<asrwt>0</asrwt>
<pdfrwt beam="1">  1        2 0.23796447E-01 0.33879125E+03</pdfrwt>
<pdfrwt beam="2">  1       -2 0.24609126E-01 0.33879125E+03</pdfrwt>
<totfact> 0.33362870E+03</totfact>
</mgrwt>
</event>
<event>
 4    1  0.5531008E-005  0.6930702E+03  0.7818608E-02  0.9729157E-01
         -2   -1    0    0    0  501 -0.00000000000E+00  0.00000000000E+00  0.24801529064E+03  0.24801529065E+03  0.25500000000E-02 0. -1.
          2   -1    0    0  501    0  0.00000000000E+00 -0.00000000000E+00 -0.48419022490E+03  0.48419022491E+03  0.25500000000E-02 0.  1.
    5000001    1    1    2    0    0 -0.61129147500E+02  0.27217352791E+03 -0.24767754133E+03  0.40790239819E+03  0.16500000000E+03 0.  0.
   -5000001    1    1    2    0    0  0.61129147500E+02 -0.27217352791E+03  0.11502607065E+02  0.32430311737E+03  0.16500000000E+03 0.  0.
<mgrwt>
<rscale>  0 0.69307021E+03</rscale>
<asrwt>0</asrwt>
<pdfrwt beam="1">  1        2 0.69170032E-01 0.69307021E+03</pdfrwt>
<pdfrwt beam="2">  1       -2 0.35430756E-01 0.69307021E+03</pdfrwt>
<totfact> 0.52422785E+02</totfact>
</mgrwt>
</event>
<event>
 4    1  0.5531008E-005  0.7558524E+03  0.7818608E-02  0.9626213E-01
         -2   -1    0    0    0  501 -0.00000000000E+00  0.00000000000E+00  0.15055793056E+03  0.15055793059E+03  0.25500000000E-02 0. -1.
          2   -1    0    0  501    0  0.00000000000E+00 -0.00000000000E+00 -0.94865942056E+03  0.94865942056E+03  0.25500000000E-02 0.  1.
    5000001    1    1    2    0    0  0.11862788151E+03  0.29041786708E+03 -0.20839039945E+03  0.41117717638E+03  0.16500000000E+03 0.  0.
   -5000001    1    1    2    0    0 -0.11862788151E+03 -0.29041786708E+03 -0.58971109055E+03  0.68804017477E+03  0.16500000000E+03 0.  0.
<mgrwt>
<rscale>  0 0.75585236E+03</rscale>
<asrwt>0</asrwt>
<pdfrwt beam="1">  1        2 0.13552277E+00 0.75585236E+03</pdfrwt>
<pdfrwt beam="2">  1       -2 0.21508276E-01 0.75585236E+03</pdfrwt>
<totfact> 0.56959460E+02</totfact>
</mgrwt>
</event>
<event>
 4    1  0.5531008E-005  0.4840112E+03  0.7818608E-02  0.1018039E+00
         -2   -1    0    0    0  501 -0.00000000000E+00  0.00000000000E+00  0.51197490506E+02  0.51197490569E+02  0.25500000000E-02 0. -1.
          2   -1    0    0  501    0  0.00000000000E+00 -0.00000000000E+00 -0.11439369930E+04  0.11439369930E+04  0.25500000000E-02 0.  1.
    5000001    1    1    2    0    0  0.67000316764E+02  0.85798187738E+02 -0.20163731326E+03  0.28237028449E+03  0.16500000000E+03 0.  0.
   -5000001    1    1    2    0    0 -0.67000316764E+02 -0.85798187738E+02 -0.89110218922E+03  0.91276419906E+03  0.16500000000E+03 0.  0.
<mgrwt>
<rscale>  0 0.48401117E+03</rscale>
<asrwt>0</asrwt>
<pdfrwt beam="1">  1        2 0.16341955E+00 0.48401117E+03</pdfrwt>
<pdfrwt beam="2">  1       -2 0.73139279E-02 0.48401117E+03</pdfrwt>
<totfact> 0.26243413E+03</totfact>
</mgrwt>
</event>
<event>
 4    1  0.5531008E-005  0.6433732E+03  0.7818608E-02  0.9819294E-01
          2   -1    0    0  501    0  0.00000000000E+00  0.00000000000E+00  0.58444139110E+03  0.58444139111E+03  0.25500000000E-02 0.  1.
         -2   -1    0    0    0  501 -0.00000000000E+00 -0.00000000000E+00 -0.17706185851E+03  0.17706185853E+03  0.25500000000E-02 0. -1.
    5000001    1    1    2    0    0 -0.17348957516E+03 -0.14797563059E+02  0.45737941567E+03  0.51646735661E+03  0.16500000000E+03 0.  0.
   -5000001    1    1    2    0    0  0.17348957516E+03  0.14797563059E+02 -0.49999883077E+02  0.24503589302E+03  0.16500000000E+03 0.  0.
<mgrwt>
<rscale>  0 0.64337323E+03</rscale>
<asrwt>0</asrwt>
<pdfrwt beam="1">  1        2 0.83491627E-01 0.64337323E+03</pdfrwt>
<pdfrwt beam="2">  1       -2 0.25294551E-01 0.64337323E+03</pdfrwt>
<totfact> 0.78809534E+02</totfact>
</mgrwt>
</event>
<event>
 4    1  0.5531008E-005  0.7715503E+03  0.7818608E-02  0.9602135E-01
         -2   -1    0    0    0  501 -0.00000000000E+00  0.00000000000E+00  0.16635072714E+03  0.16635072716E+03  0.25500000000E-02 0. -1.
          2   -1    0    0  501    0  0.00000000000E+00 -0.00000000000E+00 -0.89463073681E+03  0.89463073681E+03  0.25500000000E-02 0.  1.
    5000001    1    1    2    0    0 -0.25972594935E+03 -0.14836115156E+03 -0.61062545660E+03  0.69968353440E+03  0.16500000000E+03 0.  0.
   -5000001    1    1    2    0    0  0.25972594935E+03  0.14836115156E+03 -0.11765455306E+03  0.36129792957E+03  0.16500000000E+03 0.  0.
<mgrwt>
<rscale>  0 0.77155032E+03</rscale>
<asrwt>0</asrwt>
<pdfrwt beam="1">  1        2 0.12780439E+00 0.77155032E+03</pdfrwt>
<pdfrwt beam="2">  1       -2 0.23764390E-01 0.77155032E+03</pdfrwt>
<totfact> 0.51640125E+02</totfact>
</mgrwt>
</event>
<event>
 4    1  0.5531008E-005  0.3888674E+03  0.7818608E-02  0.1047704E+00
         -2   -1    0    0    0  501 -0.00000000000E+00  0.00000000000E+00  0.56425743189E+02  0.56425743247E+02  0.25500000000E-02 0. -1.
          2   -1    0    0  501    0  0.00000000000E+00 -0.00000000000E+00 -0.66998603004E+03  0.66998603005E+03  0.25500000000E-02 0.  1.
    5000001    1    1    2    0    0 -0.72469365741E+01 -0.78273956626E+02 -0.43069234728E+03  0.46786774668E+03  0.16500000000E+03 0.  0.
   -5000001    1    1    2    0    0  0.72469365741E+01  0.78273956626E+02 -0.18286793957E+03  0.25854402662E+03  0.16500000000E+03 0.  0.
<mgrwt>
<rscale>  0 0.38886738E+03</rscale>
<asrwt>0</asrwt>
<pdfrwt beam="1">  1        2 0.95712286E-01 0.38886738E+03</pdfrwt>
<pdfrwt beam="2">  1       -2 0.80608208E-02 0.38886738E+03</pdfrwt>
<totfact> 0.45471551E+03</totfact>
</mgrwt>
</event>
<event>
 4    1  0.5531008E-005  0.4859862E+03  0.7818608E-02  0.1017503E+00
          2   -1    0    0  501    0  0.00000000000E+00  0.00000000000E+00  0.11509919986E+03  0.11509919989E+03  0.25500000000E-02 0.  1.
         -2   -1    0    0    0  501 -0.00000000000E+00 -0.00000000000E+00 -0.51299796670E+03  0.51299796671E+03  0.25500000000E-02 0. -1.
    5000001    1    1    2    0    0 -0.17254915512E+03 -0.77525469218E+01 -0.14133389678E+03  0.27754924481E+03  0.16500000000E+03 0.  0.
   -5000001    1    1    2    0    0  0.17254915512E+03  0.77525469218E+01 -0.25656487006E+03  0.35054792178E+03  0.16500000000E+03 0.  0.
<mgrwt>
<rscale>  0 0.48598624E+03</rscale>
<asrwt>0</asrwt>
<pdfrwt beam="1">  1        2 0.16442743E-01 0.48598624E+03</pdfrwt>
<pdfrwt beam="2">  1       -2 0.73285423E-01 0.48598624E+03</pdfrwt>
<totfact> 0.60730677E+02</totfact>
</mgrwt>
</event>
<event>
 4    1  0.5531008E-005  0.6861242E+03  0.7818608E-02  0.9741260E-01
         -2   -1    0    0    0  501 -0.00000000000E+00  0.00000000000E+00  0.42399685930E+03  0.42399685931E+03  0.25500000000E-02 0. -1.
          2   -1    0    0  501    0  0.00000000000E+00 -0.00000000000E+00 -0.27757656475E+03  0.27757656477E+03  0.25500000000E-02 0.  1.
    5000001    1    1    2    0    0 -0.11097275517E+03 -0.25255979960E+03 -0.49343447943E+02  0.32520944116E+03  0.16500000000E+03 0.  0.
   -5000001    1    1    2    0    0  0.11097275517E+03  0.25255979960E+03  0.19576374249E+03  0.37636398292E+03  0.16500000000E+03 0.  0.
<mgrwt>
<rscale>  0 0.68612416E+03</rscale>
<asrwt>0</asrwt>
<pdfrwt beam="1">  1        2 0.39653795E-01 0.68612416E+03</pdfrwt>
<pdfrwt beam="2">  1       -2 0.60570980E-01 0.68612416E+03</pdfrwt>
<totfact> 0.33310916E+02</totfact>
</mgrwt>
</event>
<event>
 4    1  0.5531008E-005  0.5533284E+03  0.7818608E-02  0.1000726E+00
          2   -1    0    0  501    0  0.00000000000E+00  0.00000000000E+00  0.42403393394E+03  0.42403393395E+03  0.25500000000E-02 0.  1.
         -2   -1    0    0    0  501 -0.00000000000E+00 -0.00000000000E+00 -0.18051168186E+03  0.18051168188E+03  0.25500000000E-02 0. -1.
    5000001    1    1    2    0    0 -0.35117409087E+02  0.21625776729E+03  0.16141712961E+03  0.31824698595E+03  0.16500000000E+03 0.  0.
   -5000001    1    1    2    0    0  0.35117409087E+02 -0.21625776729E+03  0.82105122468E+02  0.28629862988E+03  0.16500000000E+03 0.  0.
<mgrwt>
<rscale>  0 0.55332840E+03</rscale>
<asrwt>0</asrwt>
<pdfrwt beam="1">  1        2 0.60576276E-01 0.55332840E+03</pdfrwt>
<pdfrwt beam="2">  1       -2 0.25787383E-01 0.55332840E+03</pdfrwt>
<totfact> 0.10982080E+03</totfact>
</mgrwt>
</event>
<event>
 4    1  0.5531008E-005  0.6618993E+03  0.7818608E-02  0.9784704E-01
         -2   -1    0    0    0  501 -0.00000000000E+00  0.00000000000E+00  0.14866174907E+03  0.14866174909E+03  0.25500000000E-02 0. -1.
          2   -1    0    0  501    0  0.00000000000E+00 -0.00000000000E+00 -0.73675768536E+03  0.73675768537E+03  0.25500000000E-02 0.  1.
    5000001    1    1    2    0    0 -0.89826200497E+02  0.18359198974E+03 -0.24749265051E+02  0.26384141281E+03  0.16500000000E+03 0.  0.
   -5000001    1    1    2    0    0  0.89826200497E+02 -0.18359198974E+03 -0.56334667124E+03  0.62157802165E+03  0.16500000000E+03 0.  0.
<mgrwt>
<rscale>  0 0.66189935E+03</rscale>
<asrwt>0</asrwt>
<pdfrwt beam="1">  1        2 0.10525110E+00 0.66189935E+03</pdfrwt>
<pdfrwt beam="2">  1       -2 0.21237393E-01 0.66189935E+03</pdfrwt>
<totfact> 0.81303974E+02</totfact>
</mgrwt>
</event>
<event>
 4    1  0.5531008E-005  0.4686986E+03  0.7818608E-02  0.1022288E+00
         -2   -1    0    0    0  501 -0.00000000000E+00  0.00000000000E+00  0.32850385782E+02  0.32850385881E+02  0.25500000000E-02 0. -1.
          2   -1    0    0  501    0  0.00000000000E+00 -0.00000000000E+00 -0.16718100772E+04  0.16718100772E+04  0.25500000000E-02 0.  1.
    5000001    1    1    2    0    0 -0.19257336421E+02 -0.11797687105E+03 -0.39838382030E+03  0.44746402692E+03  0.16500000000E+03 0.  0.
   -5000001    1    1    2    0    0  0.19257336421E+02  0.11797687105E+03 -0.12405758711E+04  0.12571964362E+04  0.16500000000E+03 0.  0.
<mgrwt>
<rscale>  0 0.46869865E+03</rscale>
<asrwt>0</asrwt>
<pdfrwt beam="1">  1        2 0.23882996E+00 0.46869865E+03</pdfrwt>
<pdfrwt beam="2">  1       -2 0.46929133E-02 0.46869865E+03</pdfrwt>
<totfact> 0.27522840E+03</totfact>
</mgrwt>
</event>
<event>
 4    1  0.5531008E-005  0.1006230E+04  0.7818608E-02  0.9301738E-01
         -2   -1    0    0    0  501 -0.00000000000E+00  0.00000000000E+00  0.92318312186E+03  0.92318312187E+03  0.25500000000E-02 0. -1.
          2   -1    0    0  501    0  0.00000000000E+00 -0.00000000000E+00 -0.27418705523E+03  0.27418705525E+03  0.25500000000E-02 0.  1.
    5000001    1    1    2    0    0  0.41103101630E+03  0.16791685551E+03  0.52629054934E+03  0.70806024394E+03  0.16500000000E+03 0.  0.
   -5000001    1    1    2    0    0 -0.41103101630E+03 -0.16791685551E+03  0.12270551728E+03  0.48930993317E+03  0.16500000000E+03 0.  0.
<mgrwt>
<rscale>  0 0.10062303E+04</rscale>
<asrwt>0</asrwt>
<pdfrwt beam="1">  1        2 0.39169580E-01 0.10062303E+04</pdfrwt>
<pdfrwt beam="2">  1       -2 0.13188330E+00 0.10062303E+04</pdfrwt>
<totfact> 0.55099823E+01</totfact>
</mgrwt>
</event>
<event>
 4    1  0.5531008E-005  0.1408853E+04  0.7818608E-02  0.8947435E-01
          2   -1    0    0  501    0  0.00000000000E+00  0.00000000000E+00  0.20457622355E+04  0.20457622355E+04  0.25500000000E-02 0.  1.
         -2   -1    0    0    0  501 -0.00000000000E+00 -0.00000000000E+00 -0.24255831627E+03  0.24255831629E+03  0.25500000000E-02 0. -1.
    5000001    1    1    2    0    0 -0.44501307773E+03 -0.24721843939E+03  0.15756703752E+03  0.55785837579E+03  0.16500000000E+03 0.  0.
   -5000001    1    1    2    0    0  0.44501307773E+03  0.24721843939E+03  0.16456368817E+04  0.17304621760E+04  0.16500000000E+03 0.  0.
<mgrwt>
<rscale>  0 0.14088529E+04</rscale>
<asrwt>0</asrwt>
<pdfrwt beam="1">  1        2 0.29225176E+00 0.14088529E+04</pdfrwt>
<pdfrwt beam="2">  1       -2 0.34651186E-01 0.14088529E+04</pdfrwt>
<totfact> 0.57784427E+01</totfact>
</mgrwt>
</event>
<event>
 4    1  0.5531008E-005  0.6698151E+03  0.7818608E-02  0.9770292E-01
          2   -1    0    0  501    0  0.00000000000E+00  0.00000000000E+00  0.10540397771E+04  0.10540397771E+04  0.25500000000E-02 0.  1.
         -2   -1    0    0    0  501 -0.00000000000E+00 -0.00000000000E+00 -0.10641255055E+03  0.10641255058E+03  0.25500000000E-02 0. -1.
    5000001    1    1    2    0    0  0.61240297206E+02 -0.27996071295E+03  0.56564714728E+03  0.65521757457E+03  0.16500000000E+03 0.  0.
   -5000001    1    1    2    0    0 -0.61240297206E+02  0.27996071295E+03  0.38198007927E+03  0.50523475312E+03  0.16500000000E+03 0.  0.
<mgrwt>
<rscale>  0 0.66981508E+03</rscale>
<asrwt>0</asrwt>
<pdfrwt beam="1">  1        2 0.15057711E+00 0.66981508E+03</pdfrwt>
<pdfrwt beam="2">  1       -2 0.15201793E-01 0.66981508E+03</pdfrwt>
<totfact> 0.89606376E+02</totfact>
</mgrwt>
</event>
<event>
 4    1  0.5531008E-005  0.4151389E+03  0.7818608E-02  0.1038660E+00
          2   -1    0    0  501    0  0.00000000000E+00  0.00000000000E+00  0.11934612785E+04  0.11934612785E+04  0.25500000000E-02 0.  1.
         -2   -1    0    0    0  501 -0.00000000000E+00 -0.00000000000E+00 -0.36100935533E+02  0.36100935623E+02  0.25500000000E-02 0. -1.
    5000001    1    1    2    0    0  0.10487943032E+03  0.67956520772E+02  0.62478224741E+03  0.65817599492E+03  0.16500000000E+03 0.  0.
   -5000001    1    1    2    0    0 -0.10487943032E+03 -0.67956520772E+02  0.53257809552E+03  0.57138621916E+03  0.16500000000E+03 0.  0.
<mgrwt>
<rscale>  0 0.41513886E+03</rscale>
<asrwt>0</asrwt>
<pdfrwt beam="1">  1        2 0.17049442E+00 0.41513886E+03</pdfrwt>
<pdfrwt beam="2">  1       -2 0.51572780E-02 0.41513886E+03</pdfrwt>
<totfact> 0.42401850E+03</totfact>
</mgrwt>
</event>
<event>
 4    1  0.5531008E-005  0.8970331E+03  0.7818608E-02  0.9429298E-01
         -2   -1    0    0    0  501 -0.00000000000E+00  0.00000000000E+00  0.72195981753E+02  0.72195981798E+02  0.25500000000E-02 0.  1.
          2   -1    0    0  501    0  0.00000000000E+00 -0.00000000000E+00 -0.27864028184E+04  0.27864028184E+04  0.25500000000E-02 0. -1.
    5000001    1    1    2    0    0 -0.25382244410E+03  0.31137443816E+03 -0.17142757659E+04  0.17684304553E+04  0.16500000000E+03 0.  0.
   -5000001    1    1    2    0    0  0.25382244410E+03 -0.31137443816E+03 -0.99993107079E+03  0.10901683449E+04  0.16500000000E+03 0.  0.
<mgrwt>
<rscale>  0 0.89703308E+03</rscale>
<asrwt>0</asrwt>
<pdfrwt beam="1">  1        2 0.39805748E+00 0.89703308E+03</pdfrwt>
<pdfrwt beam="2">  1       -2 0.10313713E-01 0.89703308E+03</pdfrwt>
<totfact> 0.20739738E+02</totfact>
</mgrwt>
</event>
<event>
 4    1  0.5531008E-005  0.6648910E+03  0.7818608E-02  0.9779232E-01
          2   -1    0    0  501    0  0.00000000000E+00  0.00000000000E+00  0.38121939329E+03  0.38121939329E+03  0.25500000000E-02 0.  1.
         -2   -1    0    0    0  501 -0.00000000000E+00 -0.00000000000E+00 -0.28991181076E+03  0.28991181077E+03  0.25500000000E-02 0. -1.
    5000001    1    1    2    0    0  0.72255945772E+02 -0.21030958836E+03 -0.14004008205E+03  0.31030190015E+03  0.16500000000E+03 0.  0.
   -5000001    1    1    2    0    0 -0.72255945772E+02  0.21030958836E+03  0.23134766458E+03  0.36082930391E+03  0.16500000000E+03 0.  0.
<mgrwt>
<rscale>  0 0.66489098E+03</rscale>
<asrwt>0</asrwt>
<pdfrwt beam="1">  1        2 0.54459914E-01 0.66489098E+03</pdfrwt>
<pdfrwt beam="2">  1       -2 0.41415973E-01 0.66489098E+03</pdfrwt>
<totfact> 0.50762536E+02</totfact>
</mgrwt>
</event>
<event>
 4    1  0.5531008E-005  0.4411095E+03  0.7818608E-02  0.1030407E+00
          2   -1    0    0  501    0  0.00000000000E+00  0.00000000000E+00  0.58358823237E+03  0.58358823237E+03  0.25500000000E-02 0.  1.
         -2   -1    0    0    0  501 -0.00000000000E+00 -0.00000000000E+00 -0.83353954420E+02  0.83353954459E+02  0.25500000000E-02 0. -1.
    5000001    1    1    2    0    0 -0.21931363787E+02 -0.13035274771E+03  0.15513293938E+03  0.26222900761E+03  0.16500000000E+03 0.  0.
   -5000001    1    1    2    0    0  0.21931363787E+02  0.13035274771E+03  0.34510133857E+03  0.40471317922E+03  0.16500000000E+03 0.  0.
<mgrwt>
<rscale>  0 0.44110945E+03</rscale>
<asrwt>0</asrwt>
<pdfrwt beam="1">  1        2 0.83369745E-01 0.44110945E+03</pdfrwt>
<pdfrwt beam="2">  1       -2 0.11907708E-01 0.44110945E+03</pdfrwt>
<totfact> 0.28640842E+03</totfact>
</mgrwt>
</event>
<event>
 4    1  0.5531008E-005  0.1606437E+04  0.7818608E-02  0.8816604E-01
         -2   -1    0    0    0  501 -0.00000000000E+00  0.00000000000E+00  0.70817001538E+03  0.70817001539E+03  0.25500000000E-02 0. -1.
          2   -1    0    0  501    0  0.00000000000E+00 -0.00000000000E+00 -0.91102363150E+03  0.91102363150E+03  0.25500000000E-02 0.  1.
    5000001    1    1    2    0    0  0.33544084415E+03  0.17283377223E+03  0.59364535619E+03  0.72251773797E+03  0.16500000000E+03 0.  0.
   -5000001    1    1    2    0    0 -0.33544084415E+03 -0.17283377223E+03 -0.79649897231E+03  0.89667590892E+03  0.16500000000E+03 0.  0.
<mgrwt>
<rscale>  0 0.16064366E+04</rscale>
<asrwt>0</asrwt>
<pdfrwt beam="1">  1        2 0.13014623E+00 0.16064366E+04</pdfrwt>
<pdfrwt beam="2">  1       -2 0.10116715E+00 0.16064366E+04</pdfrwt>
<totfact> 0.24694227E+01</totfact>
</mgrwt>
</event>
<event>
 4    1  0.5531008E-005  0.1082313E+04  0.7818608E-02  0.9222604E-01
          2   -1    0    0  501    0  0.00000000000E+00  0.00000000000E+00  0.11743136561E+04  0.11743136561E+04  0.25500000000E-02 0.  1.
         -2   -1    0    0    0  501 -0.00000000000E+00 -0.00000000000E+00 -0.24938014341E+03  0.24938014342E+03  0.25500000000E-02 0. -1.
    5000001    1    1    2    0    0  0.41076041388E+03 -0.26762018252E+03  0.67161742454E+03  0.84772616135E+03  0.16500000000E+03 0.  0.
   -5000001    1    1    2    0    0 -0.41076041388E+03  0.26762018252E+03  0.25331608816E+03  0.57596763817E+03  0.16500000000E+03 0.  0.
<mgrwt>
<rscale>  0 0.10823133E+04</rscale>
<asrwt>0</asrwt>
<pdfrwt beam="1">  1        2 0.16775909E+00 0.10823133E+04</pdfrwt>
<pdfrwt beam="2">  1       -2 0.35625735E-01 0.10823133E+04</pdfrwt>
<totfact> 0.16242381E+02</totfact>
</mgrwt>
</event>
<event>
 4    1  0.5531008E-005  0.4070733E+03  0.7818608E-02  0.1041358E+00
         -2   -1    0    0    0  501 -0.00000000000E+00  0.00000000000E+00  0.12197040866E+03  0.12197040868E+03  0.25500000000E-02 0. -1.
          2   -1    0    0  501    0  0.00000000000E+00 -0.00000000000E+00 -0.33964941146E+03  0.33964941147E+03  0.25500000000E-02 0.  1.
    5000001    1    1    2    0    0 -0.10859299072E+03  0.20263287118E+02 -0.58136544863E+02  0.20690069185E+03  0.16500000000E+03 0.  0.
   -5000001    1    1    2    0    0  0.10859299072E+03 -0.20263287118E+02 -0.15954245794E+03  0.25471912830E+03  0.16500000000E+03 0.  0.
<mgrwt>
<rscale>  0 0.40707335E+03</rscale>
<asrwt>0</asrwt>
<pdfrwt beam="1">  1        2 0.48521344E-01 0.40707335E+03</pdfrwt>
<pdfrwt beam="2">  1       -2 0.17424344E-01 0.40707335E+03</pdfrwt>
<totfact> 0.27754805E+03</totfact>
</mgrwt>
</event>
<event>
 4    1  0.5531008E-005  0.5253043E+03  0.7818608E-02  0.1007377E+00
         -2   -1    0    0    0  501 -0.00000000000E+00  0.00000000000E+00  0.41534691436E+02  0.41534691514E+02  0.25500000000E-02 0. -1.
          2   -1    0    0  501    0  0.00000000000E+00 -0.00000000000E+00 -0.16609285961E+04  0.16609285961E+04  0.25500000000E-02 0.  1.
    5000001    1    1    2    0    0 -0.71451472800E+02  0.17666296571E+03 -0.10488672328E+04  0.10787319354E+04  0.16500000000E+03 0.  0.
   -5000001    1    1    2    0    0  0.71451472800E+02 -0.17666296571E+03 -0.57052667179E+03  0.62373135214E+03  0.16500000000E+03 0.  0.
<mgrwt>
<rscale>  0 0.52530432E+03</rscale>
<asrwt>0</asrwt>
<pdfrwt beam="1">  1        2 0.23727547E+00 0.52530432E+03</pdfrwt>
<pdfrwt beam="2">  1       -2 0.59335284E-02 0.52530432E+03</pdfrwt>
<totfact> 0.19354973E+03</totfact>
</mgrwt>
</event>
<event>
 4    1  0.5531008E-005  0.8034736E+03  0.7818608E-02  0.9555003E-01
          2   -1    0    0  501    0  0.00000000000E+00  0.00000000000E+00  0.20114721586E+03  0.20114721588E+03  0.25500000000E-02 0.  1.
         -2   -1    0    0    0  501 -0.00000000000E+00 -0.00000000000E+00 -0.80235985595E+03  0.80235985595E+03  0.25500000000E-02 0. -1.
    5000001    1    1    2    0    0  0.24720414820E+03 -0.20293697624E+03 -0.77625197378E+02  0.36816297815E+03  0.16500000000E+03 0.  0.
   -5000001    1    1    2    0    0 -0.24720414820E+03  0.20293697624E+03 -0.52358744271E+03  0.63534409368E+03  0.16500000000E+03 0.  0.
<mgrwt>
<rscale>  0 0.80347359E+03</rscale>
<asrwt>0</asrwt>
<pdfrwt beam="1">  1        2 0.28735317E-01 0.80347359E+03</pdfrwt>
<pdfrwt beam="2">  1       -2 0.11462284E+00 0.80347359E+03</pdfrwt>
<totfact> 0.11188434E+02</totfact>
</mgrwt>
</event>
<event>
 4    1  0.5531008E-005  0.3529625E+03  0.7818608E-02  0.1061406E+00
         -2   -1    0    0    0  501 -0.00000000000E+00  0.00000000000E+00  0.76242174347E+02  0.76242174389E+02  0.25500000000E-02 0. -1.
          2   -1    0    0  501    0  0.00000000000E+00 -0.00000000000E+00 -0.40850929464E+03  0.40850929464E+03  0.25500000000E-02 0.  1.
    5000001    1    1    2    0    0  0.47318586012E+02 -0.39612435289E+02 -0.15157034542E+03  0.23239355246E+03  0.16500000000E+03 0.  0.
   -5000001    1    1    2    0    0 -0.47318586012E+02  0.39612435289E+02 -0.18069677487E+03  0.25235791658E+03  0.16500000000E+03 0.  0.
<mgrwt>
<rscale>  0 0.35296253E+03</rscale>
<asrwt>0</asrwt>
<pdfrwt beam="1">  1        2 0.58358470E-01 0.35296253E+03</pdfrwt>
<pdfrwt beam="2">  1       -2 0.10891739E-01 0.35296253E+03</pdfrwt>
<totfact> 0.49151871E+03</totfact>
</mgrwt>
</event>
<event>
 4    1  0.5531008E-005  0.5559279E+03  0.7818608E-02  0.1000131E+00
          2   -1    0    0  501    0  0.00000000000E+00  0.00000000000E+00  0.31165621112E+04  0.31165621112E+04  0.25500000000E-02 0.  1.
         -2   -1    0    0    0  501 -0.00000000000E+00 -0.00000000000E+00 -0.24791402651E+02  0.24791402782E+02  0.25500000000E-02 0. -1.
    5000001    1    1    2    0    0  0.22264384504E+03 -0.19642545262E+02  0.14944566583E+04  0.15200598064E+04  0.16500000000E+03 0.  0.
   -5000001    1    1    2    0    0 -0.22264384504E+03  0.19642545262E+02  0.15973140502E+04  0.16212937076E+04  0.16500000000E+03 0.  0.
<mgrwt>
<rscale>  0 0.55592786E+03</rscale>
<asrwt>0</asrwt>
<pdfrwt beam="1">  1        2 0.44522294E+00 0.55592786E+03</pdfrwt>
<pdfrwt beam="2">  1       -2 0.35416307E-02 0.55592786E+03</pdfrwt>
<totfact> 0.76300326E+02</totfact>
</mgrwt>
</event>
<event>
 4    1  0.5531008E-005  0.5417695E+03  0.7818608E-02  0.1003417E+00
          2   -1    0    0  501    0  0.00000000000E+00  0.00000000000E+00  0.62299704297E+03  0.62299704298E+03  0.25500000000E-02 0.  1.
         -2   -1    0    0    0  501 -0.00000000000E+00 -0.00000000000E+00 -0.11778314677E+03  0.11778314679E+03  0.25500000000E-02 0. -1.
    5000001    1    1    2    0    0  0.85064940808E+02  0.19457838306E+03  0.29705606665E+03  0.40070450215E+03  0.16500000000E+03 0.  0.
   -5000001    1    1    2    0    0 -0.85064940808E+02 -0.19457838306E+03  0.20815782956E+03  0.34007568763E+03  0.16500000000E+03 0.  0.
<mgrwt>
<rscale>  0 0.54176952E+03</rscale>
<asrwt>0</asrwt>
<pdfrwt beam="1">  1        2 0.88999577E-01 0.54176952E+03</pdfrwt>
<pdfrwt beam="2">  1       -2 0.16826164E-01 0.54176952E+03</pdfrwt>
<totfact> 0.14930079E+03</totfact>
</mgrwt>
</event>
<event>
 4    1  0.5531008E-005  0.4134972E+03  0.7818608E-02  0.1039204E+00
          2   -1    0    0  501    0  0.00000000000E+00  0.00000000000E+00  0.34783067330E+03  0.34783067331E+03  0.25500000000E-02 0.  1.
         -2   -1    0    0    0  501 -0.00000000000E+00 -0.00000000000E+00 -0.12289019426E+03  0.12289019429E+03  0.25500000000E-02 0. -1.
    5000001    1    1    2    0    0 -0.94020913398E+02 -0.77000960106E+02  0.81275478232E+02  0.22045358553E+03  0.16500000000E+03 0.  0.
   -5000001    1    1    2    0    0  0.94020913398E+02  0.77000960106E+02  0.14366500081E+03  0.25026728206E+03  0.16500000000E+03 0.  0.
<mgrwt>
<rscale>  0 0.41349718E+03</rscale>
<asrwt>0</asrwt>
<pdfrwt beam="1">  1        2 0.49690096E-01 0.41349718E+03</pdfrwt>
<pdfrwt beam="2">  1       -2 0.17555742E-01 0.41349718E+03</pdfrwt>
<totfact> 0.26706637E+03</totfact>
</mgrwt>
</event>
<event>
 4    1  0.5531008E-005  0.4259827E+03  0.7818608E-02  0.1035137E+00
          2   -1    0    0  501    0  0.00000000000E+00  0.00000000000E+00  0.10706007082E+04  0.10706007082E+04  0.25500000000E-02 0.  1.
         -2   -1    0    0    0  501 -0.00000000000E+00 -0.00000000000E+00 -0.42373711070E+02  0.42373711146E+02  0.25500000000E-02 0. -1.
    5000001    1    1    2    0    0  0.13797012213E+02 -0.12023952783E+03  0.35971018170E+03  0.41384093130E+03  0.16500000000E+03 0.  0.
   -5000001    1    1    2    0    0 -0.13797012213E+02  0.12023952783E+03  0.66851681542E+03  0.69913348804E+03  0.16500000000E+03 0.  0.
<mgrwt>
<rscale>  0 0.42598275E+03</rscale>
<asrwt>0</asrwt>
<pdfrwt beam="1">  1        2 0.15294295E+00 0.42598275E+03</pdfrwt>
<pdfrwt beam="2">  1       -2 0.60533878E-02 0.42598275E+03</pdfrwt>
<totfact> 0.38860210E+03</totfact>
</mgrwt>
</event>
<event>
 4    1  0.5531008E-005  0.4200831E+03  0.7818608E-02  0.1037039E+00
          2   -1    0    0  501    0  0.00000000000E+00  0.00000000000E+00  0.11036587407E+04  0.11036587407E+04  0.25500000000E-02 0.  1.
         -2   -1    0    0    0  501 -0.00000000000E+00 -0.00000000000E+00 -0.39973820413E+02  0.39973820494E+02  0.25500000000E-02 0. -1.
    5000001    1    1    2    0    0 -0.10812319940E+03  0.65376049917E+02  0.44891870098E+03  0.49468945233E+03  0.16500000000E+03 0.  0.
   -5000001    1    1    2    0    0  0.10812319940E+03 -0.65376049917E+02  0.61476621932E+03  0.64894310889E+03  0.16500000000E+03 0.  0.
<mgrwt>
<rscale>  0 0.42008312E+03</rscale>
<asrwt>0</asrwt>
<pdfrwt beam="1">  1        2 0.15766557E+00 0.42008312E+03</pdfrwt>
<pdfrwt beam="2">  1       -2 0.57105444E-02 0.42008312E+03</pdfrwt>
<totfact> 0.40705111E+03</totfact>
</mgrwt>
</event>
<event>
 4    1  0.5531008E-005  0.1007195E+04  0.7818608E-02  0.9300689E-01
         -2   -1    0    0    0  501 -0.00000000000E+00  0.00000000000E+00  0.25490709692E+03  0.25490709694E+03  0.25500000000E-02 0. -1.
          2   -1    0    0  501    0  0.00000000000E+00 -0.00000000000E+00 -0.99491264300E+03  0.99491264301E+03  0.25500000000E-02 0.  1.
    5000001    1    1    2    0    0 -0.40078696473E+03  0.21518487752E+03 -0.19694140900E+03  0.52244199792E+03  0.16500000000E+03 0.  0.
   -5000001    1    1    2    0    0  0.40078696473E+03 -0.21518487752E+03 -0.54306413708E+03  0.72737774202E+03  0.16500000000E+03 0.  0.
<mgrwt>
<rscale>  0 0.10071947E+04</rscale>
<asrwt>0</asrwt>
<pdfrwt beam="1">  1        2 0.14213038E+00 0.10071947E+04</pdfrwt>
<pdfrwt beam="2">  1       -2 0.36415300E-01 0.10071947E+04</pdfrwt>
<totfact> 0.20001595E+02</totfact>
</mgrwt>
</event>
<event>
 4    1  0.5531008E-005  0.4753489E+03  0.7818608E-02  0.1020421E+00
         -2   -1    0    0    0  501 -0.00000000000E+00  0.00000000000E+00  0.15111831779E+02  0.15111831994E+02  0.25500000000E-02 0.  1.
          2   -1    0    0  501    0  0.00000000000E+00 -0.00000000000E+00 -0.37380733852E+04  0.37380733852E+04  0.25500000000E-02 0. -1.
    5000001    1    1    2    0    0  0.28366551284E+02  0.74011649693E+02 -0.30584392710E+04  0.30639122311E+04  0.16500000000E+03 0.  0.
   -5000001    1    1    2    0    0 -0.28366551284E+02 -0.74011649693E+02 -0.66452228247E+03  0.68927298614E+03  0.16500000000E+03 0.  0.
<mgrwt>
<rscale>  0 0.47534887E+03</rscale>
<asrwt>0</asrwt>
<pdfrwt beam="1">  1        2 0.53400989E+00 0.47534887E+03</pdfrwt>
<pdfrwt beam="2">  1       -2 0.21588355E-02 0.47534887E+03</pdfrwt>
<totfact> 0.70550388E+02</totfact>
</mgrwt>
</event>
<event>
 4    1  0.5531008E-005  0.3791116E+03  0.7818608E-02  0.1051263E+00
         -2   -1    0    0    0  501 -0.00000000000E+00  0.00000000000E+00  0.30594397414E+02  0.30594397520E+02  0.25500000000E-02 0. -1.
          2   -1    0    0  501    0  0.00000000000E+00 -0.00000000000E+00 -0.11744437441E+04  0.11744437441E+04  0.25500000000E-02 0.  1.
    5000001    1    1    2    0    0  0.78337004357E+02  0.49296433070E+02 -0.53437240056E+03  0.56687360765E+03  0.16500000000E+03 0.  0.
   -5000001    1    1    2    0    0 -0.78337004357E+02 -0.49296433070E+02 -0.60947694609E+03  0.63816453394E+03  0.16500000000E+03 0.  0.
<mgrwt>
<rscale>  0 0.37911159E+03</rscale>
<asrwt>0</asrwt>
<pdfrwt beam="1">  1        2 0.16777765E+00 0.37911159E+03</pdfrwt>
<pdfrwt beam="2">  1       -2 0.43706290E-02 0.37911159E+03</pdfrwt>
<totfact> 0.55925461E+03</totfact>
</mgrwt>
</event>
<event>
 4    1  0.5531008E-005  0.6441894E+03  0.7818608E-02  0.9817744E-01
          2   -1    0    0  501    0  0.00000000000E+00  0.00000000000E+00  0.30303609063E+03  0.30303609064E+03  0.25500000000E-02 0.  1.
         -2   -1    0    0    0  501 -0.00000000000E+00 -0.00000000000E+00 -0.34235196234E+03  0.34235196235E+03  0.25500000000E-02 0. -1.
    5000001    1    1    2    0    0  0.22577268712E+03 -0.83379964009E+02 -0.15627322511E+03  0.33101638257E+03  0.16500000000E+03 0.  0.
   -5000001    1    1    2    0    0 -0.22577268712E+03  0.83379964009E+02  0.11695735340E+03  0.31437167042E+03  0.16500000000E+03 0.  0.
<mgrwt>
<rscale>  0 0.64418941E+03</rscale>
<asrwt>0</asrwt>
<pdfrwt beam="1">  1        2 0.43290870E-01 0.64418941E+03</pdfrwt>
<pdfrwt beam="2">  1       -2 0.48907423E-01 0.64418941E+03</pdfrwt>
<totfact> 0.47056575E+02</totfact>
</mgrwt>
</event>
<event>
 4    1  0.5531008E-005  0.3929405E+03  0.7818608E-02  0.1046252E+00
         -2   -1    0    0    0  501 -0.00000000000E+00  0.00000000000E+00  0.85402115841E+02  0.85402115879E+02  0.25500000000E-02 0. -1.
          2   -1    0    0  501    0  0.00000000000E+00 -0.00000000000E+00 -0.45198587105E+03  0.45198587105E+03  0.25500000000E-02 0.  1.
    5000001    1    1    2    0    0  0.94741443489E+02 -0.42551264551E+02 -0.15010103272E+03  0.24605257823E+03  0.16500000000E+03 0.  0.
   -5000001    1    1    2    0    0 -0.94741443489E+02  0.42551264551E+02 -0.21648272249E+03  0.29133540871E+03  0.16500000000E+03 0.  0.
<mgrwt>
<rscale>  0 0.39294045E+03</rscale>
<asrwt>0</asrwt>
<pdfrwt beam="1">  1        2 0.64569409E-01 0.39294045E+03</pdfrwt>
<pdfrwt beam="2">  1       -2 0.12200302E-01 0.39294045E+03</pdfrwt>
<totfact> 0.36675937E+03</totfact>
</mgrwt>
</event>
<event>
 4    1  0.5531008E-005  0.4893000E+03  0.7818608E-02  0.1016610E+00
          2   -1    0    0  501    0  0.00000000000E+00  0.00000000000E+00  0.74464765974E+03  0.74464765975E+03  0.25500000000E-02 0.  1.
         -2   -1    0    0    0  501 -0.00000000000E+00 -0.00000000000E+00 -0.80378440954E+02  0.80378440995E+02  0.25500000000E-02 0. -1.
    5000001    1    1    2    0    0  0.12927165838E+03  0.12605248471E+03  0.34109295849E+03  0.41972585922E+03  0.16500000000E+03 0.  0.
   -5000001    1    1    2    0    0 -0.12927165838E+03 -0.12605248471E+03  0.32317626029E+03  0.40530024152E+03  0.16500000000E+03 0.  0.
<mgrwt>
<rscale>  0 0.48929998E+03</rscale>
<asrwt>0</asrwt>
<pdfrwt beam="1">  1        2 0.10637823E+00 0.48929998E+03</pdfrwt>
<pdfrwt beam="2">  1       -2 0.11482635E-01 0.48929998E+03</pdfrwt>
<totfact> 0.22736345E+03</totfact>
</mgrwt>
</event>
<event>
 4    1  0.5531008E-005  0.1073891E+04  0.7818608E-02  0.9231020E-01
         -2   -1    0    0    0  501 -0.00000000000E+00  0.00000000000E+00  0.11211914215E+03  0.11211914217E+03  0.25500000000E-02 0. -1.
          2   -1    0    0  501    0  0.00000000000E+00 -0.00000000000E+00 -0.25714635010E+04  0.25714635010E+04  0.25500000000E-02 0.  1.
    5000001    1    1    2    0    0 -0.28484352420E+03  0.36860502616E+03 -0.70501618596E+03  0.86097521512E+03  0.16500000000E+03 0.  0.
   -5000001    1    1    2    0    0  0.28484352420E+03 -0.36860502616E+03 -0.17543281729E+04  0.18226074281E+04  0.16500000000E+03 0.  0.
<mgrwt>
<rscale>  0 0.10738906E+04</rscale>
<asrwt>0</asrwt>
<pdfrwt beam="1">  1        2 0.36735189E+00 0.10738906E+04</pdfrwt>
<pdfrwt beam="2">  1       -2 0.16017022E-01 0.10738906E+04</pdfrwt>
<totfact> 0.12723078E+02</totfact>
</mgrwt>
</event>
<event>
 4    1  0.5531008E-005  0.5390197E+03  0.7818608E-02  0.1004068E+00
          2   -1    0    0  501    0  0.00000000000E+00  0.00000000000E+00  0.16100331594E+04  0.16100331594E+04  0.25500000000E-02 0.  1.
         -2   -1    0    0    0  501 -0.00000000000E+00 -0.00000000000E+00 -0.45114319215E+02  0.45114319287E+02  0.25500000000E-02 0. -1.
    5000001    1    1    2    0    0 -0.77861715531E+02 -0.70261666520E+02  0.21284199463E+03  0.28900841373E+03  0.16500000000E+03 0.  0.
   -5000001    1    1    2    0    0  0.77861715531E+02  0.70261666520E+02  0.13520768456E+04  0.13661390650E+04  0.16500000000E+03 0.  0.
<mgrwt>
<rscale>  0 0.53901967E+03</rscale>
<asrwt>0</asrwt>
<pdfrwt beam="1">  1        2 0.23000474E+00 0.53901967E+03</pdfrwt>
<pdfrwt beam="2">  1       -2 0.64449028E-02 0.53901967E+03</pdfrwt>
<totfact> 0.18045600E+03</totfact>
</mgrwt>
</event>
<event>
 4    1  0.5531008E-005  0.3531223E+03  0.7818608E-02  0.1061341E+00
         -2   -1    0    0    0  501 -0.00000000000E+00  0.00000000000E+00  0.22407598793E+02  0.22407598938E+02  0.25500000000E-02 0. -1.
          2   -1    0    0  501    0  0.00000000000E+00 -0.00000000000E+00 -0.13912173191E+04  0.13912173191E+04  0.25500000000E-02 0.  1.
    5000001    1    1    2    0    0  0.48264791796E+02  0.40187432951E+02 -0.67608459154E+03  0.69875596228E+03  0.16500000000E+03 0.  0.
   -5000001    1    1    2    0    0 -0.48264791796E+02 -0.40187432951E+02 -0.69272512876E+03  0.71486895576E+03  0.16500000000E+03 0.  0.
<mgrwt>
<rscale>  0 0.35312230E+03</rscale>
<asrwt>0</asrwt>
<pdfrwt beam="1">  1        2 0.19874528E+00 0.35312230E+03</pdfrwt>
<pdfrwt beam="2">  1       -2 0.32010864E-02 0.35312230E+03</pdfrwt>
<totfact> 0.68470177E+03</totfact>
</mgrwt>
</event>
<event>
 4    1  0.5531008E-005  0.5642831E+03  0.7818608E-02  0.9982410E-01
          2   -1    0    0  501    0  0.00000000000E+00  0.00000000000E+00  0.68596951091E+03  0.68596951092E+03  0.25500000000E-02 0.  1.
         -2   -1    0    0    0  501 -0.00000000000E+00 -0.00000000000E+00 -0.11604576479E+03  0.11604576482E+03  0.25500000000E-02 0. -1.
    5000001    1    1    2    0    0  0.42004014690E+02  0.17304408798E+03  0.80619425697E+02  0.25579891602E+03  0.16500000000E+03 0.  0.
   -5000001    1    1    2    0    0 -0.42004014690E+02 -0.17304408798E+03  0.48930432043E+03  0.54621635972E+03  0.16500000000E+03 0.  0.
<mgrwt>
<rscale>  0 0.56428311E+03</rscale>
<asrwt>0</asrwt>
<pdfrwt beam="1">  1        2 0.97995647E-01 0.56428311E+03</pdfrwt>
<pdfrwt beam="2">  1       -2 0.16577966E-01 0.56428311E+03</pdfrwt>
<totfact> 0.13642391E+03</totfact>
</mgrwt>
</event>
<event>
 4    1  0.5531008E-005  0.3668104E+03  0.7818608E-02  0.1055919E+00
         -2   -1    0    0    0  501 -0.00000000000E+00  0.00000000000E+00  0.56772633069E+02  0.56772633126E+02  0.25500000000E-02 0. -1.
          2   -1    0    0  501    0  0.00000000000E+00 -0.00000000000E+00 -0.59249437772E+03  0.59249437773E+03  0.25500000000E-02 0.  1.
    5000001    1    1    2    0    0  0.54776298717E+02 -0.16139386160E+02 -0.36722813831E+03  0.40662320181E+03  0.16500000000E+03 0.  0.
   -5000001    1    1    2    0    0 -0.54776298717E+02  0.16139386160E+02 -0.16849360634E+03  0.24264380904E+03  0.16500000000E+03 0.  0.
<mgrwt>
<rscale>  0 0.36681039E+03</rscale>
<asrwt>0</asrwt>
<pdfrwt beam="1">  1        2 0.84642050E-01 0.36681039E+03</pdfrwt>
<pdfrwt beam="2">  1       -2 0.81103765E-02 0.36681039E+03</pdfrwt>
<totfact> 0.51935846E+03</totfact>
</mgrwt>
</event>
<event>
 4    1  0.5531008E-005  0.6122047E+03  0.7818608E-02  0.9880404E-01
         -2   -1    0    0    0  501 -0.00000000000E+00  0.00000000000E+00  0.49034305969E+02  0.49034306035E+02  0.25500000000E-02 0. -1.
          2   -1    0    0  501    0  0.00000000000E+00 -0.00000000000E+00 -0.19108791608E+04  0.19108791608E+04  0.25500000000E-02 0.  1.
    5000001    1    1    2    0    0 -0.15677010832E+03 -0.14379518261E+03 -0.13972703177E+04  0.14229698740E+04  0.16500000000E+03 0.  0.
   -5000001    1    1    2    0    0  0.15677010832E+03  0.14379518261E+03 -0.46457453711E+03  0.53694359288E+03  0.16500000000E+03 0.  0.
<mgrwt>
<rscale>  0 0.61220465E+03</rscale>
<asrwt>0</asrwt>
<pdfrwt beam="1">  1        2 0.27298269E+00 0.61220465E+03</pdfrwt>
<pdfrwt beam="2">  1       -2 0.70049021E-02 0.61220465E+03</pdfrwt>
<totfact> 0.11111635E+03</totfact>
</mgrwt>
</event>
<event>
 4    1  0.5531008E-005  0.3915100E+03  0.7818608E-02  0.1046760E+00
          2   -1    0    0  501    0  0.00000000000E+00  0.00000000000E+00  0.19343134146E+03  0.19343134148E+03  0.25500000000E-02 0.  1.
         -2   -1    0    0    0  501 -0.00000000000E+00 -0.00000000000E+00 -0.19810658599E+03  0.19810658601E+03  0.25500000000E-02 0. -1.
    5000001    1    1    2    0    0 -0.45891391672E+02 -0.34373131354E+02  0.86028683842E+02  0.19471380648E+03  0.16500000000E+03 0.  0.
   -5000001    1    1    2    0    0  0.45891391672E+02  0.34373131354E+02 -0.90703928370E+02  0.19682412101E+03  0.16500000000E+03 0.  0.
<mgrwt>
<rscale>  0 0.39151001E+03</rscale>
<asrwt>0</asrwt>
<pdfrwt beam="1">  1        2 0.27633049E-01 0.39151001E+03</pdfrwt>
<pdfrwt beam="2">  1       -2 0.28300941E-01 0.39151001E+03</pdfrwt>
<totfact> 0.22018271E+03</totfact>
</mgrwt>
</event>
<event>
 4    1  0.5531008E-005  0.5370993E+03  0.7818608E-02  0.1004525E+00
         -2   -1    0    0    0  501 -0.00000000000E+00  0.00000000000E+00  0.89316587591E+02  0.89316587628E+02  0.25500000000E-02 0. -1.
          2   -1    0    0  501    0  0.00000000000E+00 -0.00000000000E+00 -0.80745278236E+03  0.80745278236E+03  0.25500000000E-02 0.  1.
    5000001    1    1    2    0    0 -0.11842011360E+02  0.15573022650E+03 -0.11999977319E+03  0.25693789570E+03  0.16500000000E+03 0.  0.
   -5000001    1    1    2    0    0  0.11842011360E+02 -0.15573022650E+03 -0.59813642158E+03  0.63983147429E+03  0.16500000000E+03 0.  0.
<mgrwt>
<rscale>  0 0.53709935E+03</rscale>
<asrwt>0</asrwt>
<pdfrwt beam="1">  1        2 0.11535039E+00 0.53709935E+03</pdfrwt>
<pdfrwt beam="2">  1       -2 0.12759513E-01 0.53709935E+03</pdfrwt>
<totfact> 0.17272416E+03</totfact>
</mgrwt>
</event>
<event>
 4    1  0.5531008E-005  0.4176403E+03  0.7818608E-02  0.1037837E+00
          2   -1    0    0  501    0  0.00000000000E+00  0.00000000000E+00  0.13919406579E+03  0.13919406582E+03  0.25500000000E-02 0.  1.
         -2   -1    0    0    0  501 -0.00000000000E+00 -0.00000000000E+00 -0.31327380022E+03  0.31327380023E+03  0.25500000000E-02 0. -1.
    5000001    1    1    2    0    0 -0.90015389174E+02  0.90910111749E+02 -0.83068789399E+02  0.22470612470E+03  0.16500000000E+03 0.  0.
   -5000001    1    1    2    0    0  0.90015389174E+02 -0.90910111749E+02 -0.91010945033E+02  0.22776174135E+03  0.16500000000E+03 0.  0.
<mgrwt>
<rscale>  0 0.41764029E+03</rscale>
<asrwt>0</asrwt>
<pdfrwt beam="1">  1        2 0.19884867E-01 0.41764029E+03</pdfrwt>
<pdfrwt beam="2">  1       -2 0.44753400E-01 0.41764029E+03</pdfrwt>
<totfact> 0.13496499E+03</totfact>
</mgrwt>
</event>
<event>
 4    1  0.5531008E-005  0.5091726E+03  0.7818608E-02  0.1011412E+00
          2   -1    0    0  501    0  0.00000000000E+00  0.00000000000E+00  0.42803167008E+03  0.42803167008E+03  0.25500000000E-02 0.  1.
         -2   -1    0    0    0  501 -0.00000000000E+00 -0.00000000000E+00 -0.15142380433E+03  0.15142380435E+03  0.25500000000E-02 0. -1.
    5000001    1    1    2    0    0 -0.90463601979E+02  0.41080792302E+02  0.32777160641E+03  0.38017169903E+03  0.16500000000E+03 0.  0.
   -5000001    1    1    2    0    0  0.90463601979E+02 -0.41080792302E+02 -0.51163740659E+02  0.19928377540E+03  0.16500000000E+03 0.  0.
<mgrwt>
<rscale>  0 0.50917260E+03</rscale>
<asrwt>0</asrwt>
<pdfrwt beam="1">  1        2 0.61147381E-01 0.50917260E+03</pdfrwt>
<pdfrwt beam="2">  1       -2 0.21631972E-01 0.50917260E+03</pdfrwt>
<totfact> 0.14850330E+03</totfact>
</mgrwt>
</event>
<event>
 4    1  0.5531008E-005  0.4519276E+03  0.7818608E-02  0.1027149E+00
          2   -1    0    0  501    0  0.00000000000E+00  0.00000000000E+00  0.10276292072E+04  0.10276292072E+04  0.25500000000E-02 0.  1.
         -2   -1    0    0    0  501 -0.00000000000E+00 -0.00000000000E+00 -0.49686830684E+02  0.49686830750E+02  0.25500000000E-02 0. -1.
    5000001    1    1    2    0    0  0.15404228060E+03  0.97680532662E+01  0.48135809285E+03  0.53174716984E+03  0.16500000000E+03 0.  0.
   -5000001    1    1    2    0    0 -0.15404228060E+03 -0.97680532662E+01  0.49658428370E+03  0.54556886815E+03  0.16500000000E+03 0.  0.
<mgrwt>
<rscale>  0 0.45192760E+03</rscale>
<asrwt>0</asrwt>
<pdfrwt beam="1">  1        2 0.14680419E+00 0.45192760E+03</pdfrwt>
<pdfrwt beam="2">  1       -2 0.70981180E-02 0.45192760E+03</pdfrwt>
<totfact> 0.32129290E+03</totfact>
</mgrwt>
</event>
<event>
 4    1  0.5531008E-005  0.5392357E+03  0.7818608E-02  0.1004017E+00
         -2   -1    0    0    0  501 -0.00000000000E+00  0.00000000000E+00  0.28305846387E+02  0.28305846502E+02  0.25500000000E-02 0. -1.
          2   -1    0    0  501    0  0.00000000000E+00 -0.00000000000E+00 -0.25681544871E+04  0.25681544871E+04  0.25500000000E-02 0.  1.
    5000001    1    1    2    0    0 -0.36032162841E+01  0.21132333478E+03 -0.14059662998E+04  0.14313059670E+04  0.16500000000E+03 0.  0.
   -5000001    1    1    2    0    0  0.36032162841E+01 -0.21132333478E+03 -0.11338823409E+04  0.11651543666E+04  0.16500000000E+03 0.  0.
<mgrwt>
<rscale>  0 0.53923571E+03</rscale>
<asrwt>0</asrwt>
<pdfrwt beam="1">  1        2 0.36687906E+00 0.53923571E+03</pdfrwt>
<pdfrwt beam="2">  1       -2 0.40436940E-02 0.53923571E+03</pdfrwt>
<totfact> 0.12209023E+03</totfact>
</mgrwt>
</event>
<event>
 4    1  0.5531008E-005  0.4792393E+03  0.7818608E-02  0.1019344E+00
          2   -1    0    0  501    0  0.00000000000E+00  0.00000000000E+00  0.15599521598E+04  0.15599521598E+04  0.25500000000E-02 0.  1.
         -2   -1    0    0    0  501 -0.00000000000E+00 -0.00000000000E+00 -0.36807267057E+02  0.36807267145E+02  0.25500000000E-02 0. -1.
    5000001    1    1    2    0    0  0.79627887195E+02  0.85645161665E+02  0.11897768169E+04  0.12068428101E+04  0.16500000000E+03 0.  0.
   -5000001    1    1    2    0    0 -0.79627887195E+02 -0.85645161665E+02  0.33336807579E+03  0.38991661685E+03  0.16500000000E+03 0.  0.
<mgrwt>
<rscale>  0 0.47923930E+03</rscale>
<asrwt>0</asrwt>
<pdfrwt beam="1">  1        2 0.22285023E+00 0.47923930E+03</pdfrwt>
<pdfrwt beam="2">  1       -2 0.52581829E-02 0.47923930E+03</pdfrwt>
<totfact> 0.26321535E+03</totfact>
</mgrwt>
</event>
<event>
 4    1  0.5531008E-005  0.5163985E+03  0.7818608E-02  0.1009585E+00
          2   -1    0    0  501    0  0.00000000000E+00  0.00000000000E+00  0.11877658373E+03  0.11877658376E+03  0.25500000000E-02 0.  1.
         -2   -1    0    0    0  501 -0.00000000000E+00 -0.00000000000E+00 -0.56127932616E+03  0.56127932617E+03  0.25500000000E-02 0. -1.
    5000001    1    1    2    0    0 -0.13023913289E+03  0.14653329437E+03 -0.17944866792E+03  0.31282752839E+03  0.16500000000E+03 0.  0.
   -5000001    1    1    2    0    0  0.13023913289E+03 -0.14653329437E+03 -0.26305407450E+03  0.36722838154E+03  0.16500000000E+03 0.  0.
<mgrwt>
<rscale>  0 0.51639845E+03</rscale>
<asrwt>0</asrwt>
<pdfrwt beam="1">  1        2 0.16968084E-01 0.51639845E+03</pdfrwt>
<pdfrwt beam="2">  1       -2 0.80182760E-01 0.51639845E+03</pdfrwt>
<totfact> 0.47939063E+02</totfact>
</mgrwt>
</event>
<event>
 4    1  0.5531008E-005  0.5765547E+03  0.7818608E-02  0.9955278E-01
         -2   -1    0    0    0  501 -0.00000000000E+00  0.00000000000E+00  0.22059059492E+03  0.22059059494E+03  0.25500000000E-02 0. -1.
          2   -1    0    0  501    0  0.00000000000E+00 -0.00000000000E+00 -0.37673330172E+03  0.37673330173E+03  0.25500000000E-02 0.  1.
    5000001    1    1    2    0    0 -0.18779418888E+03 -0.58628317675E+02  0.57702556756E+02  0.26317013901E+03  0.16500000000E+03 0.  0.
   -5000001    1    1    2    0    0  0.18779418888E+03  0.58628317675E+02 -0.21384526355E+03  0.33415375765E+03  0.16500000000E+03 0.  0.
<mgrwt>
<rscale>  0 0.57655467E+03</rscale>
<asrwt>0</asrwt>
<pdfrwt beam="1">  1        2 0.53819043E-01 0.57655467E+03</pdfrwt>
<pdfrwt beam="2">  1       -2 0.31512942E-01 0.57655467E+03</pdfrwt>
<totfact> 0.86747491E+02</totfact>
</mgrwt>
</event>
<event>
 4    1  0.5531008E-005  0.4068207E+03  0.7818608E-02  0.1041443E+00
         -2   -1    0    0    0  501 -0.00000000000E+00  0.00000000000E+00  0.65950087255E+02  0.65950087305E+02  0.25500000000E-02 0.  1.
          2   -1    0    0  501    0  0.00000000000E+00 -0.00000000000E+00 -0.62737995225E+03  0.62737995225E+03  0.25500000000E-02 0. -1.
    5000001    1    1    2    0    0  0.13554994694E+02 -0.78790122966E+02 -0.13059310427E+03  0.22510259936E+03  0.16500000000E+03 0.  0.
   -5000001    1    1    2    0    0 -0.13554994694E+02  0.78790122966E+02 -0.43083676073E+03  0.46822744019E+03  0.16500000000E+03 0.  0.
<mgrwt>
<rscale>  0 0.40682066E+03</rscale>
<asrwt>0</asrwt>
<pdfrwt beam="1">  1        2 0.89625704E-01 0.40682066E+03</pdfrwt>
<pdfrwt beam="2">  1       -2 0.94214414E-02 0.40682066E+03</pdfrwt>
<totfact> 0.38390950E+03</totfact>
</mgrwt>
</event>
<event>
 4    1  0.5531008E-005  0.5522633E+03  0.7818608E-02  0.1000971E+00
         -2   -1    0    0    0  501 -0.00000000000E+00  0.00000000000E+00  0.90956068617E+02  0.90956068653E+02  0.25500000000E-02 0. -1.
          2   -1    0    0  501    0  0.00000000000E+00 -0.00000000000E+00 -0.83830231762E+03  0.83830231762E+03  0.25500000000E-02 0.  1.
    5000001    1    1    2    0    0  0.62888313433E+02 -0.21183270863E+03 -0.35013745181E+03  0.44570087679E+03  0.16500000000E+03 0.  0.
   -5000001    1    1    2    0    0 -0.62888313433E+02  0.21183270863E+03 -0.39720879719E+03  0.48355750949E+03  0.16500000000E+03 0.  0.
<mgrwt>
<rscale>  0 0.55226328E+03</rscale>
<asrwt>0</asrwt>
<pdfrwt beam="1">  1        2 0.11975747E+00 0.55226328E+03</pdfrwt>
<pdfrwt beam="2">  1       -2 0.12993725E-01 0.55226328E+03</pdfrwt>
<totfact> 0.15969737E+03</totfact>
</mgrwt>
</event>
<event>
 4    1  0.5531008E-005  0.5818140E+03  0.7818608E-02  0.9943872E-01
         -2   -1    0    0    0  501 -0.00000000000E+00  0.00000000000E+00  0.52615574004E+03  0.52615574005E+03  0.25500000000E-02 0. -1.
          2   -1    0    0  501    0  0.00000000000E+00 -0.00000000000E+00 -0.16083996288E+03  0.16083996290E+03  0.25500000000E-02 0.  1.
    5000001    1    1    2    0    0  0.13328810204E+02 -0.22739958287E+03  0.94980182709E+02  0.29687448961E+03  0.16500000000E+03 0.  0.
   -5000001    1    1    2    0    0 -0.13328810204E+02  0.22739958287E+03  0.27033559445E+03  0.39012121334E+03  0.16500000000E+03 0.  0.
<mgrwt>
<rscale>  0 0.58181396E+03</rscale>
<asrwt>0</asrwt>
<pdfrwt beam="1">  1        2 0.22977138E-01 0.58181396E+03</pdfrwt>
<pdfrwt beam="2">  1       -2 0.75165105E-01 0.58181396E+03</pdfrwt>
<totfact> 0.38766861E+02</totfact>
</mgrwt>
</event>
<event>
 4    1  0.5531008E-005  0.4403754E+03  0.7818608E-02  0.1030632E+00
         -2   -1    0    0    0  501 -0.00000000000E+00  0.00000000000E+00  0.14766888655E+03  0.14766888657E+03  0.25500000000E-02 0. -1.
          2   -1    0    0  501    0  0.00000000000E+00 -0.00000000000E+00 -0.32831976411E+03  0.32831976412E+03  0.25500000000E-02 0.  1.
    5000001    1    1    2    0    0  0.12792811859E+02  0.91629858083E+02 -0.21212339551E+03  0.28422002366E+03  0.16500000000E+03 0.  0.
   -5000001    1    1    2    0    0 -0.12792811859E+02 -0.91629858083E+02  0.31472517952E+02  0.19176862703E+03  0.16500000000E+03 0.  0.
<mgrwt>
<rscale>  0 0.44037536E+03</rscale>
<asrwt>0</asrwt>
<pdfrwt beam="1">  1        2 0.46902823E-01 0.44037536E+03</pdfrwt>
<pdfrwt beam="2">  1       -2 0.21095555E-01 0.44037536E+03</pdfrwt>
<totfact> 0.20755916E+03</totfact>
</mgrwt>
</event>
<event>
 4    1  0.5531008E-005  0.6517720E+03  0.7818608E-02  0.9803460E-01
         -2   -1    0    0    0  501 -0.00000000000E+00  0.00000000000E+00  0.19022497435E+03  0.19022497436E+03  0.25500000000E-02 0. -1.
          2   -1    0    0  501    0  0.00000000000E+00 -0.00000000000E+00 -0.55829513058E+03  0.55829513058E+03  0.25500000000E-02 0.  1.
    5000001    1    1    2    0    0  0.21453377659E+03 -0.13987975744E+03 -0.31690495453E+03  0.43959622160E+03  0.16500000000E+03 0.  0.
   -5000001    1    1    2    0    0 -0.21453377659E+03  0.13987975744E+03 -0.51165201703E+02  0.30892388335E+03  0.16500000000E+03 0.  0.
<mgrwt>
<rscale>  0 0.65177198E+03</rscale>
<asrwt>0</asrwt>
<pdfrwt beam="1">  1        2 0.79756447E-01 0.65177198E+03</pdfrwt>
<pdfrwt beam="2">  1       -2 0.27174997E-01 0.65177198E+03</pdfrwt>
<totfact> 0.73000297E+02</totfact>
</mgrwt>
</event>
<event>
 4    1  0.5531008E-005  0.3939597E+03  0.7818608E-02  0.1045892E+00
         -2   -1    0    0    0  501 -0.00000000000E+00  0.00000000000E+00  0.59882225220E+02  0.59882225275E+02  0.25500000000E-02 0. -1.
          2   -1    0    0  501    0  0.00000000000E+00 -0.00000000000E+00 -0.64795614952E+03  0.64795614953E+03  0.25500000000E-02 0.  1.
    5000001    1    1    2    0    0  0.29080967330E+02  0.99352050966E+02 -0.24136115621E+03  0.31015599368E+03  0.16500000000E+03 0.  0.
   -5000001    1    1    2    0    0 -0.29080967330E+02 -0.99352050966E+02 -0.34671276809E+03  0.39768238112E+03  0.16500000000E+03 0.  0.
<mgrwt>
<rscale>  0 0.39395967E+03</rscale>
<asrwt>0</asrwt>
<pdfrwt beam="1">  1        2 0.92565160E-01 0.39395967E+03</pdfrwt>
<pdfrwt beam="2">  1       -2 0.85546040E-02 0.39395967E+03</pdfrwt>
<totfact> 0.43074026E+03</totfact>
</mgrwt>
</event>
<event>
 4    1  0.5531008E-005  0.4296199E+03  0.7818608E-02  0.1033980E+00
         -2   -1    0    0    0  501 -0.00000000000E+00  0.00000000000E+00  0.40236365872E+02  0.40236365952E+02  0.25500000000E-02 0. -1.
          2   -1    0    0  501    0  0.00000000000E+00 -0.00000000000E+00 -0.11468060735E+04  0.11468060735E+04  0.25500000000E-02 0.  1.
    5000001    1    1    2    0    0 -0.49297288854E+02  0.12698184931E+03 -0.50059206492E+03  0.54440061371E+03  0.16500000000E+03 0.  0.
   -5000001    1    1    2    0    0  0.49297288854E+02 -0.12698184931E+03 -0.60597764273E+03  0.64264182577E+03  0.16500000000E+03 0.  0.
<mgrwt>
<rscale>  0 0.42961987E+03</rscale>
<asrwt>0</asrwt>
<pdfrwt beam="1">  1        2 0.16382942E+00 0.42961987E+03</pdfrwt>
<pdfrwt beam="2">  1       -2 0.57480530E-02 0.42961987E+03</pdfrwt>
<totfact> 0.38088563E+03</totfact>
</mgrwt>
</event>
<event>
 4    1  0.5531008E-005  0.3642446E+03  0.7818608E-02  0.1056916E+00
          2   -1    0    0  501    0  0.00000000000E+00  0.00000000000E+00  0.66868493645E+03  0.66868493646E+03  0.25500000000E-02 0.  1.
         -2   -1    0    0    0  501 -0.00000000000E+00 -0.00000000000E+00 -0.49602642996E+02  0.49602643062E+02  0.25500000000E-02 0. -1.
    5000001    1    1    2    0    0  0.53320044734E+02 -0.55446958451E+02  0.29945737436E+03  0.35045272353E+03  0.16500000000E+03 0.  0.
   -5000001    1    1    2    0    0 -0.53320044734E+02  0.55446958451E+02  0.31962491910E+03  0.36783485599E+03  0.16500000000E+03 0.  0.
<mgrwt>
<rscale>  0 0.36424464E+03</rscale>
<asrwt>0</asrwt>
<pdfrwt beam="1">  1        2 0.95526419E-01 0.36424464E+03</pdfrwt>
<pdfrwt beam="2">  1       -2 0.70860919E-02 0.36424464E+03</pdfrwt>
<totfact> 0.55719450E+03</totfact>
</mgrwt>
</event>
<event>
 4    1  0.5531008E-005  0.6584878E+03  0.7818608E-02  0.9790981E-01
          2   -1    0    0  501    0  0.00000000000E+00  0.00000000000E+00  0.81718976286E+03  0.81718976287E+03  0.25500000000E-02 0.  1.
         -2   -1    0    0    0  501 -0.00000000000E+00 -0.00000000000E+00 -0.13265162617E+03  0.13265162619E+03  0.25500000000E-02 0. -1.
    5000001    1    1    2    0    0  0.67320959824E+02 -0.22735521712E+03  0.57013207283E+03  0.63913855059E+03  0.16500000000E+03 0.  0.
   -5000001    1    1    2    0    0 -0.67320959824E+02  0.22735521712E+03  0.11440606386E+03  0.31070283847E+03  0.16500000000E+03 0.  0.
<mgrwt>
<rscale>  0 0.65848782E+03</rscale>
<asrwt>0</asrwt>
<pdfrwt beam="1">  1        2 0.11674139E+00 0.65848782E+03</pdfrwt>
<pdfrwt beam="2">  1       -2 0.18950233E-01 0.65848782E+03</pdfrwt>
<totfact> 0.86987613E+02</totfact>
</mgrwt>
</event>
<event>
 4    1  0.5531008E-005  0.4045343E+03  0.7818608E-02  0.1042221E+00
         -2   -1    0    0    0  501 -0.00000000000E+00  0.00000000000E+00  0.95202200510E+02  0.95202200544E+02  0.25500000000E-02 0. -1.
          2   -1    0    0  501    0  0.00000000000E+00 -0.00000000000E+00 -0.42973792068E+03  0.42973792069E+03  0.25500000000E-02 0.  1.
    5000001    1    1    2    0    0  0.49461025502E+02  0.93923795083E+02 -0.10344658235E+03  0.22179780821E+03  0.16500000000E+03 0.  0.
   -5000001    1    1    2    0    0 -0.49461025502E+02 -0.93923795083E+02 -0.23108913782E+03  0.30314231302E+03  0.16500000000E+03 0.  0.
<mgrwt>
<rscale>  0 0.40453428E+03</rscale>
<asrwt>0</asrwt>
<pdfrwt beam="1">  1        2 0.61391130E-01 0.40453428E+03</pdfrwt>
<pdfrwt beam="2">  1       -2 0.13600315E-01 0.40453428E+03</pdfrwt>
<totfact> 0.32463153E+03</totfact>
</mgrwt>
</event>
<event>
 4    1  0.5531008E-005  0.7555941E+03  0.7818608E-02  0.9626615E-01
         -2   -1    0    0    0  501 -0.00000000000E+00  0.00000000000E+00  0.77398254732E+02  0.77398254774E+02  0.25500000000E-02 0. -1.
          2   -1    0    0  501    0  0.00000000000E+00 -0.00000000000E+00 -0.18441064698E+04  0.18441064698E+04  0.25500000000E-02 0.  1.
    5000001    1    1    2    0    0 -0.13225348690E+03 -0.18610643936E+03 -0.15235688609E+04  0.15493913855E+04  0.16500000000E+03 0.  0.
   -5000001    1    1    2    0    0  0.13225348690E+03  0.18610643936E+03 -0.24313935416E+03  0.37211333906E+03  0.16500000000E+03 0.  0.
<mgrwt>
<rscale>  0 0.75559413E+03</rscale>
<asrwt>0</asrwt>
<pdfrwt beam="1">  1        2 0.26344376E+00 0.75559413E+03</pdfrwt>
<pdfrwt beam="2">  1       -2 0.11056895E-01 0.75559413E+03</pdfrwt>
<totfact> 0.57141644E+02</totfact>
</mgrwt>
</event>
<event>
 4    1  0.5531008E-005  0.4409900E+03  0.7818608E-02  0.1030443E+00
          2   -1    0    0  501    0  0.00000000000E+00  0.00000000000E+00  0.20887217404E+03  0.20887217406E+03  0.25500000000E-02 0.  1.
         -2   -1    0    0    0  501 -0.00000000000E+00 -0.00000000000E+00 -0.23276455863E+03  0.23276455865E+03  0.25500000000E-02 0. -1.
    5000001    1    1    2    0    0 -0.30435397777E+02  0.14296947747E+03 -0.17097127645E+02  0.22109703006E+03  0.16500000000E+03 0.  0.
   -5000001    1    1    2    0    0  0.30435397777E+02 -0.14296947747E+03 -0.67952569434E+01  0.22053970265E+03  0.16500000000E+03 0.  0.
<mgrwt>
<rscale>  0 0.44098997E+03</rscale>
<asrwt>0</asrwt>
<pdfrwt beam="1">  1        2 0.29838882E-01 0.44098997E+03</pdfrwt>
<pdfrwt beam="2">  1       -2 0.33252080E-01 0.44098997E+03</pdfrwt>
<totfact> 0.15042974E+03</totfact>
</mgrwt>
</event>
<event>
 4    1  0.5531008E-005  0.4483706E+03  0.7818608E-02  0.1028209E+00
         -2   -1    0    0    0  501 -0.00000000000E+00  0.00000000000E+00  0.53985514835E+02  0.53985514896E+02  0.25500000000E-02 0. -1.
          2   -1    0    0  501    0  0.00000000000E+00 -0.00000000000E+00 -0.93097291925E+03  0.93097291926E+03  0.25500000000E-02 0.  1.
    5000001    1    1    2    0    0 -0.95503940869E+02 -0.73789456640E+02 -0.23634291605E+03  0.31248817673E+03  0.16500000000E+03 0.  0.
   -5000001    1    1    2    0    0  0.95503940869E+02  0.73789456640E+02 -0.64064448837E+03  0.67247025742E+03  0.16500000000E+03 0.  0.
<mgrwt>
<rscale>  0 0.44837062E+03</rscale>
<asrwt>0</asrwt>
<pdfrwt beam="1">  1        2 0.13299612E+00 0.44837062E+03</pdfrwt>
<pdfrwt beam="2">  1       -2 0.77122170E-02 0.44837062E+03</pdfrwt>
<totfact> 0.32289286E+03</totfact>
</mgrwt>
</event>
<event>
 4    1  0.5531008E-005  0.7117526E+03  0.7818608E-02  0.9697342E-01
          2   -1    0    0  501    0  0.00000000000E+00  0.00000000000E+00  0.18303101375E+04  0.18303101375E+04  0.25500000000E-02 0.  1.
         -2   -1    0    0    0  501 -0.00000000000E+00 -0.00000000000E+00 -0.69194805090E+02  0.69194805137E+02  0.25500000000E-02 0. -1.
    5000001    1    1    2    0    0  0.83916489961E+02  0.26438914801E+03  0.48042568771E+03  0.57877235618E+03  0.16500000000E+03 0.  0.
   -5000001    1    1    2    0    0 -0.83916489961E+02 -0.26438914801E+03  0.12806896447E+04  0.13207325864E+04  0.16500000000E+03 0.  0.
<mgrwt>
<rscale>  0 0.71175263E+03</rscale>
<asrwt>0</asrwt>
<pdfrwt beam="1">  1        2 0.26147288E+00 0.71175263E+03</pdfrwt>
<pdfrwt beam="2">  1       -2 0.98849721E-02 0.71175263E+03</pdfrwt>
<totfact> 0.69905782E+02</totfact>
</mgrwt>
</event>
<event>
 4    1  0.5531008E-005  0.4352033E+03  0.7818608E-02  0.1032229E+00
         -2   -1    0    0    0  501 -0.00000000000E+00  0.00000000000E+00  0.62425251859E+02  0.62425251912E+02  0.25500000000E-02 0. -1.
          2   -1    0    0  501    0  0.00000000000E+00 -0.00000000000E+00 -0.75851496865E+03  0.75851496865E+03  0.25500000000E-02 0.  1.
    5000001    1    1    2    0    0 -0.12026414770E+03  0.71644100918E+02 -0.30465313618E+03  0.37367750241E+03  0.16500000000E+03 0.  0.
   -5000001    1    1    2    0    0  0.12026414770E+03 -0.71644100918E+02 -0.39143658061E+03  0.44726271816E+03  0.16500000000E+03 0.  0.
<mgrwt>
<rscale>  0 0.43520335E+03</rscale>
<asrwt>0</asrwt>
<pdfrwt beam="1">  1        2 0.10835928E+00 0.43520335E+03</pdfrwt>
<pdfrwt beam="2">  1       -2 0.89178936E-02 0.43520335E+03</pdfrwt>
<totfact> 0.33378100E+03</totfact>
</mgrwt>
</event>
<event>
 4    1  0.5531008E-005  0.4117591E+03  0.7818608E-02  0.1039782E+00
         -2   -1    0    0    0  501 -0.00000000000E+00  0.00000000000E+00  0.19917360631E+02  0.19917360794E+02  0.25500000000E-02 0. -1.
          2   -1    0    0  501    0  0.00000000000E+00 -0.00000000000E+00 -0.21281130361E+04  0.21281130361E+04  0.25500000000E-02 0.  1.
    5000001    1    1    2    0    0  0.79658378412E+02 -0.85254664511E+02 -0.84887592647E+03  0.87259907954E+03  0.16500000000E+03 0.  0.
   -5000001    1    1    2    0    0 -0.79658378412E+02  0.85254664511E+02 -0.12593197490E+04  0.12754313173E+04  0.16500000000E+03 0.  0.
<mgrwt>
<rscale>  0 0.41175913E+03</rscale>
<asrwt>0</asrwt>
<pdfrwt beam="1">  1        2 0.30401600E+00 0.41175913E+03</pdfrwt>
<pdfrwt beam="2">  1       -2 0.28453386E-02 0.41175913E+03</pdfrwt>
<totfact> 0.34924455E+03</totfact>
</mgrwt>
</event>
<event>
 4    1  0.5531008E-005  0.5867361E+03  0.7818608E-02  0.9933313E-01
          2   -1    0    0  501    0  0.00000000000E+00  0.00000000000E+00  0.23114266633E+03  0.23114266634E+03  0.25500000000E-02 0.  1.
         -2   -1    0    0    0  501 -0.00000000000E+00 -0.00000000000E+00 -0.37234502407E+03  0.37234502408E+03  0.25500000000E-02 0. -1.
    5000001    1    1    2    0    0  0.70676308331E+02 -0.21795859162E+03 -0.15249041658E+03  0.32090405945E+03  0.16500000000E+03 0.  0.
   -5000001    1    1    2    0    0 -0.70676308331E+02  0.21795859162E+03  0.11288058840E+02  0.28258363097E+03  0.16500000000E+03 0.  0.
<mgrwt>
<rscale>  0 0.58673613E+03</rscale>
<asrwt>0</asrwt>
<pdfrwt beam="1">  1        2 0.33020381E-01 0.58673613E+03</pdfrwt>
<pdfrwt beam="2">  1       -2 0.53192146E-01 0.58673613E+03</pdfrwt>
<totfact> 0.53624174E+02</totfact>
</mgrwt>
</event>
<event>
 4    1  0.5531008E-005  0.5197375E+03  0.7818608E-02  0.1008752E+00
          2   -1    0    0  501    0  0.00000000000E+00  0.00000000000E+00  0.13436108524E+04  0.13436108524E+04  0.25500000000E-02 0.  1.
         -2   -1    0    0    0  501 -0.00000000000E+00 -0.00000000000E+00 -0.50261410887E+02  0.50261410952E+02  0.25500000000E-02 0. -1.
    5000001    1    1    2    0    0 -0.18936346513E+03  0.70079127967E+01  0.46879640852E+03  0.53188598911E+03  0.16500000000E+03 0.  0.
   -5000001    1    1    2    0    0  0.18936346513E+03 -0.70079127967E+01  0.82455303298E+03  0.86198627424E+03  0.16500000000E+03 0.  0.
<mgrwt>
<rscale>  0 0.51973754E+03</rscale>
<asrwt>0</asrwt>
<pdfrwt beam="1">  1        2 0.19194439E+00 0.51973754E+03</pdfrwt>
<pdfrwt beam="2">  1       -2 0.71802024E-02 0.51973754E+03</pdfrwt>
<totfact> 0.20976932E+03</totfact>
</mgrwt>
</event>
<event>
 4    1  0.5531008E-005  0.1087317E+04  0.7818608E-02  0.9217643E-01
         -2   -1    0    0    0  501 -0.00000000000E+00  0.00000000000E+00  0.80570860233E+02  0.80570860274E+02  0.25500000000E-02 0.  1.
          2   -1    0    0  501    0  0.00000000000E+00 -0.00000000000E+00 -0.36683772599E+04  0.36683772599E+04  0.25500000000E-02 0. -1.
    5000001    1    1    2    0    0  0.38790697949E+03  0.34217380257E+03 -0.16973268350E+04  0.17820488547E+04  0.16500000000E+03 0.  0.
   -5000001    1    1    2    0    0 -0.38790697949E+03 -0.34217380257E+03 -0.18904795647E+04  0.19668992654E+04  0.16500000000E+03 0.  0.
<mgrwt>
<rscale>  0 0.10873165E+04</rscale>
<asrwt>0</asrwt>
<pdfrwt beam="1">  1        2 0.52405379E+00 0.10873165E+04</pdfrwt>
<pdfrwt beam="2">  1       -2 0.11510125E-01 0.10873165E+04</pdfrwt>
<totfact> 0.52894010E+01</totfact>
</mgrwt>
</event>
<event>
 4    1  0.5531008E-005  0.7406944E+03  0.7818608E-02  0.9650063E-01
          2   -1    0    0  501    0  0.00000000000E+00  0.00000000000E+00  0.10022790659E+04  0.10022790659E+04  0.25500000000E-02 0.  1.
         -2   -1    0    0    0  501 -0.00000000000E+00 -0.00000000000E+00 -0.13684518099E+03  0.13684518101E+03  0.25500000000E-02 0. -1.
    5000001    1    1    2    0    0 -0.20167256872E+03  0.19354060639E+02  0.83635900293E+03  0.87622359385E+03  0.16500000000E+03 0.  0.
   -5000001    1    1    2    0    0  0.20167256872E+03 -0.19354060639E+02  0.29074882013E+02  0.26290065310E+03  0.16500000000E+03 0.  0.
<mgrwt>
<rscale>  0 0.74069443E+03</rscale>
<asrwt>0</asrwt>
<pdfrwt beam="1">  1        2 0.14318273E+00 0.74069443E+03</pdfrwt>
<pdfrwt beam="2">  1       -2 0.19549311E-01 0.74069443E+03</pdfrwt>
<totfact> 0.62404072E+02</totfact>
</mgrwt>
</event>
<event>
 4    1  0.5531008E-005  0.5008245E+03  0.7818608E-02  0.1013564E+00
          2   -1    0    0  501    0  0.00000000000E+00  0.00000000000E+00  0.21202207652E+04  0.21202207652E+04  0.25500000000E-02 0.  1.
         -2   -1    0    0    0  501 -0.00000000000E+00 -0.00000000000E+00 -0.29575359800E+02  0.29575359910E+02  0.25500000000E-02 0. -1.
    5000001    1    1    2    0    0 -0.81102951792E+02  0.16745582127E+03  0.91928413835E+03  0.95232739532E+03  0.16500000000E+03 0.  0.
   -5000001    1    1    2    0    0  0.81102951792E+02 -0.16745582127E+03  0.11713612670E+04  0.11974687297E+04  0.16500000000E+03 0.  0.
<mgrwt>
<rscale>  0 0.50082449E+03</rscale>
<asrwt>0</asrwt>
<pdfrwt beam="1">  1        2 0.30288867E+00 0.50082449E+03</pdfrwt>
<pdfrwt beam="2">  1       -2 0.42250516E-02 0.50082449E+03</pdfrwt>
<totfact> 0.19272737E+03</totfact>
</mgrwt>
</event>
<event>
 4    1  0.5531008E-005  0.4366245E+03  0.7818608E-02  0.1031788E+00
         -2   -1    0    0    0  501 -0.00000000000E+00  0.00000000000E+00  0.60156562577E+02  0.60156562631E+02  0.25500000000E-02 0. -1.
          2   -1    0    0  501    0  0.00000000000E+00 -0.00000000000E+00 -0.79226985929E+03  0.79226985930E+03  0.25500000000E-02 0.  1.
    5000001    1    1    2    0    0 -0.11943122824E+02  0.12961214675E+03 -0.25066727361E+03  0.32711011728E+03  0.16500000000E+03 0.  0.
   -5000001    1    1    2    0    0  0.11943122824E+02 -0.12961214675E+03 -0.48144602311E+03  0.52531630466E+03  0.16500000000E+03 0.  0.
<mgrwt>
<rscale>  0 0.43662447E+03</rscale>
<asrwt>0</asrwt>
<pdfrwt beam="1">  1        2 0.11318140E+00 0.43662447E+03</pdfrwt>
<pdfrwt beam="2">  1       -2 0.85937951E-02 0.43662447E+03</pdfrwt>
<totfact> 0.33531770E+03</totfact>
</mgrwt>
</event>
<event>
 4    1  0.5531008E-005  0.4906337E+03  0.7818608E-02  0.1016253E+00
         -2   -1    0    0    0  501 -0.00000000000E+00  0.00000000000E+00  0.25705424594E+02  0.25705424721E+02  0.25500000000E-02 0. -1.
          2   -1    0    0  501    0  0.00000000000E+00 -0.00000000000E+00 -0.23411543064E+04  0.23411543064E+04  0.25500000000E-02 0.  1.
    5000001    1    1    2    0    0 -0.12658533774E+03 -0.12860705333E+03 -0.10622436194E+04  0.10900229947E+04  0.16500000000E+03 0.  0.
   -5000001    1    1    2    0    0  0.12658533774E+03  0.12860705333E+03 -0.12532052624E+04  0.12768367365E+04  0.16500000000E+03 0.  0.
<mgrwt>
<rscale>  0 0.49063374E+03</rscale>
<asrwt>0</asrwt>
<pdfrwt beam="1">  1        2 0.33445048E+00 0.49063374E+03</pdfrwt>
<pdfrwt beam="2">  1       -2 0.36722050E-02 0.49063374E+03</pdfrwt>
<totfact> 0.18514292E+03</totfact>
</mgrwt>
</event>
<event>
 4    1  0.5531008E-005  0.3857453E+03  0.7818608E-02  0.1048830E+00
         -2   -1    0    0    0  501 -0.00000000000E+00  0.00000000000E+00  0.15793647335E+03  0.15793647337E+03  0.25500000000E-02 0. -1.
          2   -1    0    0  501    0  0.00000000000E+00 -0.00000000000E+00 -0.23553689378E+03  0.23553689379E+03  0.25500000000E-02 0.  1.
    5000001    1    1    2    0    0  0.81510673182E+02 -0.27658818308E+02  0.12868981304E+02  0.18654653777E+03  0.16500000000E+03 0.  0.
   -5000001    1    1    2    0    0 -0.81510673182E+02  0.27658818308E+02 -0.90469401732E+02  0.20692682939E+03  0.16500000000E+03 0.  0.
<mgrwt>
<rscale>  0 0.38574534E+03</rscale>
<asrwt>0</asrwt>
<pdfrwt beam="1">  1        2 0.33648128E-01 0.38574534E+03</pdfrwt>
<pdfrwt beam="2">  1       -2 0.22562353E-01 0.38574534E+03</pdfrwt>
<totfact> 0.26498152E+03</totfact>
</mgrwt>
</event>
<event>
 4    1  0.5531008E-005  0.9436028E+03  0.7818608E-02  0.9372659E-01
          2   -1    0    0  501    0  0.00000000000E+00  0.00000000000E+00  0.14723356300E+04  0.14723356300E+04  0.25500000000E-02 0.  1.
         -2   -1    0    0    0  501 -0.00000000000E+00 -0.00000000000E+00 -0.15118600681E+03  0.15118600683E+03  0.25500000000E-02 0. -1.
    5000001    1    1    2    0    0 -0.14864189679E+03 -0.13678238722E+03  0.13370132245E+04  0.13622162814E+04  0.16500000000E+03 0.  0.
   -5000001    1    1    2    0    0  0.14864189679E+03  0.13678238722E+03 -0.15863601262E+02  0.26130535544E+03  0.16500000000E+03 0.  0.
<mgrwt>
<rscale>  0 0.94360277E+03</rscale>
<asrwt>0</asrwt>
<pdfrwt beam="1">  1        2 0.21033365E+00 0.94360277E+03</pdfrwt>
<pdfrwt beam="2">  1       -2 0.21598002E-01 0.94360277E+03</pdfrwt>
<totfact> 0.28174196E+02</totfact>
</mgrwt>
</event>
<event>
 4    1  0.5531008E-005  0.3777035E+03  0.7818608E-02  0.1051786E+00
         -2   -1    0    0    0  501 -0.00000000000E+00  0.00000000000E+00  0.20678401313E+02  0.20678401471E+02  0.25500000000E-02 0. -1.
          2   -1    0    0  501    0  0.00000000000E+00 -0.00000000000E+00 -0.17247460541E+04  0.17247460541E+04  0.25500000000E-02 0.  1.
    5000001    1    1    2    0    0  0.82758577478E+02 -0.67144936043E+01 -0.67033833120E+03  0.69532190016E+03  0.16500000000E+03 0.  0.
   -5000001    1    1    2    0    0 -0.82758577478E+02  0.67144936043E+01 -0.10337293216E+04  0.10501025554E+04  0.16500000000E+03 0.  0.
<mgrwt>
<rscale>  0 0.37770354E+03</rscale>
<asrwt>0</asrwt>
<pdfrwt beam="1">  1        2 0.24639220E+00 0.37770354E+03</pdfrwt>
<pdfrwt beam="2">  1       -2 0.29540584E-02 0.37770354E+03</pdfrwt>
<totfact> 0.52332585E+03</totfact>
</mgrwt>
</event>
<event>
 4    1  0.5531008E-005  0.8562642E+03  0.7818608E-02  0.9481968E-01
          2   -1    0    0  501    0  0.00000000000E+00  0.00000000000E+00  0.24145186294E+04  0.24145186294E+04  0.25500000000E-02 0.  1.
         -2   -1    0    0    0  501 -0.00000000000E+00 -0.00000000000E+00 -0.75914542059E+02  0.75914542102E+02  0.25500000000E-02 0. -1.
    5000001    1    1    2    0    0  0.18819560766E+03 -0.31140738739E+03  0.72173580305E+03  0.82493618969E+03  0.16500000000E+03 0.  0.
   -5000001    1    1    2    0    0 -0.18819560766E+03  0.31140738739E+03  0.16168682843E+04  0.16654969818E+04  0.16500000000E+03 0.  0.
<mgrwt>
<rscale>  0 0.85626416E+03</rscale>
<asrwt>0</asrwt>
<pdfrwt beam="1">  1        2 0.34493121E+00 0.85626416E+03</pdfrwt>
<pdfrwt beam="2">  1       -2 0.10844935E-01 0.85626416E+03</pdfrwt>
<totfact> 0.30023804E+02</totfact>
</mgrwt>
</event>
<event>
 4    1  0.5531008E-005  0.4903931E+03  0.7818608E-02  0.1016317E+00
         -2   -1    0    0    0  501 -0.00000000000E+00  0.00000000000E+00  0.16078280634E+02  0.16078280836E+02  0.25500000000E-02 0. -1.
          2   -1    0    0  501    0  0.00000000000E+00 -0.00000000000E+00 -0.37392902168E+04  0.37392902168E+04  0.25500000000E-02 0.  1.
    5000001    1    1    2    0    0  0.24011676313E+02 -0.14966623886E+03 -0.26243168484E+04  0.26338641697E+04  0.16500000000E+03 0.  0.
   -5000001    1    1    2    0    0 -0.24011676313E+02  0.14966623886E+03 -0.10988950877E+04  0.11215043279E+04  0.16500000000E+03 0.  0.
<mgrwt>
<rscale>  0 0.49039314E+03</rscale>
<asrwt>0</asrwt>
<pdfrwt beam="1">  1        2 0.53418376E+00 0.49039314E+03</pdfrwt>
<pdfrwt beam="2">  1       -2 0.22968996E-02 0.49039314E+03</pdfrwt>
<totfact> 0.64041964E+02</totfact>
</mgrwt>
</event>
<event>
 4    1  0.5531008E-005  0.6887910E+03  0.7818608E-02  0.9736595E-01
         -2   -1    0    0    0  501 -0.00000000000E+00  0.00000000000E+00  0.10389455492E+03  0.10389455495E+03  0.25500000000E-02 0. -1.
          2   -1    0    0  501    0  0.00000000000E+00 -0.00000000000E+00 -0.11416214632E+04  0.11416214632E+04  0.25500000000E-02 0.  1.
    5000001    1    1    2    0    0  0.17151191688E+03  0.11994567496E+03 -0.12442989190E+03  0.29412769433E+03  0.16500000000E+03 0.  0.
   -5000001    1    1    2    0    0 -0.17151191688E+03 -0.11994567496E+03 -0.91329701639E+03  0.95138832383E+03  0.16500000000E+03 0.  0.
<mgrwt>
<rscale>  0 0.68879098E+03</rscale>
<asrwt>0</asrwt>
<pdfrwt beam="1">  1        2 0.16308877E+00 0.68879098E+03</pdfrwt>
<pdfrwt beam="2">  1       -2 0.14842080E-01 0.68879098E+03</pdfrwt>
<totfact> 0.82867731E+02</totfact>
</mgrwt>
</event>
<event>
 4    1  0.5531008E-005  0.7897146E+03  0.7818608E-02  0.9575025E-01
          2   -1    0    0  501    0  0.00000000000E+00  0.00000000000E+00  0.15935951359E+04  0.15935951359E+04  0.25500000000E-02 0.  1.
         -2   -1    0    0    0  501 -0.00000000000E+00 -0.00000000000E+00 -0.97836834644E+02  0.97836834677E+02  0.25500000000E-02 0. -1.
    5000001    1    1    2    0    0 -0.17814591437E+03 -0.29853001003E+03  0.93741775339E+03  0.10133277742E+04  0.16500000000E+03 0.  0.
   -5000001    1    1    2    0    0  0.17814591437E+03  0.29853001003E+03  0.55834054789E+03  0.67810419636E+03  0.16500000000E+03 0.  0.
<mgrwt>
<rscale>  0 0.78971464E+03</rscale>
<asrwt>0</asrwt>
<pdfrwt beam="1">  1        2 0.22765645E+00 0.78971464E+03</pdfrwt>
<pdfrwt beam="2">  1       -2 0.13976690E-01 0.78971464E+03</pdfrwt>
<totfact> 0.51952511E+02</totfact>
</mgrwt>
</event>
<event>
 4    1  0.5531008E-005  0.6933615E+03  0.7818608E-02  0.9728653E-01
         -2   -1    0    0    0  501 -0.00000000000E+00  0.00000000000E+00  0.20240919785E+03  0.20240919787E+03  0.25500000000E-02 0. -1.
          2   -1    0    0  501    0  0.00000000000E+00 -0.00000000000E+00 -0.59378496681E+03  0.59378496682E+03  0.25500000000E-02 0.  1.
    5000001    1    1    2    0    0  0.35993651708E+01  0.26665136692E+03 -0.25960656008E+02  0.31466627174E+03  0.16500000000E+03 0.  0.
   -5000001    1    1    2    0    0 -0.35993651708E+01 -0.26665136692E+03 -0.36541511295E+03  0.48152789295E+03  0.16500000000E+03 0.  0.
<mgrwt>
<rscale>  0 0.69336149E+03</rscale>
<asrwt>0</asrwt>
<pdfrwt beam="1">  1        2 0.84826423E-01 0.69336149E+03</pdfrwt>
<pdfrwt beam="2">  1       -2 0.28915600E-01 0.69336149E+03</pdfrwt>
<totfact> 0.60562853E+02</totfact>
</mgrwt>
</event>
<event>
 4    1  0.5531008E-005  0.3491057E+03  0.7818608E-02  0.1062983E+00
          2   -1    0    0  501    0  0.00000000000E+00  0.00000000000E+00  0.26644189840E+04  0.26644189840E+04  0.25500000000E-02 0.  1.
         -2   -1    0    0    0  501 -0.00000000000E+00 -0.00000000000E+00 -0.11435402563E+02  0.11435402848E+02  0.25500000000E-02 0. -1.
    5000001    1    1    2    0    0  0.23426307325E+02 -0.48921365791E+02  0.14596076837E+04  0.14699053311E+04  0.16500000000E+03 0.  0.
   -5000001    1    1    2    0    0 -0.23426307325E+02  0.48921365791E+02  0.11933758977E+04  0.12059490558E+04  0.16500000000E+03 0.  0.
<mgrwt>
<rscale>  0 0.34910574E+03</rscale>
<asrwt>0</asrwt>
<pdfrwt beam="1">  1        2 0.38063109E+00 0.34910574E+03</pdfrwt>
<pdfrwt beam="2">  1       -2 0.16336298E-02 0.34910574E+03</pdfrwt>
<totfact> 0.43015766E+03</totfact>
</mgrwt>
</event>
<event>
 4    1  0.5531008E-005  0.4357623E+03  0.7818608E-02  0.1032055E+00
         -2   -1    0    0    0  501 -0.00000000000E+00  0.00000000000E+00  0.15947831623E+03  0.15947831625E+03  0.25500000000E-02 0. -1.
          2   -1    0    0  501    0  0.00000000000E+00 -0.00000000000E+00 -0.29767185165E+03  0.29767185166E+03  0.25500000000E-02 0.  1.
    5000001    1    1    2    0    0  0.18464228222E+02 -0.90924663434E+02  0.44082455747E+02  0.19436173762E+03  0.16500000000E+03 0.  0.
   -5000001    1    1    2    0    0 -0.18464228222E+02  0.90924663434E+02 -0.18227599116E+03  0.26278843030E+03  0.16500000000E+03 0.  0.
<mgrwt>
<rscale>  0 0.43576235E+03</rscale>
<asrwt>0</asrwt>
<pdfrwt beam="1">  1        2 0.42524550E-01 0.43576235E+03</pdfrwt>
<pdfrwt beam="2">  1       -2 0.22782617E-01 0.43576235E+03</pdfrwt>
<totfact> 0.20188758E+03</totfact>
</mgrwt>
</event>
<event>
 4    1  0.5531008E-005  0.4875353E+03  0.7818608E-02  0.1017085E+00
         -2   -1    0    0    0  501 -0.00000000000E+00  0.00000000000E+00  0.12303779219E+03  0.12303779221E+03  0.25500000000E-02 0. -1.
          2   -1    0    0  501    0  0.00000000000E+00 -0.00000000000E+00 -0.48296267898E+03  0.48296267898E+03  0.25500000000E-02 0.  1.
    5000001    1    1    2    0    0 -0.96039706785E+02 -0.94599783562E+02 -0.32759304187E+02  0.21557113986E+03  0.16500000000E+03 0.  0.
   -5000001    1    1    2    0    0  0.96039706785E+02  0.94599783562E+02 -0.32716558260E+03  0.39042933134E+03  0.16500000000E+03 0.  0.
<mgrwt>
<rscale>  0 0.48753528E+03</rscale>
<asrwt>0</asrwt>
<pdfrwt beam="1">  1        2 0.68994667E-01 0.48753528E+03</pdfrwt>
<pdfrwt beam="2">  1       -2 0.17576828E-01 0.48753528E+03</pdfrwt>
<totfact> 0.18576406E+03</totfact>
</mgrwt>
</event>
<event>
 4    1  0.5531008E-005  0.3713545E+03  0.7818608E-02  0.1054176E+00
         -2   -1    0    0    0  501 -0.00000000000E+00  0.00000000000E+00  0.26474811228E+03  0.26474811230E+03  0.25500000000E-02 0. -1.
          2   -1    0    0  501    0  0.00000000000E+00 -0.00000000000E+00 -0.13022205641E+03  0.13022205643E+03  0.25500000000E-02 0.  1.
    5000001    1    1    2    0    0  0.80688130288E+02 -0.24153031259E+02  0.53931984634E+02  0.19294455746E+03  0.16500000000E+03 0.  0.
   -5000001    1    1    2    0    0 -0.80688130288E+02  0.24153031259E+02  0.80594071241E+02  0.20202561127E+03  0.16500000000E+03 0.  0.
<mgrwt>
<rscale>  0 0.37135451E+03</rscale>
<asrwt>0</asrwt>
<pdfrwt beam="1">  1        2 0.18603151E-01 0.37135451E+03</pdfrwt>
<pdfrwt beam="2">  1       -2 0.37821159E-01 0.37135451E+03</pdfrwt>
<totfact> 0.20167288E+03</totfact>
</mgrwt>
</event>
<event>
 4    1  0.5531008E-005  0.4521249E+03  0.7818608E-02  0.1027090E+00
          2   -1    0    0  501    0  0.00000000000E+00  0.00000000000E+00  0.52407209736E+03  0.52407209736E+03  0.25500000000E-02 0.  1.
         -2   -1    0    0    0  501 -0.00000000000E+00 -0.00000000000E+00 -0.97513726307E+02  0.97513726341E+02  0.25500000000E-02 0. -1.
    5000001    1    1    2    0    0 -0.88987101986E+01  0.13444943824E+03  0.10927060355E+03  0.23941784246E+03  0.16500000000E+03 0.  0.
   -5000001    1    1    2    0    0  0.88987101986E+01 -0.13444943824E+03  0.31728776749E+03  0.38216798124E+03  0.16500000000E+03 0.  0.
<mgrwt>
<rscale>  0 0.45212486E+03</rscale>
<asrwt>0</asrwt>
<pdfrwt beam="1">  1        2 0.74867443E-01 0.45212486E+03</pdfrwt>
<pdfrwt beam="2">  1       -2 0.13930532E-01 0.45212486E+03</pdfrwt>
<totfact> 0.25029637E+03</totfact>
</mgrwt>
</event>
<event>
 4    1  0.5531008E-005  0.1872530E+04  0.7818608E-02  0.8668652E-01
          2   -1    0    0  501    0  0.00000000000E+00  0.00000000000E+00  0.25439626636E+04  0.25439626636E+04  0.25500000000E-02 0.  1.
         -2   -1    0    0    0  501 -0.00000000000E+00 -0.00000000000E+00 -0.34457747708E+03  0.34457747709E+03  0.25500000000E-02 0. -1.
    5000001    1    1    2    0    0 -0.97420341115E+01 -0.92068918096E+03  0.11614685474E+04  0.14913073667E+04  0.16500000000E+03 0.  0.
   -5000001    1    1    2    0    0  0.97420341115E+01  0.92068918096E+03  0.10379166391E+04  0.13972327741E+04  0.16500000000E+03 0.  0.
<mgrwt>
<rscale>  0 0.18725301E+04</rscale>
<asrwt>0</asrwt>
<pdfrwt beam="1">  1        2 0.36342325E+00 0.18725301E+04</pdfrwt>
<pdfrwt beam="2">  1       -2 0.49225352E-01 0.18725301E+04</pdfrwt>
<totfact> 0.15373822E+01</totfact>
</mgrwt>
</event>
<event>
 4    1  0.5531008E-005  0.1964929E+04  0.7818608E-02  0.8623195E-01
          2   -1    0    0  501    0  0.00000000000E+00  0.00000000000E+00  0.60253218994E+03  0.60253218994E+03  0.25500000000E-02 0.  1.
         -2   -1    0    0    0  501 -0.00000000000E+00 -0.00000000000E+00 -0.16019667744E+04  0.16019667744E+04  0.25500000000E-02 0. -1.
    5000001    1    1    2    0    0  0.14653247539E+03 -0.95704872484E+03 -0.52714184265E+03  0.11146827129E+04  0.16500000000E+03 0.  0.
   -5000001    1    1    2    0    0 -0.14653247539E+03  0.95704872484E+03 -0.47229274181E+03  0.10898162515E+04  0.16500000000E+03 0.  0.
<mgrwt>
<rscale>  0 0.19649291E+04</rscale>
<asrwt>0</asrwt>
<pdfrwt beam="1">  1        2 0.86076028E-01 0.19649291E+04</pdfrwt>
<pdfrwt beam="2">  1       -2 0.22885239E+00 0.19649291E+04</pdfrwt>
<totfact> 0.43852181E+00</totfact>
</mgrwt>
</event>
<event>
 4    1  0.5531008E-005  0.1631046E+04  0.7818608E-02  0.8801699E-01
         -2   -1    0    0    0  501 -0.00000000000E+00  0.00000000000E+00  0.60047420400E+03  0.60047420401E+03  0.25500000000E-02 0. -1.
          2   -1    0    0  501    0  0.00000000000E+00 -0.00000000000E+00 -0.11075876894E+04  0.11075876894E+04  0.25500000000E-02 0.  1.
    5000001    1    1    2    0    0  0.73468728616E+03 -0.22992761844E+03 -0.47624950237E+03  0.92014711143E+03  0.16500000000E+03 0.  0.
   -5000001    1    1    2    0    0 -0.73468728616E+03  0.22992761844E+03 -0.30863982993E+02  0.78791478195E+03  0.16500000000E+03 0.  0.
<mgrwt>
<rscale>  0 0.16310461E+04</rscale>
<asrwt>0</asrwt>
<pdfrwt beam="1">  1        2 0.15822681E+00 0.16310461E+04</pdfrwt>
<pdfrwt beam="2">  1       -2 0.85782029E-01 0.16310461E+04</pdfrwt>
<totfact> 0.27366540E+01</totfact>
</mgrwt>
</event>
<event>
 4    1  0.5531008E-005  0.7779339E+03  0.7818608E-02  0.9592518E-01
         -2   -1    0    0    0  501 -0.00000000000E+00  0.00000000000E+00  0.17204115918E+03  0.17204115920E+03  0.25500000000E-02 0. -1.
          2   -1    0    0  501    0  0.00000000000E+00 -0.00000000000E+00 -0.87941330008E+03  0.87941330008E+03  0.25500000000E-02 0.  1.
    5000001    1    1    2    0    0 -0.29831354597E+03  0.12775787874E+03 -0.16857508146E+03  0.40119272847E+03  0.16500000000E+03 0.  0.
   -5000001    1    1    2    0    0  0.29831354597E+03 -0.12775787874E+03 -0.53879705944E+03  0.65026173081E+03  0.16500000000E+03 0.  0.
<mgrwt>
<rscale>  0 0.77793389E+03</rscale>
<asrwt>0</asrwt>
<pdfrwt beam="1">  1        2 0.12563047E+00 0.77793389E+03</pdfrwt>
<pdfrwt beam="2">  1       -2 0.24577309E-01 0.77793389E+03</pdfrwt>
<totfact> 0.49734594E+02</totfact>
</mgrwt>
</event>
<event>
 4    1  0.5531008E-005  0.4231014E+03  0.7818608E-02  0.1036062E+00
         -2   -1    0    0    0  501 -0.00000000000E+00  0.00000000000E+00  0.19952848287E+02  0.19952848450E+02  0.25500000000E-02 0. -1.
          2   -1    0    0  501    0  0.00000000000E+00 -0.00000000000E+00 -0.22429726467E+04  0.22429726467E+04  0.25500000000E-02 0.  1.
    5000001    1    1    2    0    0 -0.12875049790E+03 -0.30277417752E+02 -0.11432780885E+04  0.11626707188E+04  0.16500000000E+03 0.  0.
   -5000001    1    1    2    0    0  0.12875049790E+03  0.30277417752E+02 -0.10797417098E+04  0.11002547763E+04  0.16500000000E+03 0.  0.
<mgrwt>
<rscale>  0 0.42310137E+03</rscale>
<asrwt>0</asrwt>
<pdfrwt beam="1">  1        2 0.32042450E+00 0.42310137E+03</pdfrwt>
<pdfrwt beam="2">  1       -2 0.28504084E-02 0.42310137E+03</pdfrwt>
<totfact> 0.30528613E+03</totfact>
</mgrwt>
</event>
<event>
 4    1  0.5531008E-005  0.5581066E+03  0.7818608E-02  0.9996348E-01
          2   -1    0    0  501    0  0.00000000000E+00  0.00000000000E+00  0.31536046397E+04  0.31536046397E+04  0.25500000000E-02 0.  1.
         -2   -1    0    0    0  501 -0.00000000000E+00 -0.00000000000E+00 -0.24692614550E+02  0.24692614682E+02  0.25500000000E-02 0. -1.
    5000001    1    1    2    0    0  0.70461635004E+02 -0.19797752594E+03  0.20230825415E+04  0.20406488950E+04  0.16500000000E+03 0.  0.
   -5000001    1    1    2    0    0 -0.70461635004E+02  0.19797752594E+03  0.11058294836E+04  0.11376483594E+04  0.16500000000E+03 0.  0.
<mgrwt>
<rscale>  0 0.55810660E+03</rscale>
<asrwt>0</asrwt>
<pdfrwt beam="1">  1        2 0.45051516E+00 0.55810660E+03</pdfrwt>
<pdfrwt beam="2">  1       -2 0.35275147E-02 0.55810660E+03</pdfrwt>
<totfact> 0.73205473E+02</totfact>
</mgrwt>
</event>
<event>
 4    1  0.5531008E-005  0.4128053E+03  0.7818608E-02  0.1039434E+00
         -2   -1    0    0    0  501 -0.00000000000E+00  0.00000000000E+00  0.35824867521E+02  0.35824867612E+02  0.25500000000E-02 0. -1.
          2   -1    0    0  501    0  0.00000000000E+00 -0.00000000000E+00 -0.11891755272E+04  0.11891755272E+04  0.25500000000E-02 0.  1.
    5000001    1    1    2    0    0  0.12001361904E+03 -0.19066196179E+02 -0.50336739845E+03  0.54348001474E+03  0.16500000000E+03 0.  0.
   -5000001    1    1    2    0    0 -0.12001361904E+03  0.19066196179E+02 -0.64998326126E+03  0.68152038011E+03  0.16500000000E+03 0.  0.
<mgrwt>
<rscale>  0 0.41280531E+03</rscale>
<asrwt>0</asrwt>
<pdfrwt beam="1">  1        2 0.16988219E+00 0.41280531E+03</pdfrwt>
<pdfrwt beam="2">  1       -2 0.51178389E-02 0.41280531E+03</pdfrwt>
<totfact> 0.43139304E+03</totfact>
</mgrwt>
</event>
<event>
 4    1  0.5531008E-005  0.8883954E+03  0.7818608E-02  0.9440205E-01
          2   -1    0    0  501    0  0.00000000000E+00  0.00000000000E+00  0.15351097900E+04  0.15351097900E+04  0.25500000000E-02 0.  1.
         -2   -1    0    0    0  501 -0.00000000000E+00 -0.00000000000E+00 -0.12853255535E+03  0.12853255537E+03  0.25500000000E-02 0. -1.
    5000001    1    1    2    0    0  0.17175591014E+03 -0.36508948231E+03  0.54333248577E+03  0.69658137561E+03  0.16500000000E+03 0.  0.
   -5000001    1    1    2    0    0 -0.17175591014E+03  0.36508948231E+03  0.86324474889E+03  0.96706096977E+03  0.16500000000E+03 0.  0.
<mgrwt>
<rscale>  0 0.88839537E+03</rscale>
<asrwt>0</asrwt>
<pdfrwt beam="1">  1        2 0.21930139E+00 0.88839537E+03</pdfrwt>
<pdfrwt beam="2">  1       -2 0.18361794E-01 0.88839537E+03</pdfrwt>
<totfact> 0.34803624E+02</totfact>
</mgrwt>
</event>
<event>
 4    1  0.5531008E-005  0.4918131E+03  0.7818608E-02  0.1015938E+00
         -2   -1    0    0    0  501 -0.00000000000E+00  0.00000000000E+00  0.15681388523E+03  0.15681388526E+03  0.25500000000E-02 0.  1.
          2   -1    0    0  501    0  0.00000000000E+00 -0.00000000000E+00 -0.38561660136E+03  0.38561660137E+03  0.25500000000E-02 0. -1.
    5000001    1    1    2    0    0  0.94784676790E+02  0.11599696315E+03  0.24719059547E+00  0.22285531521E+03  0.16500000000E+03 0.  0.
   -5000001    1    1    2    0    0 -0.94784676790E+02 -0.11599696315E+03 -0.22904990672E+03  0.31957517142E+03  0.16500000000E+03 0.  0.
<mgrwt>
<rscale>  0 0.49181312E+03</rscale>
<asrwt>0</asrwt>
<pdfrwt beam="1">  1        2 0.55088086E-01 0.49181312E+03</pdfrwt>
<pdfrwt beam="2">  1       -2 0.22401984E-01 0.49181312E+03</pdfrwt>
<totfact> 0.15673046E+03</totfact>
</mgrwt>
</event>
<event>
 4    1  0.5531008E-005  0.5392937E+03  0.7818608E-02  0.1004003E+00
         -2   -1    0    0    0  501 -0.00000000000E+00  0.00000000000E+00  0.16563162684E+03  0.16563162686E+03  0.25500000000E-02 0. -1.
          2   -1    0    0  501    0  0.00000000000E+00 -0.00000000000E+00 -0.43898268460E+03  0.43898268460E+03  0.25500000000E-02 0.  1.
    5000001    1    1    2    0    0 -0.18798292031E+03 -0.34412969533E+01 -0.23809076256E+02  0.25127931265E+03  0.16500000000E+03 0.  0.
   -5000001    1    1    2    0    0  0.18798292031E+03  0.34412969533E+01 -0.24954198150E+03  0.35333499881E+03  0.16500000000E+03 0.  0.
<mgrwt>
<rscale>  0 0.53929367E+03</rscale>
<asrwt>0</asrwt>
<pdfrwt beam="1">  1        2 0.62711811E-01 0.53929367E+03</pdfrwt>
<pdfrwt beam="2">  1       -2 0.23661661E-01 0.53929367E+03</pdfrwt>
<totfact> 0.12324562E+03</totfact>
</mgrwt>
</event>
<event>
 4    1  0.5531008E-005  0.6117694E+03  0.7818608E-02  0.9881285E-01
         -2   -1    0    0    0  501 -0.00000000000E+00  0.00000000000E+00  0.92687194054E+02  0.92687194089E+02  0.25500000000E-02 0.  1.
          2   -1    0    0  501    0  0.00000000000E+00 -0.00000000000E+00 -0.10094753360E+04  0.10094753360E+04  0.25500000000E-02 0. -1.
    5000001    1    1    2    0    0 -0.25502580223E+03  0.35866820764E+02 -0.46556609455E+03  0.55704701510E+03  0.16500000000E+03 0.  0.
   -5000001    1    1    2    0    0  0.25502580223E+03 -0.35866820764E+02 -0.45122204743E+03  0.54511551503E+03  0.16500000000E+03 0.  0.
<mgrwt>
<rscale>  0 0.61176936E+03</rscale>
<asrwt>0</asrwt>
<pdfrwt beam="1">  1        2 0.14421076E+00 0.61176936E+03</pdfrwt>
<pdfrwt beam="2">  1       -2 0.13241028E-01 0.61176936E+03</pdfrwt>
<totfact> 0.12031813E+03</totfact>
</mgrwt>
</event>
<event>
 4    1  0.5531008E-005  0.6290776E+03  0.7818608E-02  0.9846850E-01
         -2   -1    0    0    0  501 -0.00000000000E+00  0.00000000000E+00  0.52270226470E+03  0.52270226471E+03  0.25500000000E-02 0. -1.
          2   -1    0    0  501    0  0.00000000000E+00 -0.00000000000E+00 -0.18927536731E+03  0.18927536733E+03  0.25500000000E-02 0.  1.
    5000001    1    1    2    0    0 -0.12997225813E+03 -0.23150615475E+03  0.12715330727E+03  0.33746236993E+03  0.16500000000E+03 0.  0.
   -5000001    1    1    2    0    0  0.12997225813E+03  0.23150615475E+03  0.20627359012E+03  0.37451526211E+03  0.16500000000E+03 0.  0.
<mgrwt>
<rscale>  0 0.62907762E+03</rscale>
<asrwt>0</asrwt>
<pdfrwt beam="1">  1        2 0.27039338E-01 0.62907762E+03</pdfrwt>
<pdfrwt beam="2">  1       -2 0.74671753E-01 0.62907762E+03</pdfrwt>
<totfact> 0.32616299E+02</totfact>
</mgrwt>
</event>
<event>
 4    1  0.5531008E-005  0.4066379E+03  0.7818608E-02  0.1041505E+00
         -2   -1    0    0    0  501 -0.00000000000E+00  0.00000000000E+00  0.37380870101E+02  0.37380870188E+02  0.25500000000E-02 0. -1.
          2   -1    0    0  501    0  0.00000000000E+00 -0.00000000000E+00 -0.11058755238E+04  0.11058755238E+04  0.25500000000E-02 0.  1.
    5000001    1    1    2    0    0  0.59743029766E+02  0.20880862570E+02 -0.25157978772E+03  0.30744532785E+03  0.16500000000E+03 0.  0.
   -5000001    1    1    2    0    0 -0.59743029766E+02 -0.20880862570E+02 -0.81691486601E+03  0.83581106617E+03  0.16500000000E+03 0.  0.
<mgrwt>
<rscale>  0 0.40663787E+03</rscale>
<asrwt>0</asrwt>
<pdfrwt beam="1">  1        2 0.15798220E+00 0.40663787E+03</pdfrwt>
<pdfrwt beam="2">  1       -2 0.53401250E-02 0.40663787E+03</pdfrwt>
<totfact> 0.45003462E+03</totfact>
</mgrwt>
</event>
<event>
 4    1  0.5531008E-005  0.8327351E+03  0.7818608E-02  0.9513807E-01
          2   -1    0    0  501    0  0.00000000000E+00  0.00000000000E+00  0.27619054732E+04  0.27619054732E+04  0.25500000000E-02 0.  1.
         -2   -1    0    0    0  501 -0.00000000000E+00 -0.00000000000E+00 -0.62768967928E+02  0.62768967980E+02  0.25500000000E-02 0. -1.
    5000001    1    1    2    0    0  0.24882408431E+03 -0.26951710073E+03  0.98448494854E+03  0.10634794339E+04  0.16500000000E+03 0.  0.
   -5000001    1    1    2    0    0 -0.24882408431E+03  0.26951710073E+03  0.17146515567E+04  0.17611950073E+04  0.16500000000E+03 0.  0.
<mgrwt>
<rscale>  0 0.83273515E+03</rscale>
<asrwt>0</asrwt>
<pdfrwt beam="1">  1        2 0.39455808E+00 0.83273515E+03</pdfrwt>
<pdfrwt beam="2">  1       -2 0.89669918E-02 0.83273515E+03</pdfrwt>
<totfact> 0.26988839E+02</totfact>
</mgrwt>
</event>
<event>
 4    1  0.5531008E-005  0.4404736E+03  0.7818608E-02  0.1030602E+00
         -2   -1    0    0    0  501 -0.00000000000E+00  0.00000000000E+00  0.14190657565E+03  0.14190657567E+03  0.25500000000E-02 0. -1.
          2   -1    0    0  501    0  0.00000000000E+00 -0.00000000000E+00 -0.34180412410E+03  0.34180412411E+03  0.25500000000E-02 0.  1.
    5000001    1    1    2    0    0 -0.14493377403E+03  0.61773134281E+01 -0.83103739779E+02  0.23489399656E+03  0.16500000000E+03 0.  0.
   -5000001    1    1    2    0    0  0.14493377403E+03 -0.61773134281E+01 -0.11679380867E+03  0.24881670322E+03  0.16500000000E+03 0.  0.
<mgrwt>
<rscale>  0 0.44047362E+03</rscale>
<asrwt>0</asrwt>
<pdfrwt beam="1">  1        2 0.48829160E-01 0.44047362E+03</pdfrwt>
<pdfrwt beam="2">  1       -2 0.20272368E-01 0.44047362E+03</pdfrwt>
<totfact> 0.21284315E+03</totfact>
</mgrwt>
</event>
<event>
 4    1  0.5531008E-005  0.3778406E+03  0.7818608E-02  0.1051735E+00
         -2   -1    0    0    0  501 -0.00000000000E+00  0.00000000000E+00  0.21633344012E+03  0.21633344014E+03  0.25500000000E-02 0. -1.
          2   -1    0    0  501    0  0.00000000000E+00 -0.00000000000E+00 -0.16498090766E+03  0.16498090768E+03  0.25500000000E-02 0.  1.
    5000001    1    1    2    0    0  0.84010252578E+02  0.36859785402E+02  0.32778078115E+02  0.19161359222E+03  0.16500000000E+03 0.  0.
   -5000001    1    1    2    0    0 -0.84010252578E+02 -0.36859785402E+02  0.18574454349E+02  0.18970075559E+03  0.16500000000E+03 0.  0.
<mgrwt>
<rscale>  0 0.37784064E+03</rscale>
<asrwt>0</asrwt>
<pdfrwt beam="1">  1        2 0.23568701E-01 0.37784064E+03</pdfrwt>
<pdfrwt beam="2">  1       -2 0.30904777E-01 0.37784064E+03</pdfrwt>
<totfact> 0.22418123E+03</totfact>
</mgrwt>
</event>
<event>
 4    1  0.5531008E-005  0.4097165E+03  0.7818608E-02  0.1040466E+00
         -2   -1    0    0    0  501 -0.00000000000E+00  0.00000000000E+00  0.23188034094E+02  0.23188034235E+02  0.25500000000E-02 0. -1.
          2   -1    0    0  501    0  0.00000000000E+00 -0.00000000000E+00 -0.18098517837E+04  0.18098517837E+04  0.25500000000E-02 0.  1.
    5000001    1    1    2    0    0  0.61380553972E+02  0.10193373417E+03 -0.78522887480E+03  0.81115192435E+03  0.16500000000E+03 0.  0.
   -5000001    1    1    2    0    0 -0.61380553972E+02 -0.10193373417E+03 -0.10014348748E+04  0.10218878936E+04  0.16500000000E+03 0.  0.
<mgrwt>
<rscale>  0 0.40971651E+03</rscale>
<asrwt>0</asrwt>
<pdfrwt beam="1">  1        2 0.25855017E+00 0.40971651E+03</pdfrwt>
<pdfrwt beam="2">  1       -2 0.33125775E-02 0.40971651E+03</pdfrwt>
<totfact> 0.39941617E+03</totfact>
</mgrwt>
</event>
<event>
 4    1  0.5531008E-005  0.4823961E+03  0.7818608E-02  0.1018479E+00
          2   -1    0    0  501    0  0.00000000000E+00  0.00000000000E+00  0.32865701798E+03  0.32865701799E+03  0.25500000000E-02 0.  1.
         -2   -1    0    0    0  501 -0.00000000000E+00 -0.00000000000E+00 -0.17701276611E+03  0.17701276613E+03  0.25500000000E-02 0. -1.
    5000001    1    1    2    0    0  0.59743664191E+02 -0.12740671106E+03  0.18650873717E+03  0.28602846795E+03  0.16500000000E+03 0.  0.
   -5000001    1    1    2    0    0 -0.59743664191E+02  0.12740671106E+03 -0.34864485298E+02  0.21964131617E+03  0.16500000000E+03 0.  0.
<mgrwt>
<rscale>  0 0.48239605E+03</rscale>
<asrwt>0</asrwt>
<pdfrwt beam="1">  1        2 0.46951002E-01 0.48239605E+03</pdfrwt>
<pdfrwt beam="2">  1       -2 0.25287538E-01 0.48239605E+03</pdfrwt>
<totfact> 0.15066050E+03</totfact>
</mgrwt>
</event>
<event>
 4    1  0.5531008E-005  0.6190095E+03  0.7818608E-02  0.9866734E-01
          2   -1    0    0  501    0  0.00000000000E+00  0.00000000000E+00  0.20360293818E+04  0.20360293818E+04  0.25500000000E-02 0.  1.
         -2   -1    0    0    0  501 -0.00000000000E+00 -0.00000000000E+00 -0.47049021605E+02  0.47049021674E+02  0.25500000000E-02 0. -1.
    5000001    1    1    2    0    0 -0.87538416242E+02 -0.24295116027E+03  0.11403989629E+04  0.11808569071E+04  0.16500000000E+03 0.  0.
   -5000001    1    1    2    0    0  0.87538416242E+02  0.24295116027E+03  0.84858139738E+03  0.90222149641E+03  0.16500000000E+03 0.  0.
<mgrwt>
<rscale>  0 0.61900950E+03</rscale>
<asrwt>0</asrwt>
<pdfrwt beam="1">  1        2 0.29086138E+00 0.61900950E+03</pdfrwt>
<pdfrwt beam="2">  1       -2 0.67212878E-02 0.61900950E+03</pdfrwt>
<totfact> 0.10257561E+03</totfact>
</mgrwt>
</event>
<event>
 4    1  0.5531008E-005  0.1131113E+04  0.7818608E-02  0.9175387E-01
         -2   -1    0    0    0  501 -0.00000000000E+00  0.00000000000E+00  0.27623172522E+03  0.27623172523E+03  0.25500000000E-02 0. -1.
          2   -1    0    0  501    0  0.00000000000E+00 -0.00000000000E+00 -0.11579187030E+04  0.11579187030E+04  0.25500000000E-02 0.  1.
    5000001    1    1    2    0    0  0.49896180172E+03 -0.17616971665E+03 -0.58333682976E+03  0.80467726797E+03  0.16500000000E+03 0.  0.
   -5000001    1    1    2    0    0 -0.49896180172E+03  0.17616971665E+03 -0.29835014800E+03  0.62947316023E+03  0.16500000000E+03 0.  0.
<mgrwt>
<rscale>  0 0.11311125E+04</rscale>
<asrwt>0</asrwt>
<pdfrwt beam="1">  1        2 0.16541696E+00 0.11311125E+04</pdfrwt>
<pdfrwt beam="2">  1       -2 0.39461676E-01 0.11311125E+04</pdfrwt>
<totfact> 0.13584635E+02</totfact>
</mgrwt>
</event>
<event>
 4    1  0.5531008E-005  0.4537742E+03  0.7818608E-02  0.1026602E+00
         -2   -1    0    0    0  501 -0.00000000000E+00  0.00000000000E+00  0.24580872019E+02  0.24580872152E+02  0.25500000000E-02 0. -1.
          2   -1    0    0  501    0  0.00000000000E+00 -0.00000000000E+00 -0.20942204730E+04  0.20942204730E+04  0.25500000000E-02 0.  1.
    5000001    1    1    2    0    0 -0.95366109198E+01  0.12674993514E+03 -0.14549587649E+04  0.14697913119E+04  0.16500000000E+03 0.  0.
   -5000001    1    1    2    0    0  0.95366109198E+01 -0.12674993514E+03 -0.61468083608E+03  0.64901003324E+03  0.16500000000E+03 0.  0.
<mgrwt>
<rscale>  0 0.45377424E+03</rscale>
<asrwt>0</asrwt>
<pdfrwt beam="1">  1        2 0.29917424E+00 0.45377424E+03</pdfrwt>
<pdfrwt beam="2">  1       -2 0.35115545E-02 0.45377424E+03</pdfrwt>
<totfact> 0.26383535E+03</totfact>
</mgrwt>
</event>
<event>
 4    1  0.5531008E-005  0.4900094E+03  0.7818608E-02  0.1016420E+00
         -2   -1    0    0    0  501 -0.00000000000E+00  0.00000000000E+00  0.32593243521E+02  0.32593243621E+02  0.25500000000E-02 0. -1.
          2   -1    0    0  501    0  0.00000000000E+00 -0.00000000000E+00 -0.18417099386E+04  0.18417099386E+04  0.25500000000E-02 0.  1.
    5000001    1    1    2    0    0  0.12874403962E+03 -0.47055223709E+02 -0.13573539726E+04  0.13741994138E+04  0.16500000000E+03 0.  0.
   -5000001    1    1    2    0    0 -0.12874403962E+03  0.47055223709E+02 -0.45176272246E+03  0.50010376845E+03  0.16500000000E+03 0.  0.
<mgrwt>
<rscale>  0 0.49000939E+03</rscale>
<asrwt>0</asrwt>
<pdfrwt beam="1">  1        2 0.26310135E+00 0.49000939E+03</pdfrwt>
<pdfrwt beam="2">  1       -2 0.46561788E-02 0.49000939E+03</pdfrwt>
<totfact> 0.22873451E+03</totfact>
</mgrwt>
</event>
<event>
 4    1  0.5531008E-005  0.4853332E+03  0.7818608E-02  0.1017680E+00
          2   -1    0    0  501    0  0.00000000000E+00  0.00000000000E+00  0.33494005863E+03  0.33494005864E+03  0.25500000000E-02 0.  1.
         -2   -1    0    0    0  501 -0.00000000000E+00 -0.00000000000E+00 -0.17581376776E+03  0.17581376778E+03  0.25500000000E-02 0. -1.
    5000001    1    1    2    0    0  0.16098176775E+03 -0.74781303548E+02  0.92652489877E+02  0.25945492246E+03  0.16500000000E+03 0.  0.
   -5000001    1    1    2    0    0 -0.16098176775E+03  0.74781303548E+02  0.66473800996E+02  0.25129890395E+03  0.16500000000E+03 0.  0.
<mgrwt>
<rscale>  0 0.48533318E+03</rscale>
<asrwt>0</asrwt>
<pdfrwt beam="1">  1        2 0.47848580E-01 0.48533318E+03</pdfrwt>
<pdfrwt beam="2">  1       -2 0.25116253E-01 0.48533318E+03</pdfrwt>
<totfact> 0.14937443E+03</totfact>
</mgrwt>
</event>
<event>
 4    1  0.5531008E-005  0.4430480E+03  0.7818608E-02  0.1029816E+00
          2   -1    0    0  501    0  0.00000000000E+00  0.00000000000E+00  0.16173344604E+04  0.16173344604E+04  0.25500000000E-02 0.  1.
         -2   -1    0    0    0  501 -0.00000000000E+00 -0.00000000000E+00 -0.30341830941E+02  0.30341831048E+02  0.25500000000E-02 0. -1.
    5000001    1    1    2    0    0 -0.13113810117E+03  0.63683650422E+02  0.88421750606E+03  0.91121808967E+03  0.16500000000E+03 0.  0.
   -5000001    1    1    2    0    0  0.13113810117E+03 -0.63683650422E+02  0.70277512342E+03  0.73645820180E+03  0.16500000000E+03 0.  0.
<mgrwt>
<rscale>  0 0.44304803E+03</rscale>
<asrwt>0</asrwt>
<pdfrwt beam="1">  1        2 0.23104779E+00 0.44304803E+03</pdfrwt>
<pdfrwt beam="2">  1       -2 0.43345471E-02 0.44304803E+03</pdfrwt>
<totfact> 0.33140602E+03</totfact>
</mgrwt>
</event>
<event>
 4    1  0.5531008E-005  0.3384164E+03  0.7818608E-02  0.1067472E+00
         -2   -1    0    0    0  501 -0.00000000000E+00  0.00000000000E+00  0.16370171510E+02  0.16370171708E+02  0.25500000000E-02 0. -1.
          2   -1    0    0  501    0  0.00000000000E+00 -0.00000000000E+00 -0.17489987085E+04  0.17489987085E+04  0.25500000000E-02 0.  1.
    5000001    1    1    2    0    0  0.36440423235E+02 -0.30056042812E+00 -0.82012069778E+03  0.83734757043E+03  0.16500000000E+03 0.  0.
   -5000001    1    1    2    0    0 -0.36440423235E+02  0.30056042812E+00 -0.91250783922E+03  0.92802130979E+03  0.16500000000E+03 0.  0.
<mgrwt>
<rscale>  0 0.33841636E+03</rscale>
<asrwt>0</asrwt>
<pdfrwt beam="1">  1        2 0.24985684E+00 0.33841636E+03</pdfrwt>
<pdfrwt beam="2">  1       -2 0.23385970E-02 0.33841636E+03</pdfrwt>
<totfact> 0.72109388E+03</totfact>
</mgrwt>
</event>
<event>
 4    1  0.5531008E-005  0.5263768E+03  0.7818608E-02  0.1007115E+00
          2   -1    0    0  501    0  0.00000000000E+00  0.00000000000E+00  0.55495386937E+03  0.55495386938E+03  0.25500000000E-02 0.  1.
         -2   -1    0    0    0  501 -0.00000000000E+00 -0.00000000000E+00 -0.12481782162E+03  0.12481782165E+03  0.25500000000E-02 0. -1.
    5000001    1    1    2    0    0  0.75879786714E+01  0.20312507044E+03  0.18027731502E+03  0.31787148657E+03  0.16500000000E+03 0.  0.
   -5000001    1    1    2    0    0 -0.75879786714E+01 -0.20312507044E+03  0.24985873273E+03  0.36190020445E+03  0.16500000000E+03 0.  0.
<mgrwt>
<rscale>  0 0.52637680E+03</rscale>
<asrwt>0</asrwt>
<pdfrwt beam="1">  1        2 0.79279125E-01 0.52637680E+03</pdfrwt>
<pdfrwt beam="2">  1       -2 0.17831117E-01 0.52637680E+03</pdfrwt>
<totfact> 0.15477880E+03</totfact>
</mgrwt>
</event>
<event>
 4    1  0.5531008E-005  0.7555642E+03  0.7818608E-02  0.9626661E-01
          2   -1    0    0  501    0  0.00000000000E+00  0.00000000000E+00  0.26966275425E+03  0.26966275426E+03  0.25500000000E-02 0.  1.
         -2   -1    0    0    0  501 -0.00000000000E+00 -0.00000000000E+00 -0.52925114724E+03  0.52925114725E+03  0.25500000000E-02 0. -1.
    5000001    1    1    2    0    0  0.30671236499E+03  0.11584680871E+03 -0.35211734820E+02  0.36872459125E+03  0.16500000000E+03 0.  0.
   -5000001    1    1    2    0    0 -0.30671236499E+03 -0.11584680871E+03 -0.22437665817E+03  0.43018931026E+03  0.16500000000E+03 0.  0.
<mgrwt>
<rscale>  0 0.75556422E+03</rscale>
<asrwt>0</asrwt>
<pdfrwt beam="1">  1        2 0.38523251E-01 0.75556422E+03</pdfrwt>
<pdfrwt beam="2">  1       -2 0.75607306E-01 0.75556422E+03</pdfrwt>
<totfact> 0.21246242E+02</totfact>
</mgrwt>
</event>
<event>
 4    1  0.5531008E-005  0.4032767E+03  0.7818608E-02  0.1042651E+00
         -2   -1    0    0    0  501 -0.00000000000E+00  0.00000000000E+00  0.20982356931E+03  0.20982356933E+03  0.25500000000E-02 0. -1.
          2   -1    0    0  501    0  0.00000000000E+00 -0.00000000000E+00 -0.19377247342E+03  0.19377247344E+03  0.25500000000E-02 0.  1.
    5000001    1    1    2    0    0 -0.16573895969E+02 -0.67946720220E+02 -0.84468303495E+02  0.19811952229E+03  0.16500000000E+03 0.  0.
   -5000001    1    1    2    0    0  0.16573895969E+02  0.67946720220E+02  0.10051939938E+03  0.20547652048E+03  0.16500000000E+03 0.  0.
<mgrwt>
<rscale>  0 0.40327674E+03</rscale>
<asrwt>0</asrwt>
<pdfrwt beam="1">  1        2 0.27681782E-01 0.40327674E+03</pdfrwt>
<pdfrwt beam="2">  1       -2 0.29974796E-01 0.40327674E+03</pdfrwt>
<totfact> 0.19798876E+03</totfact>
</mgrwt>
</event>
<event>
 4    1  0.5531008E-005  0.4543748E+03  0.7818608E-02  0.1026425E+00
         -2   -1    0    0    0  501 -0.00000000000E+00  0.00000000000E+00  0.19111484013E+03  0.19111484014E+03  0.25500000000E-02 0. -1.
          2   -1    0    0  501    0  0.00000000000E+00 -0.00000000000E+00 -0.27006857079E+03  0.27006857081E+03  0.25500000000E-02 0.  1.
    5000001    1    1    2    0    0  0.12857261047E+03  0.42853048189E+02  0.39286278562E+02  0.21710760370E+03  0.16500000000E+03 0.  0.
   -5000001    1    1    2    0    0 -0.12857261047E+03 -0.42853048189E+02 -0.11824000923E+03  0.24407580725E+03  0.16500000000E+03 0.  0.
<mgrwt>
<rscale>  0 0.45437479E+03</rscale>
<asrwt>0</asrwt>
<pdfrwt beam="1">  1        2 0.38581224E-01 0.45437479E+03</pdfrwt>
<pdfrwt beam="2">  1       -2 0.27302120E-01 0.45437479E+03</pdfrwt>
<totfact> 0.16270078E+03</totfact>
</mgrwt>
</event>
<event>
 4    1  0.5531008E-005  0.3731106E+03  0.7818608E-02  0.1053510E+00
          2   -1    0    0  501    0  0.00000000000E+00  0.00000000000E+00  0.13787676374E+04  0.13787676374E+04  0.25500000000E-02 0.  1.
         -2   -1    0    0    0  501 -0.00000000000E+00 -0.00000000000E+00 -0.25242025464E+02  0.25242025593E+02  0.25500000000E-02 0. -1.
    5000001    1    1    2    0    0 -0.15734677790E+02 -0.81459055881E+02  0.57757906222E+03  0.60638744297E+03  0.16500000000E+03 0.  0.
   -5000001    1    1    2    0    0  0.15734677790E+02  0.81459055881E+02  0.77594654969E+03  0.79762222000E+03  0.16500000000E+03 0.  0.
<mgrwt>
<rscale>  0 0.37311064E+03</rscale>
<asrwt>0</asrwt>
<pdfrwt beam="1">  1        2 0.19696684E+00 0.37311064E+03</pdfrwt>
<pdfrwt beam="2">  1       -2 0.36060030E-02 0.37311064E+03</pdfrwt>
<totfact> 0.58121679E+03</totfact>
</mgrwt>
</event>
<event>
 4    1  0.5531008E-005  0.3561989E+03  0.7818608E-02  0.1060099E+00
         -2   -1    0    0    0  501 -0.00000000000E+00  0.00000000000E+00  0.24609412494E+02  0.24609412627E+02  0.25500000000E-02 0. -1.
          2   -1    0    0  501    0  0.00000000000E+00 -0.00000000000E+00 -0.12889141821E+04  0.12889141821E+04  0.25500000000E-02 0.  1.
    5000001    1    1    2    0    0  0.58036153857E+02 -0.24347798866E+02 -0.54698447318E+03  0.57478519846E+03  0.16500000000E+03 0.  0.
   -5000001    1    1    2    0    0 -0.58036153857E+02  0.24347798866E+02 -0.71732029643E+03  0.73873839627E+03  0.16500000000E+03 0.  0.
<mgrwt>
<rscale>  0 0.35619894E+03</rscale>
<asrwt>0</asrwt>
<pdfrwt beam="1">  1        2 0.18413055E+00 0.35619894E+03</pdfrwt>
<pdfrwt beam="2">  1       -2 0.35156312E-02 0.35619894E+03</pdfrwt>
<totfact> 0.67332582E+03</totfact>
</mgrwt>
</event>
<event>
 4    1  0.5531008E-005  0.6370710E+03  0.7818608E-02  0.9831347E-01
         -2   -1    0    0    0  501 -0.00000000000E+00  0.00000000000E+00  0.45978966125E+02  0.45978966196E+02  0.25500000000E-02 0. -1.
          2   -1    0    0  501    0  0.00000000000E+00 -0.00000000000E+00 -0.22067668930E+04  0.22067668930E+04  0.25500000000E-02 0.  1.
    5000001    1    1    2    0    0  0.19887689836E+03 -0.18313661847E+03 -0.96054063534E+03  0.10114120594E+04  0.16500000000E+03 0.  0.
   -5000001    1    1    2    0    0 -0.19887689836E+03  0.18313661847E+03 -0.12002472915E+04  0.12413337998E+04  0.16500000000E+03 0.  0.
<mgrwt>
<rscale>  0 0.63707099E+03</rscale>
<asrwt>0</asrwt>
<pdfrwt beam="1">  1        2 0.31525235E+00 0.63707099E+03</pdfrwt>
<pdfrwt beam="2">  1       -2 0.65684251E-02 0.63707099E+03</pdfrwt>
<totfact> 0.87166359E+02</totfact>
</mgrwt>
</event>
<event>
 4    1  0.5531008E-005  0.7173821E+03  0.7818608E-02  0.9687960E-01
          2   -1    0    0  501    0  0.00000000000E+00  0.00000000000E+00  0.27628373529E+04  0.27628373529E+04  0.25500000000E-02 0.  1.
         -2   -1    0    0    0  501 -0.00000000000E+00 -0.00000000000E+00 -0.46567810299E+02  0.46567810369E+02  0.25500000000E-02 0. -1.
    5000001    1    1    2    0    0 -0.88493681948E+02  0.29799794557E+03  0.16294671079E+04  0.16670398805E+04  0.16500000000E+03 0.  0.
   -5000001    1    1    2    0    0  0.88493681948E+02 -0.29799794557E+03  0.10868024347E+04  0.11423652828E+04  0.16500000000E+03 0.  0.
<mgrwt>
<rscale>  0 0.71738215E+03</rscale>
<asrwt>0</asrwt>
<pdfrwt beam="1">  1        2 0.39469114E+00 0.71738215E+03</pdfrwt>
<pdfrwt beam="2">  1       -2 0.66525429E-02 0.71738215E+03</pdfrwt>
<totfact> 0.43883107E+02</totfact>
</mgrwt>
</event>
<event>
 4    1  0.5531008E-005  0.8815829E+03  0.7818608E-02  0.9448901E-01
          2   -1    0    0  501    0  0.00000000000E+00  0.00000000000E+00  0.11376262031E+04  0.11376262032E+04  0.25500000000E-02 0.  1.
         -2   -1    0    0    0  501 -0.00000000000E+00 -0.00000000000E+00 -0.17079169499E+03  0.17079169501E+03  0.25500000000E-02 0. -1.
    5000001    1    1    2    0    0  0.36115480728E+03 -0.15983730286E+03  0.63972320196E+03  0.76970873279E+03  0.16500000000E+03 0.  0.
   -5000001    1    1    2    0    0 -0.36115480728E+03  0.15983730286E+03  0.32711130620E+03  0.53870916537E+03  0.16500000000E+03 0.  0.
<mgrwt>
<rscale>  0 0.88158291E+03</rscale>
<asrwt>0</asrwt>
<pdfrwt beam="1">  1        2 0.16251803E+00 0.88158291E+03</pdfrwt>
<pdfrwt beam="2">  1       -2 0.24398813E-01 0.88158291E+03</pdfrwt>
<totfact> 0.34796660E+02</totfact>
</mgrwt>
</event>
<event>
 4    1  0.5531008E-005  0.6555317E+03  0.7818608E-02  0.9796454E-01
          2   -1    0    0  501    0  0.00000000000E+00  0.00000000000E+00  0.36954257585E+04  0.36954257585E+04  0.25500000000E-02 0.  1.
         -2   -1    0    0    0  501 -0.00000000000E+00 -0.00000000000E+00 -0.29071195327E+02  0.29071195438E+02  0.25500000000E-02 0. -1.
    5000001    1    1    2    0    0 -0.27735895110E+03  0.48320298085E+02  0.20076143893E+04  0.20339624812E+04  0.16500000000E+03 0.  0.
   -5000001    1    1    2    0    0  0.27735895110E+03 -0.48320298085E+02  0.16587401739E+04  0.16905344727E+04  0.16500000000E+03 0.  0.
<mgrwt>
<rscale>  0 0.65553168E+03</rscale>
<asrwt>0</asrwt>
<pdfrwt beam="1">  1        2 0.52791772E+00 0.65553168E+03</pdfrwt>
<pdfrwt beam="2">  1       -2 0.41530299E-02 0.65553168E+03</pdfrwt>
<totfact> 0.27123433E+02</totfact>
</mgrwt>
</event>
<event>
 4    1  0.5531008E-005  0.1123901E+04  0.7818608E-02  0.9182204E-01
         -2   -1    0    0    0  501 -0.00000000000E+00  0.00000000000E+00  0.26358674917E+03  0.26358674918E+03  0.25500000000E-02 0. -1.
          2   -1    0    0  501    0  0.00000000000E+00 -0.00000000000E+00 -0.11980442251E+04  0.11980442251E+04  0.25500000000E-02 0.  1.
    5000001    1    1    2    0    0  0.19146999501E+03  0.47345821475E+03 -0.25062603367E+03  0.59233592568E+03  0.16500000000E+03 0.  0.
   -5000001    1    1    2    0    0 -0.19146999501E+03 -0.47345821475E+03 -0.68383144228E+03  0.86929504862E+03  0.16500000000E+03 0.  0.
<mgrwt>
<rscale>  0 0.11239014E+04</rscale>
<asrwt>0</asrwt>
<pdfrwt beam="1">  1        2 0.17114917E+00 0.11239014E+04</pdfrwt>
<pdfrwt beam="2">  1       -2 0.37655250E-01 0.11239014E+04</pdfrwt>
<totfact> 0.14115464E+02</totfact>
</mgrwt>
</event>
<event>
 4    1  0.5531008E-005  0.4318949E+03  0.7818608E-02  0.1033263E+00
          2   -1    0    0  501    0  0.00000000000E+00  0.00000000000E+00  0.11833637535E+04  0.11833637535E+04  0.25500000000E-02 0.  1.
         -2   -1    0    0    0  501 -0.00000000000E+00 -0.00000000000E+00 -0.39407413535E+02  0.39407413618E+02  0.25500000000E-02 0. -1.
    5000001    1    1    2    0    0 -0.25204540832E+02  0.12004887226E+03  0.38500672328E+03  0.43646555142E+03  0.16500000000E+03 0.  0.
   -5000001    1    1    2    0    0  0.25204540832E+02 -0.12004887226E+03  0.75894961667E+03  0.78630561568E+03  0.16500000000E+03 0.  0.
<mgrwt>
<rscale>  0 0.43189492E+03</rscale>
<asrwt>0</asrwt>
<pdfrwt beam="1">  1        2 0.16905194E+00 0.43189492E+03</pdfrwt>
<pdfrwt beam="2">  1       -2 0.56296312E-02 0.43189492E+03</pdfrwt>
<totfact> 0.37526238E+03</totfact>
</mgrwt>
</event>
<event>
 4    1  0.5531008E-005  0.7423588E+03  0.7818608E-02  0.9647415E-01
         -2   -1    0    0    0  501 -0.00000000000E+00  0.00000000000E+00  0.41053062980E+02  0.41053063059E+02  0.25500000000E-02 0. -1.
          2   -1    0    0  501    0  0.00000000000E+00 -0.00000000000E+00 -0.33560015056E+04  0.33560015056E+04  0.25500000000E-02 0.  1.
    5000001    1    1    2    0    0  0.90939182449E+02 -0.28084955341E+03 -0.95743563953E+03  0.10154084943E+04  0.16500000000E+03 0.  0.
   -5000001    1    1    2    0    0 -0.90939182449E+02  0.28084955341E+03 -0.23575128031E+04  0.23816460744E+04  0.16500000000E+03 0.  0.
<mgrwt>
<rscale>  0 0.74235878E+03</rscale>
<asrwt>0</asrwt>
<pdfrwt beam="1">  1        2 0.47942861E+00 0.74235878E+03</pdfrwt>
<pdfrwt beam="2">  1       -2 0.58647254E-02 0.74235878E+03</pdfrwt>
<totfact> 0.25082753E+02</totfact>
</mgrwt>
</event>
<event>
 4    1  0.5531008E-005  0.4992189E+03  0.7818608E-02  0.1013983E+00
         -2   -1    0    0    0  501 -0.00000000000E+00  0.00000000000E+00  0.60765499145E+02  0.60765499198E+02  0.25500000000E-02 0. -1.
          2   -1    0    0  501    0  0.00000000000E+00 -0.00000000000E+00 -0.10253330123E+04  0.10253330123E+04  0.25500000000E-02 0.  1.
    5000001    1    1    2    0    0 -0.46832828769E+02  0.17958649170E+03 -0.53711785568E+03  0.59174759209E+03  0.16500000000E+03 0.  0.
   -5000001    1    1    2    0    0  0.46832828769E+02 -0.17958649170E+03 -0.42744965750E+03  0.49435091943E+03  0.16500000000E+03 0.  0.
<mgrwt>
<rscale>  0 0.49921888E+03</rscale>
<asrwt>0</asrwt>
<pdfrwt beam="1">  1        2 0.14647613E+00 0.49921888E+03</pdfrwt>
<pdfrwt beam="2">  1       -2 0.86807862E-02 0.49921888E+03</pdfrwt>
<totfact> 0.23439632E+03</totfact>
</mgrwt>
</event>
<event>
 4    1  0.5531008E-005  0.5470885E+03  0.7818608E-02  0.1002170E+00
          2   -1    0    0  501    0  0.00000000000E+00  0.00000000000E+00  0.90714883574E+03  0.90714883574E+03  0.25500000000E-02 0. -1.
         -2   -1    0    0    0  501 -0.00000000000E+00 -0.00000000000E+00 -0.82485321704E+02  0.82485321743E+02  0.25500000000E-02 0.  1.
    5000001    1    1    2    0    0  0.62073036210E+02  0.18167606876E+03  0.22484791477E+03  0.33858653334E+03  0.16500000000E+03 0.  0.
   -5000001    1    1    2    0    0 -0.62073036210E+02 -0.18167606876E+03  0.59981559926E+03  0.65104762414E+03  0.16500000000E+03 0.  0.
<mgrwt>
<rscale>  0 0.54708853E+03</rscale>
<asrwt>0</asrwt>
<pdfrwt beam="1">  1        2 0.12959270E+00 0.54708853E+03</pdfrwt>
<pdfrwt beam="2">  1       -2 0.11783616E-01 0.54708853E+03</pdfrwt>
<totfact> 0.16910012E+03</totfact>
</mgrwt>
</event>
<event>
 4    1  0.5531008E-005  0.9116306E+03  0.7818608E-02  0.9411158E-01
         -2   -1    0    0    0  501 -0.00000000000E+00  0.00000000000E+00  0.22070229124E+03  0.22070229125E+03  0.25500000000E-02 0. -1.
          2   -1    0    0  501    0  0.00000000000E+00 -0.00000000000E+00 -0.94139288353E+03  0.94139288353E+03  0.25500000000E-02 0.  1.
    5000001    1    1    2    0    0 -0.72348221686E+01  0.35547727090E+03 -0.63775903078E+02  0.39712567103E+03  0.16500000000E+03 0.  0.
   -5000001    1    1    2    0    0  0.72348221686E+01 -0.35547727090E+03 -0.65691468921E+03  0.76496950376E+03  0.16500000000E+03 0.  0.
<mgrwt>
<rscale>  0 0.91163055E+03</rscale>
<asrwt>0</asrwt>
<pdfrwt beam="1">  1        2 0.13448470E+00 0.91163055E+03</pdfrwt>
<pdfrwt beam="2">  1       -2 0.31528899E-01 0.91163055E+03</pdfrwt>
<totfact> 0.28541683E+02</totfact>
</mgrwt>
</event>
<event>
 4    1  0.5531008E-005  0.6232184E+03  0.7818608E-02  0.9858373E-01
         -2   -1    0    0    0  501 -0.00000000000E+00  0.00000000000E+00  0.20466513895E+03  0.20466513896E+03  0.25500000000E-02 0. -1.
          2   -1    0    0  501    0  0.00000000000E+00 -0.00000000000E+00 -0.47443498913E+03  0.47443498914E+03  0.25500000000E-02 0.  1.
    5000001    1    1    2    0    0 -0.13535319533E+03  0.17447796728E+03 -0.29321405668E+03  0.40244568775E+03  0.16500000000E+03 0.  0.
   -5000001    1    1    2    0    0  0.13535319533E+03 -0.17447796728E+03  0.23444206492E+02  0.27665444036E+03  0.16500000000E+03 0.  0.
<mgrwt>
<rscale>  0 0.62321843E+03</rscale>
<asrwt>0</asrwt>
<pdfrwt beam="1">  1        2 0.67776427E-01 0.62321843E+03</pdfrwt>
<pdfrwt beam="2">  1       -2 0.29237877E-01 0.62321843E+03</pdfrwt>
<totfact> 0.76976183E+02</totfact>
</mgrwt>
</event>
<event>
 4    1  0.5531008E-005  0.5322808E+03  0.7818608E-02  0.1005680E+00
         -2   -1    0    0    0  501 -0.00000000000E+00  0.00000000000E+00  0.28755613424E+03  0.28755613425E+03  0.25500000000E-02 0. -1.
          2   -1    0    0  501    0  0.00000000000E+00 -0.00000000000E+00 -0.24631962515E+03  0.24631962517E+03  0.25500000000E-02 0.  1.
    5000001    1    1    2    0    0 -0.19229112332E+03  0.29187520388E+02 -0.55622218881E+02  0.26104907333E+03  0.16500000000E+03 0.  0.
   -5000001    1    1    2    0    0  0.19229112332E+03 -0.29187520388E+02  0.96858727968E+02  0.27282668608E+03  0.16500000000E+03 0.  0.
<mgrwt>
<rscale>  0 0.53228083E+03</rscale>
<asrwt>0</asrwt>
<pdfrwt beam="1">  1        2 0.35188518E-01 0.53228083E+03</pdfrwt>
<pdfrwt beam="2">  1       -2 0.41079448E-01 0.53228083E+03</pdfrwt>
<totfact> 0.83757126E+02</totfact>
</mgrwt>
</event>
<event>
 4    1  0.5531008E-005  0.5518525E+03  0.7818608E-02  0.1001066E+00
          2   -1    0    0  501    0  0.00000000000E+00  0.00000000000E+00  0.22238466925E+03  0.22238466927E+03  0.25500000000E-02 0.  1.
         -2   -1    0    0    0  501 -0.00000000000E+00 -0.00000000000E+00 -0.34235851668E+03  0.34235851669E+03  0.25500000000E-02 0. -1.
    5000001    1    1    2    0    0  0.14009918133E+03  0.14869799108E+03 -0.14664925361E+03  0.30078210842E+03  0.16500000000E+03 0.  0.
   -5000001    1    1    2    0    0 -0.14009918133E+03 -0.14869799108E+03  0.26675406180E+02  0.26396107754E+03  0.16500000000E+03 0.  0.
<mgrwt>
<rscale>  0 0.55185246E+03</rscale>
<asrwt>0</asrwt>
<pdfrwt beam="1">  1        2 0.31769239E-01 0.55185246E+03</pdfrwt>
<pdfrwt beam="2">  1       -2 0.48908359E-01 0.55185246E+03</pdfrwt>
<totfact> 0.66431452E+02</totfact>
</mgrwt>
</event>
<event>
 4    1  0.5531008E-005  0.4608301E+03  0.7818608E-02  0.1024541E+00
         -2   -1    0    0    0  501 -0.00000000000E+00  0.00000000000E+00  0.37311729577E+02  0.37311729664E+02  0.25500000000E-02 0. -1.
          2   -1    0    0  501    0  0.00000000000E+00 -0.00000000000E+00 -0.14229063432E+04  0.14229063432E+04  0.25500000000E-02 0.  1.
    5000001    1    1    2    0    0  0.16030387062E+03 -0.10632563430E+02 -0.66914569943E+03  0.70766612849E+03  0.16500000000E+03 0.  0.
   -5000001    1    1    2    0    0 -0.16030387062E+03  0.10632563430E+02 -0.71644891416E+03  0.75255194435E+03  0.16500000000E+03 0.  0.
<mgrwt>
<rscale>  0 0.46083011E+03</rscale>
<asrwt>0</asrwt>
<pdfrwt beam="1">  1        2 0.20327230E+00 0.46083011E+03</pdfrwt>
<pdfrwt beam="2">  1       -2 0.53302480E-02 0.46083011E+03</pdfrwt>
<totfact> 0.30351111E+03</totfact>
</mgrwt>
</event>
<event>
 4    1  0.5531008E-005  0.4134171E+03  0.7818608E-02  0.1039230E+00
          2   -1    0    0  501    0  0.00000000000E+00  0.00000000000E+00  0.68926929421E+03  0.68926929421E+03  0.25500000000E-02 0.  1.
         -2   -1    0    0    0  501 -0.00000000000E+00 -0.00000000000E+00 -0.61990914264E+02  0.61990914317E+02  0.25500000000E-02 0. -1.
    5000001    1    1    2    0    0  0.12404081475E+03 -0.99058768961E+01  0.30568003030E+03  0.36898445909E+03  0.16500000000E+03 0.  0.
   -5000001    1    1    2    0    0 -0.12404081475E+03  0.99058768961E+01  0.32159834964E+03  0.38227574944E+03  0.16500000000E+03 0.  0.
<mgrwt>
<rscale>  0 0.41341714E+03</rscale>
<asrwt>0</asrwt>
<pdfrwt beam="1">  1        2 0.98467047E-01 0.41341714E+03</pdfrwt>
<pdfrwt beam="2">  1       -2 0.88558445E-02 0.41341714E+03</pdfrwt>
<totfact> 0.37909175E+03</totfact>
</mgrwt>
</event>
<event>
 4    1  0.5531008E-005  0.4324763E+03  0.7818608E-02  0.1033081E+00
          2   -1    0    0  501    0  0.00000000000E+00  0.00000000000E+00  0.40640551556E+04  0.40640551556E+04  0.25500000000E-02 0.  1.
         -2   -1    0    0    0  501 -0.00000000000E+00 -0.00000000000E+00 -0.11505488065E+02  0.11505488348E+02  0.25500000000E-02 0. -1.
    5000001    1    1    2    0    0  0.79420457747E+02  0.93306857760E+02  0.26598555323E+04  0.26677837678E+04  0.16500000000E+03 0.  0.
   -5000001    1    1    2    0    0 -0.79420457747E+02 -0.93306857760E+02  0.13926941352E+04  0.14077768762E+04  0.16500000000E+03 0.  0.
<mgrwt>
<rscale>  0 0.43247631E+03</rscale>
<asrwt>0</asrwt>
<pdfrwt beam="1">  1        2 0.58058123E+00 0.43247631E+03</pdfrwt>
<pdfrwt beam="2">  1       -2 0.16436357E-02 0.43247631E+03</pdfrwt>
<totfact> 0.65660486E+02</totfact>
</mgrwt>
</event>
<event>
 4    1  0.5531008E-005  0.4606253E+03  0.7818608E-02  0.1024600E+00
          2   -1    0    0  501    0  0.00000000000E+00  0.00000000000E+00  0.29175882452E+04  0.29175882452E+04  0.25500000000E-02 0.  1.
         -2   -1    0    0    0  501 -0.00000000000E+00 -0.00000000000E+00 -0.18180743551E+02  0.18180743730E+02  0.25500000000E-02 0. -1.
    5000001    1    1    2    0    0 -0.12509512734E+03 -0.84558306150E+02  0.10994527412E+04  0.11219715808E+04  0.16500000000E+03 0.  0.
   -5000001    1    1    2    0    0  0.12509512734E+03  0.84558306150E+02  0.17999547604E+04  0.18137974081E+04  0.16500000000E+03 0.  0.
<mgrwt>
<rscale>  0 0.46062533E+03</rscale>
<asrwt>0</asrwt>
<pdfrwt beam="1">  1        2 0.41679876E+00 0.46062533E+03</pdfrwt>
<pdfrwt beam="2">  1       -2 0.25972463E-02 0.46062533E+03</pdfrwt>
<totfact> 0.15790045E+03</totfact>
</mgrwt>
</event>
<event>
 4    1  0.5531008E-005  0.4087735E+03  0.7818608E-02  0.1040783E+00
         -2   -1    0    0    0  501 -0.00000000000E+00  0.00000000000E+00  0.21569282753E+02  0.21569282904E+02  0.25500000000E-02 0. -1.
          2   -1    0    0  501    0  0.00000000000E+00 -0.00000000000E+00 -0.19367331109E+04  0.19367331109E+04  0.25500000000E-02 0.  1.
    5000001    1    1    2    0    0 -0.10373318064E+03 -0.59686374986E+02 -0.88557686863E+03  0.90873231833E+03  0.16500000000E+03 0.  0.
   -5000001    1    1    2    0    0  0.10373318064E+03  0.59686374986E+02 -0.10295869595E+04  0.10495700755E+04  0.16500000000E+03 0.  0.
<mgrwt>
<rscale>  0 0.40877350E+03</rscale>
<asrwt>0</asrwt>
<pdfrwt beam="1">  1        2 0.27667605E+00 0.40877350E+03</pdfrwt>
<pdfrwt beam="2">  1       -2 0.30813273E-02 0.40877350E+03</pdfrwt>
<totfact> 0.38536963E+03</totfact>
</mgrwt>
</event>
<event>
 4    1  0.5531008E-005  0.4316902E+03  0.7818608E-02  0.1033327E+00
          2   -1    0    0  501    0  0.00000000000E+00  0.00000000000E+00  0.15712761283E+04  0.15712761283E+04  0.25500000000E-02 0.  1.
         -2   -1    0    0    0  501 -0.00000000000E+00 -0.00000000000E+00 -0.29650489701E+02  0.29650489811E+02  0.25500000000E-02 0. -1.
    5000001    1    1    2    0    0 -0.42378481710E+02  0.13251001675E+03  0.75952377743E+03  0.78959243203E+03  0.16500000000E+03 0.  0.
   -5000001    1    1    2    0    0  0.42378481710E+02 -0.13251001675E+03  0.78210186117E+03  0.81133418607E+03  0.16500000000E+03 0.  0.
<mgrwt>
<rscale>  0 0.43169020E+03</rscale>
<asrwt>0</asrwt>
<pdfrwt beam="1">  1        2 0.22446802E+00 0.43169020E+03</pdfrwt>
<pdfrwt beam="2">  1       -2 0.42357842E-02 0.43169020E+03</pdfrwt>
<totfact> 0.36233559E+03</totfact>
</mgrwt>
</event>
<event>
 4    1  0.5531008E-005  0.5643147E+03  0.7818608E-02  0.9982339E-01
         -2   -1    0    0    0  501 -0.00000000000E+00  0.00000000000E+00  0.59868234401E+02  0.59868234455E+02  0.25500000000E-02 0. -1.
          2   -1    0    0  501    0  0.00000000000E+00 -0.00000000000E+00 -0.13297998507E+04  0.13297998507E+04  0.25500000000E-02 0.  1.
    5000001    1    1    2    0    0 -0.12507575548E+03 -0.18472643259E+03 -0.76101435907E+03  0.81002200848E+03  0.16500000000E+03 0.  0.
   -5000001    1    1    2    0    0  0.12507575548E+03  0.18472643259E+03 -0.50891725725E+03  0.57964607670E+03  0.16500000000E+03 0.  0.
<mgrwt>
<rscale>  0 0.56431470E+03</rscale>
<asrwt>0</asrwt>
<pdfrwt beam="1">  1        2 0.18997139E+00 0.56431470E+03</pdfrwt>
<pdfrwt beam="2">  1       -2 0.85526057E-02 0.56431470E+03</pdfrwt>
<totfact> 0.16147039E+03</totfact>
</mgrwt>
</event>
<event>
 4    1  0.5531008E-005  0.6357061E+03  0.7818608E-02  0.9833977E-01
         -2   -1    0    0    0  501 -0.00000000000E+00  0.00000000000E+00  0.43554045995E+02  0.43554046070E+02  0.25500000000E-02 0. -1.
          2   -1    0    0  501    0  0.00000000000E+00 -0.00000000000E+00 -0.23196594155E+04  0.23196594155E+04  0.25500000000E-02 0.  1.
    5000001    1    1    2    0    0 -0.18690534467E+03  0.19501559037E+03 -0.12458504181E+04  0.12854310377E+04  0.16500000000E+03 0.  0.
   -5000001    1    1    2    0    0  0.18690534467E+03 -0.19501559037E+03 -0.10302549514E+04  0.10777824239E+04  0.16500000000E+03 0.  0.
<mgrwt>
<rscale>  0 0.63570607E+03</rscale>
<asrwt>0</asrwt>
<pdfrwt beam="1">  1        2 0.33137984E+00 0.63570607E+03</pdfrwt>
<pdfrwt beam="2">  1       -2 0.62220080E-02 0.63570607E+03</pdfrwt>
<totfact> 0.83230091E+02</totfact>
</mgrwt>
</event>
<event>
 4    1  0.5531008E-005  0.1246208E+04  0.7818608E-02  0.9073345E-01
         -2   -1    0    0    0  501 -0.00000000000E+00  0.00000000000E+00  0.11302277741E+03  0.11302277744E+03  0.25500000000E-02 0. -1.
          2   -1    0    0  501    0  0.00000000000E+00 -0.00000000000E+00 -0.34352258018E+04  0.34352258018E+04  0.25500000000E-02 0.  1.
    5000001    1    1    2    0    0  0.42393625596E+03 -0.38451646259E+03 -0.21819114381E+04  0.22617553764E+04  0.16500000000E+03 0.  0.
   -5000001    1    1    2    0    0 -0.42393625596E+03  0.38451646259E+03 -0.11402915863E+04  0.12864932028E+04  0.16500000000E+03 0.  0.
<mgrwt>
<rscale>  0 0.12462083E+04</rscale>
<asrwt>0</asrwt>
<pdfrwt beam="1">  1        2 0.49074648E+00 0.12462083E+04</pdfrwt>
<pdfrwt beam="2">  1       -2 0.16146113E-01 0.12462083E+04</pdfrwt>
<totfact> 0.40847906E+01</totfact>
</mgrwt>
</event>
<event>
 4    1  0.5531008E-005  0.4748679E+03  0.7818608E-02  0.1020555E+00
          2   -1    0    0  501    0  0.00000000000E+00  0.00000000000E+00  0.78516516045E+03  0.78516516046E+03  0.25500000000E-02 0.  1.
         -2   -1    0    0    0  501 -0.00000000000E+00 -0.00000000000E+00 -0.71800025968E+02  0.71800026013E+02  0.25500000000E-02 0. -1.
    5000001    1    1    2    0    0  0.10917527986E+03  0.33671830567E+02  0.58564316701E+03  0.61907669393E+03  0.16500000000E+03 0.  0.
   -5000001    1    1    2    0    0 -0.10917527986E+03 -0.33671830567E+02  0.12772196748E+03  0.23788849254E+03  0.16500000000E+03 0.  0.
<mgrwt>
<rscale>  0 0.47486789E+03</rscale>
<asrwt>0</asrwt>
<pdfrwt beam="1">  1        2 0.11216645E+00 0.47486789E+03</pdfrwt>
<pdfrwt beam="2">  1       -2 0.10257147E-01 0.47486789E+03</pdfrwt>
<totfact> 0.25557865E+03</totfact>
</mgrwt>
</event>
<event>
 4    1  0.5531008E-005  0.5338927E+03  0.7818608E-02  0.1005292E+00
          2   -1    0    0  501    0  0.00000000000E+00  0.00000000000E+00  0.22431158389E+04  0.22431158389E+04  0.25500000000E-02 0.  1.
         -2   -1    0    0    0  501 -0.00000000000E+00 -0.00000000000E+00 -0.31768469721E+02  0.31768469823E+02  0.25500000000E-02 0. -1.
    5000001    1    1    2    0    0  0.11239918901E+02  0.19393127670E+03  0.14438666965E+04  0.14661895216E+04  0.16500000000E+03 0.  0.
   -5000001    1    1    2    0    0 -0.11239918901E+02 -0.19393127670E+03  0.76748067270E+03  0.80869478719E+03  0.16500000000E+03 0.  0.
<mgrwt>
<rscale>  0 0.53389271E+03</rscale>
<asrwt>0</asrwt>
<pdfrwt beam="1">  1        2 0.32044529E+00 0.53389271E+03</pdfrwt>
<pdfrwt beam="2">  1       -2 0.45383505E-02 0.53389271E+03</pdfrwt>
<totfact> 0.14958300E+03</totfact>
</mgrwt>
</event>
<event>
 4    1  0.5531008E-005  0.6368634E+03  0.7818608E-02  0.9831746E-01
         -2   -1    0    0    0  501 -0.00000000000E+00  0.00000000000E+00  0.65096754941E+02  0.65096754991E+02  0.25500000000E-02 0. -1.
          2   -1    0    0  501    0  0.00000000000E+00 -0.00000000000E+00 -0.15576621795E+04  0.15576621795E+04  0.25500000000E-02 0.  1.
    5000001    1    1    2    0    0  0.15228325125E+03  0.12797994614E+03 -0.27228610031E+03  0.37541147511E+03  0.16500000000E+03 0.  0.
   -5000001    1    1    2    0    0 -0.15228325125E+03 -0.12797994614E+03 -0.12202793242E+04  0.12473474593E+04  0.16500000000E+03 0.  0.
<mgrwt>
<rscale>  0 0.63686342E+03</rscale>
<asrwt>0</asrwt>
<pdfrwt beam="1">  1        2 0.22252315E+00 0.63686342E+03</pdfrwt>
<pdfrwt beam="2">  1       -2 0.92995374E-02 0.63686342E+03</pdfrwt>
<totfact> 0.10678651E+03</totfact>
</mgrwt>
</event>
<event>
 4    1  0.5531008E-005  0.8447096E+03  0.7818608E-02  0.9497465E-01
         -2   -1    0    0    0  501 -0.00000000000E+00  0.00000000000E+00  0.13499184015E+03  0.13499184018E+03  0.25500000000E-02 0. -1.
          2   -1    0    0  501    0  0.00000000000E+00 -0.00000000000E+00 -0.13214398205E+04  0.13214398205E+04  0.25500000000E-02 0.  1.
    5000001    1    1    2    0    0 -0.19277310646E+03  0.29686295530E+03 -0.87054115303E+03  0.95412576945E+03  0.16500000000E+03 0.  0.
   -5000001    1    1    2    0    0  0.19277310646E+03 -0.29686295530E+03 -0.31590682726E+03  0.50230589118E+03  0.16500000000E+03 0.  0.
<mgrwt>
<rscale>  0 0.84470964E+03</rscale>
<asrwt>0</asrwt>
<pdfrwt beam="1">  1        2 0.18877711E+00 0.84470964E+03</pdfrwt>
<pdfrwt beam="2">  1       -2 0.19284549E-01 0.84470964E+03</pdfrwt>
<totfact> 0.41678452E+02</totfact>
</mgrwt>
</event>
<event>
 4    1  0.5531008E-005  0.9930449E+03  0.7818608E-02  0.9316206E-01
          2   -1    0    0  501    0  0.00000000000E+00  0.00000000000E+00  0.11688997070E+04  0.11688997070E+04  0.25500000000E-02 0.  1.
         -2   -1    0    0    0  501 -0.00000000000E+00 -0.00000000000E+00 -0.21091164138E+03  0.21091164140E+03  0.25500000000E-02 0. -1.
    5000001    1    1    2    0    0 -0.67135161410E+02 -0.39752399838E+03  0.81007743281E+03  0.91977329073E+03  0.16500000000E+03 0.  0.
   -5000001    1    1    2    0    0  0.67135161410E+02  0.39752399838E+03  0.14791063277E+03  0.46003805764E+03  0.16500000000E+03 0.  0.
<mgrwt>
<rscale>  0 0.99304493E+03</rscale>
<asrwt>0</asrwt>
<pdfrwt beam="1">  1        2 0.16698568E+00 0.99304493E+03</pdfrwt>
<pdfrwt beam="2">  1       -2 0.30130233E-01 0.99304493E+03</pdfrwt>
<totfact> 0.22557501E+02</totfact>
</mgrwt>
</event>
<event>
 4    1  0.5531008E-005  0.5037166E+03  0.7818608E-02  0.1012813E+00
         -2   -1    0    0    0  501 -0.00000000000E+00  0.00000000000E+00  0.38273750897E+02  0.38273750982E+02  0.25500000000E-02 0. -1.
          2   -1    0    0  501    0  0.00000000000E+00 -0.00000000000E+00 -0.16573397908E+04  0.16573397908E+04  0.25500000000E-02 0.  1.
    5000001    1    1    2    0    0  0.68173661172E+02  0.76131280601E+02 -0.13498481802E+04  0.13637297128E+04  0.16500000000E+03 0.  0.
   -5000001    1    1    2    0    0 -0.68173661172E+02 -0.76131280601E+02 -0.26921785970E+03  0.33188382899E+03  0.16500000000E+03 0.  0.
<mgrwt>
<rscale>  0 0.50371663E+03</rscale>
<asrwt>0</asrwt>
<pdfrwt beam="1">  1        2 0.23676278E+00 0.50371663E+03</pdfrwt>
<pdfrwt beam="2">  1       -2 0.54676797E-02 0.50371663E+03</pdfrwt>
<totfact> 0.22087328E+03</totfact>
</mgrwt>
</event>
<event>
 4    1  0.5531008E-005  0.6175562E+03  0.7818608E-02  0.9869637E-01
          2   -1    0    0  501    0  0.00000000000E+00  0.00000000000E+00  0.11783411112E+04  0.11783411112E+04  0.25500000000E-02 0.  1.
         -2   -1    0    0    0  501 -0.00000000000E+00 -0.00000000000E+00 -0.80913670858E+02  0.80913670898E+02  0.25500000000E-02 0. -1.
    5000001    1    1    2    0    0 -0.10051367601E+03 -0.23007753568E+03  0.40337578799E+03  0.50296689536E+03  0.16500000000E+03 0.  0.
   -5000001    1    1    2    0    0  0.10051367601E+03  0.23007753568E+03  0.69405165231E+03  0.75628788670E+03  0.16500000000E+03 0.  0.
<mgrwt>
<rscale>  0 0.61755617E+03</rscale>
<asrwt>0</asrwt>
<pdfrwt beam="1">  1        2 0.16833442E+00 0.61755617E+03</pdfrwt>
<pdfrwt beam="2">  1       -2 0.11559097E-01 0.61755617E+03</pdfrwt>
<totfact> 0.11995379E+03</totfact>
</mgrwt>
</event>
<event>
 4    1  0.5531008E-005  0.3616212E+03  0.7818608E-02  0.1057944E+00
          2   -1    0    0  501    0  0.00000000000E+00  0.00000000000E+00  0.16122886532E+04  0.16122886532E+04  0.25500000000E-02 0.  1.
         -2   -1    0    0    0  501 -0.00000000000E+00 -0.00000000000E+00 -0.20277061137E+02  0.20277061297E+02  0.25500000000E-02 0. -1.
    5000001    1    1    2    0    0 -0.61449936925E+02 -0.39246603343E+02  0.85149744018E+03  0.87039604851E+03  0.16500000000E+03 0.  0.
   -5000001    1    1    2    0    0  0.61449936925E+02  0.39246603343E+02  0.74051415191E+03  0.76216966602E+03  0.16500000000E+03 0.  0.
<mgrwt>
<rscale>  0 0.36162121E+03</rscale>
<asrwt>0</asrwt>
<pdfrwt beam="1">  1        2 0.23032692E+00 0.36162121E+03</pdfrwt>
<pdfrwt beam="2">  1       -2 0.28967234E-02 0.36162121E+03</pdfrwt>
<totfact> 0.61340826E+03</totfact>
</mgrwt>
</event>
<event>
 4    1  0.5531008E-005  0.1278909E+04  0.7818608E-02  0.9046459E-01
         -2   -1    0    0    0  501 -0.00000000000E+00  0.00000000000E+00  0.26542391253E+03  0.26542391254E+03  0.25500000000E-02 0. -1.
          2   -1    0    0  501    0  0.00000000000E+00 -0.00000000000E+00 -0.15405633322E+04  0.15405633322E+04  0.25500000000E-02 0.  1.
    5000001    1    1    2    0    0 -0.23148040980E+03  0.52492812673E+03 -0.31387243333E+03  0.67444319461E+03  0.16500000000E+03 0.  0.
   -5000001    1    1    2    0    0  0.23148040980E+03 -0.52492812673E+03 -0.96126698636E+03  0.11315440501E+04  0.16500000000E+03 0.  0.
<mgrwt>
<rscale>  0 0.12789095E+04</rscale>
<asrwt>0</asrwt>
<pdfrwt beam="1">  1        2 0.22008047E+00 0.12789095E+04</pdfrwt>
<pdfrwt beam="2">  1       -2 0.37917703E-01 0.12789095E+04</pdfrwt>
<totfact> 0.89608499E+01</totfact>
</mgrwt>
</event>
<event>
 4    1  0.5531008E-005  0.6957062E+03  0.7818608E-02  0.9724603E-01
          2   -1    0    0  501    0  0.00000000000E+00  0.00000000000E+00  0.34049225518E+04  0.34049225518E+04  0.25500000000E-02 0.  1.
         -2   -1    0    0    0  501 -0.00000000000E+00 -0.00000000000E+00 -0.35537310912E+02  0.35537311003E+02  0.25500000000E-02 0. -1.
    5000001    1    1    2    0    0  0.22759577274E+03 -0.15192183072E+03  0.23644966499E+04  0.23859902526E+04  0.16500000000E+03 0.  0.
   -5000001    1    1    2    0    0 -0.22759577274E+03  0.15192183072E+03  0.10048885910E+04  0.10544696102E+04  0.16500000000E+03 0.  0.
<mgrwt>
<rscale>  0 0.69570624E+03</rscale>
<asrwt>0</asrwt>
<pdfrwt beam="1">  1        2 0.48641758E+00 0.69570624E+03</pdfrwt>
<pdfrwt beam="2">  1       -2 0.50767579E-02 0.69570624E+03</pdfrwt>
<totfact> 0.29585788E+02</totfact>
</mgrwt>
</event>
<event>
 4    1  0.5531008E-005  0.3954731E+03  0.7818608E-02  0.1045359E+00
         -2   -1    0    0    0  501 -0.00000000000E+00  0.00000000000E+00  0.81902380695E+02  0.81902380734E+02  0.25500000000E-02 0. -1.
          2   -1    0    0  501    0  0.00000000000E+00 -0.00000000000E+00 -0.47739448538E+03  0.47739448538E+03  0.25500000000E-02 0.  1.
    5000001    1    1    2    0    0  0.90557179283E+02 -0.35384998367E+02 -0.12814489704E+03  0.23043180220E+03  0.16500000000E+03 0.  0.
   -5000001    1    1    2    0    0 -0.90557179283E+02  0.35384998367E+02 -0.26734720764E+03  0.32886506392E+03  0.16500000000E+03 0.  0.
<mgrwt>
<rscale>  0 0.39547311E+03</rscale>
<asrwt>0</asrwt>
<pdfrwt beam="1">  1        2 0.68199210E-01 0.39547311E+03</pdfrwt>
<pdfrwt beam="2">  1       -2 0.11700340E-01 0.39547311E+03</pdfrwt>
<totfact> 0.36953677E+03</totfact>
</mgrwt>
</event>
<event>
 4    1  0.5531008E-005  0.4658278E+03  0.7818608E-02  0.1023104E+00
          2   -1    0    0  501    0  0.00000000000E+00  0.00000000000E+00  0.16499678832E+04  0.16499678832E+04  0.25500000000E-02 0.  1.
         -2   -1    0    0    0  501 -0.00000000000E+00 -0.00000000000E+00 -0.32878751589E+02  0.32878751688E+02  0.25500000000E-02 0. -1.
    5000001    1    1    2    0    0 -0.70329929708E+02 -0.13220619717E+03  0.10535388085E+04  0.10768443706E+04  0.16500000000E+03 0.  0.
   -5000001    1    1    2    0    0  0.70329929708E+02  0.13220619717E+03  0.56355032310E+03  0.60600226423E+03  0.16500000000E+03 0.  0.
<mgrwt>
<rscale>  0 0.46582780E+03</rscale>
<asrwt>0</asrwt>
<pdfrwt beam="1">  1        2 0.23570965E+00 0.46582780E+03</pdfrwt>
<pdfrwt beam="2">  1       -2 0.46969655E-02 0.46582780E+03</pdfrwt>
<totfact> 0.28196012E+03</totfact>
</mgrwt>
</event>
<event>
 4    1  0.5531008E-005  0.5040572E+03  0.7818608E-02  0.1012725E+00
         -2   -1    0    0    0  501 -0.00000000000E+00  0.00000000000E+00  0.68674795006E+02  0.68674795053E+02  0.25500000000E-02 0. -1.
          2   -1    0    0  501    0  0.00000000000E+00 -0.00000000000E+00 -0.92491614912E+03  0.92491614913E+03  0.25500000000E-02 0.  1.
    5000001    1    1    2    0    0 -0.67445966540E+02 -0.17487923210E+03 -0.36093464272E+03  0.43889693612E+03  0.16500000000E+03 0.  0.
   -5000001    1    1    2    0    0  0.67445966540E+02  0.17487923210E+03 -0.49530671140E+03  0.55469400806E+03  0.16500000000E+03 0.  0.
<mgrwt>
<rscale>  0 0.50405725E+03</rscale>
<asrwt>0</asrwt>
<pdfrwt beam="1">  1        2 0.13213087E+00 0.50405725E+03</pdfrwt>
<pdfrwt beam="2">  1       -2 0.98106856E-02 0.50405725E+03</pdfrwt>
<totfact> 0.22198867E+03</totfact>
</mgrwt>
</event>
<event>
 4    1  0.5531008E-005  0.8292622E+03  0.7818608E-02  0.9518601E-01
         -2   -1    0    0    0  501 -0.00000000000E+00  0.00000000000E+00  0.23273522607E+03  0.23273522609E+03  0.25500000000E-02 0. -1.
          2   -1    0    0  501    0  0.00000000000E+00 -0.00000000000E+00 -0.73868905879E+03  0.73868905880E+03  0.25500000000E-02 0.  1.
    5000001    1    1    2    0    0  0.47029254820E+02 -0.37600320123E+03 -0.21405774093E+03  0.46544159096E+03  0.16500000000E+03 0.  0.
   -5000001    1    1    2    0    0 -0.47029254820E+02  0.37600320123E+03 -0.29189609179E+03  0.50598269392E+03  0.16500000000E+03 0.  0.
<mgrwt>
<rscale>  0 0.82926224E+03</rscale>
<asrwt>0</asrwt>
<pdfrwt beam="1">  1        2 0.10552701E+00 0.82926224E+03</pdfrwt>
<pdfrwt beam="2">  1       -2 0.33247890E-01 0.82926224E+03</pdfrwt>
<totfact> 0.35647134E+02</totfact>
</mgrwt>
</event>
<event>
 4    1  0.5531008E-005  0.6228101E+03  0.7818608E-02  0.9859181E-01
          2   -1    0    0  501    0  0.00000000000E+00  0.00000000000E+00  0.91727842466E+03  0.91727842466E+03  0.25500000000E-02 0.  1.
         -2   -1    0    0    0  501 -0.00000000000E+00 -0.00000000000E+00 -0.10571827890E+03  0.10571827893E+03  0.25500000000E-02 0. -1.
    5000001    1    1    2    0    0 -0.14936876140E+03  0.21534508418E+03  0.45934745942E+03  0.55399424242E+03  0.16500000000E+03 0.  0.
   -5000001    1    1    2    0    0  0.14936876140E+03 -0.21534508418E+03  0.35221268634E+03  0.46900246117E+03  0.16500000000E+03 0.  0.
<mgrwt>
<rscale>  0 0.62281007E+03</rscale>
<asrwt>0</asrwt>
<pdfrwt beam="1">  1        2 0.13103977E+00 0.62281007E+03</pdfrwt>
<pdfrwt beam="2">  1       -2 0.15102612E-01 0.62281007E+03</pdfrwt>
<totfact> 0.11014431E+03</totfact>
</mgrwt>
</event>
<event>
 4    1  0.5531008E-005  0.6171351E+03  0.7818608E-02  0.9870480E-01
         -2   -1    0    0    0  501 -0.00000000000E+00  0.00000000000E+00  0.57377649733E+02  0.57377649790E+02  0.25500000000E-02 0. -1.
          2   -1    0    0  501    0  0.00000000000E+00 -0.00000000000E+00 -0.16594255608E+04  0.16594255608E+04  0.25500000000E-02 0.  1.
    5000001    1    1    2    0    0  0.17370713219E+02 -0.15933059368E+03 -0.22886676292E+03  0.32448879014E+03  0.16500000000E+03 0.  0.
   -5000001    1    1    2    0    0 -0.17370713219E+02  0.15933059368E+03 -0.13731811481E+04  0.13923144204E+04  0.16500000000E+03 0.  0.
<mgrwt>
<rscale>  0 0.61713512E+03</rscale>
<asrwt>0</asrwt>
<pdfrwt beam="1">  1        2 0.23706076E+00 0.61713512E+03</pdfrwt>
<pdfrwt beam="2">  1       -2 0.81968081E-02 0.61713512E+03</pdfrwt>
<totfact> 0.11602411E+03</totfact>
</mgrwt>
</event>
<event>
 4    1  0.5531008E-005  0.5643600E+03  0.7818608E-02  0.9982237E-01
          2   -1    0    0  501    0  0.00000000000E+00  0.00000000000E+00  0.38203105352E+04  0.38203105352E+04  0.25500000000E-02 0.  1.
         -2   -1    0    0    0  501 -0.00000000000E+00 -0.00000000000E+00 -0.20842690657E+02  0.20842690813E+02  0.25500000000E-02 0. -1.
    5000001    1    1    2    0    0 -0.14400996849E+03  0.51051055855E+01  0.31103141360E+04  0.31180192363E+04  0.16500000000E+03 0.  0.
   -5000001    1    1    2    0    0  0.14400996849E+03 -0.51051055855E+01  0.68915370852E+03  0.72313398973E+03  0.16500000000E+03 0.  0.
<mgrwt>
<rscale>  0 0.56436000E+03</rscale>
<asrwt>0</asrwt>
<pdfrwt beam="1">  1        2 0.54575871E+00 0.56436000E+03</pdfrwt>
<pdfrwt beam="2">  1       -2 0.29775269E-02 0.56436000E+03</pdfrwt>
<totfact> 0.38110481E+02</totfact>
</mgrwt>
</event>
<event>
 4    1  0.5531008E-005  0.5688647E+03  0.7818608E-02  0.9972194E-01
          2   -1    0    0  501    0  0.00000000000E+00  0.00000000000E+00  0.20688560363E+04  0.20688560364E+04  0.25500000000E-02 0.  1.
         -2   -1    0    0    0  501 -0.00000000000E+00 -0.00000000000E+00 -0.39104586916E+02  0.39104586999E+02  0.25500000000E-02 0. -1.
    5000001    1    1    2    0    0  0.88576674469E+02  0.11346705052E+03  0.16875763412E+04  0.17017225115E+04  0.16500000000E+03 0.  0.
   -5000001    1    1    2    0    0 -0.88576674469E+02 -0.11346705052E+03  0.34217510824E+03  0.40623811184E+03  0.16500000000E+03 0.  0.
<mgrwt>
<rscale>  0 0.56886470E+03</rscale>
<asrwt>0</asrwt>
<pdfrwt beam="1">  1        2 0.29555101E+00 0.56886470E+03</pdfrwt>
<pdfrwt beam="2">  1       -2 0.55863668E-02 0.56886470E+03</pdfrwt>
<totfact> 0.13233999E+03</totfact>
</mgrwt>
</event>
<event>
 4    1  0.5531008E-005  0.4292492E+03  0.7818608E-02  0.1034097E+00
          2   -1    0    0  501    0  0.00000000000E+00  0.00000000000E+00  0.21112826639E+04  0.21112826639E+04  0.25500000000E-02 0.  1.
         -2   -1    0    0    0  501 -0.00000000000E+00 -0.00000000000E+00 -0.21817879213E+02  0.21817879362E+02  0.25500000000E-02 0. -1.
    5000001    1    1    2    0    0 -0.53147189662E+02  0.12339090222E+03  0.90516705929E+03  0.92983995598E+03  0.16500000000E+03 0.  0.
   -5000001    1    1    2    0    0  0.53147189662E+02 -0.12339090222E+03  0.11842977254E+04  0.12032605873E+04  0.16500000000E+03 0.  0.
<mgrwt>
<rscale>  0 0.42924916E+03</rscale>
<asrwt>0</asrwt>
<pdfrwt beam="1">  1        2 0.30161176E+00 0.42924916E+03</pdfrwt>
<pdfrwt beam="2">  1       -2 0.31168404E-02 0.42924916E+03</pdfrwt>
<totfact> 0.31018725E+03</totfact>
</mgrwt>
</event>
<event>
 4    1  0.5531008E-005  0.4606409E+03  0.7818608E-02  0.1024596E+00
          2   -1    0    0  501    0  0.00000000000E+00  0.00000000000E+00  0.18640830748E+04  0.18640830748E+04  0.25500000000E-02 0.  1.
         -2   -1    0    0    0  501 -0.00000000000E+00 -0.00000000000E+00 -0.28457694409E+02  0.28457694523E+02  0.25500000000E-02 0. -1.
    5000001    1    1    2    0    0  0.13289760824E+03 -0.76012873358E+02  0.71726192860E+03  0.75175089319E+03  0.16500000000E+03 0.  0.
   -5000001    1    1    2    0    0 -0.13289760824E+03  0.76012873358E+02  0.11183634518E+04  0.11407898762E+04  0.16500000000E+03 0.  0.
<mgrwt>
<rscale>  0 0.46064089E+03</rscale>
<asrwt>0</asrwt>
<pdfrwt beam="1">  1        2 0.26629766E+00 0.46064089E+03</pdfrwt>
<pdfrwt beam="2">  1       -2 0.40653838E-02 0.46064089E+03</pdfrwt>
<totfact> 0.27472115E+03</totfact>
</mgrwt>
</event>
<event>
 4    1  0.5531008E-005  0.4485456E+03  0.7818608E-02  0.1028157E+00
          2   -1    0    0  501    0  0.00000000000E+00  0.00000000000E+00  0.16899275534E+03  0.16899275536E+03  0.25500000000E-02 0.  1.
         -2   -1    0    0    0  501 -0.00000000000E+00 -0.00000000000E+00 -0.29763583317E+03  0.29763583318E+03  0.25500000000E-02 0. -1.
    5000001    1    1    2    0    0  0.44905476969E+02 -0.14495241239E+03 -0.57296847996E+02  0.23137768369E+03  0.16500000000E+03 0.  0.
   -5000001    1    1    2    0    0 -0.44905476969E+02  0.14495241239E+03 -0.71346229835E+02  0.23525090485E+03  0.16500000000E+03 0.  0.
<mgrwt>
<rscale>  0 0.44854565E+03</rscale>
<asrwt>0</asrwt>
<pdfrwt beam="1">  1        2 0.24141822E-01 0.44854565E+03</pdfrwt>
<pdfrwt beam="2">  1       -2 0.42519404E-01 0.44854565E+03</pdfrwt>
<totfact> 0.11946247E+03</totfact>
</mgrwt>
</event>
<event>
 4    1  0.5531008E-005  0.4964475E+03  0.7818608E-02  0.1014710E+00
          2   -1    0    0  501    0  0.00000000000E+00  0.00000000000E+00  0.11883100341E+04  0.11883100341E+04  0.25500000000E-02 0.  1.
         -2   -1    0    0    0  501 -0.00000000000E+00 -0.00000000000E+00 -0.51850978474E+02  0.51850978536E+02  0.25500000000E-02 0. -1.
    5000001    1    1    2    0    0 -0.17708991390E+03  0.37828453494E+02  0.66809639849E+03  0.71159653398E+03  0.16500000000E+03 0.  0.
   -5000001    1    1    2    0    0  0.17708991390E+03 -0.37828453494E+02  0.46836265712E+03  0.52856447864E+03  0.16500000000E+03 0.  0.
<mgrwt>
<rscale>  0 0.49644753E+03</rscale>
<asrwt>0</asrwt>
<pdfrwt beam="1">  1        2 0.16975857E+00 0.49644753E+03</pdfrwt>
<pdfrwt beam="2">  1       -2 0.74072828E-02 0.49644753E+03</pdfrwt>
<totfact> 0.24284668E+03</totfact>
</mgrwt>
</event>
<event>
 4    1  0.5531008E-005  0.1163230E+04  0.7818608E-02  0.9145665E-01
          2   -1    0    0  501    0  0.00000000000E+00  0.00000000000E+00  0.36047261794E+04  0.36047261794E+04  0.25500000000E-02 0.  1.
         -2   -1    0    0    0  501 -0.00000000000E+00 -0.00000000000E+00 -0.93842324083E+02  0.93842324117E+02  0.25500000000E-02 0. -1.
    5000001    1    1    2    0    0  0.49719588142E+03 -0.24884751133E+03  0.18948381321E+04  0.19816067661E+04  0.16500000000E+03 0.  0.
   -5000001    1    1    2    0    0 -0.49719588142E+03  0.24884751133E+03  0.16160457232E+04  0.17169617374E+04  0.16500000000E+03 0.  0.
<mgrwt>
<rscale>  0 0.11632298E+04</rscale>
<asrwt>0</asrwt>
<pdfrwt beam="1">  1        2 0.51496097E+00 0.11632298E+04</pdfrwt>
<pdfrwt beam="2">  1       -2 0.13406044E-01 0.11632298E+04</pdfrwt>
<totfact> 0.44568002E+01</totfact>
</mgrwt>
</event>
<event>
 4    1  0.5531008E-005  0.4222691E+03  0.7818608E-02  0.1036330E+00
         -2   -1    0    0    0  501 -0.00000000000E+00  0.00000000000E+00  0.11276837236E+03  0.11276837239E+03  0.25500000000E-02 0. -1.
          2   -1    0    0  501    0  0.00000000000E+00 -0.00000000000E+00 -0.39530417187E+03  0.39530417188E+03  0.25500000000E-02 0.  1.
    5000001    1    1    2    0    0 -0.12232071778E+03 -0.86833581352E+01 -0.19915962645E+03  0.28622948051E+03  0.16500000000E+03 0.  0.
   -5000001    1    1    2    0    0  0.12232071778E+03  0.86833581352E+01 -0.83376173062E+02  0.22184306376E+03  0.16500000000E+03 0.  0.
<mgrwt>
<rscale>  0 0.42226915E+03</rscale>
<asrwt>0</asrwt>
<pdfrwt beam="1">  1        2 0.56472024E-01 0.42226915E+03</pdfrwt>
<pdfrwt beam="2">  1       -2 0.16109768E-01 0.42226915E+03</pdfrwt>
<totfact> 0.26853571E+03</totfact>
</mgrwt>
</event>
<event>
 4    1  0.5531008E-005  0.4684170E+03  0.7818608E-02  0.1022368E+00
         -2   -1    0    0    0  501 -0.00000000000E+00  0.00000000000E+00  0.18499574167E+03  0.18499574169E+03  0.25500000000E-02 0. -1.
          2   -1    0    0  501    0  0.00000000000E+00 -0.00000000000E+00 -0.29651286879E+03  0.29651286880E+03  0.25500000000E-02 0.  1.
    5000001    1    1    2    0    0 -0.16156387150E+03  0.38236573529E+02 -0.63962724463E+02  0.24265438436E+03  0.16500000000E+03 0.  0.
   -5000001    1    1    2    0    0  0.16156387150E+03 -0.38236573529E+02 -0.47554402660E+02  0.23885422613E+03  0.16500000000E+03 0.  0.
<mgrwt>
<rscale>  0 0.46841699E+03</rscale>
<asrwt>0</asrwt>
<pdfrwt beam="1">  1        2 0.42358981E-01 0.46841699E+03</pdfrwt>
<pdfrwt beam="2">  1       -2 0.26427963E-01 0.46841699E+03</pdfrwt>
<totfact> 0.15577731E+03</totfact>
</mgrwt>
</event>
<event>
 4    1  0.5531008E-005  0.7444690E+03  0.7818608E-02  0.9644068E-01
          2   -1    0    0  501    0  0.00000000000E+00  0.00000000000E+00  0.84818085853E+03  0.84818085854E+03  0.25500000000E-02 0. -1.
         -2   -1    0    0    0  501 -0.00000000000E+00 -0.00000000000E+00 -0.16335965418E+03  0.16335965420E+03  0.25500000000E-02 0.  1.
    5000001    1    1    2    0    0  0.30425960973E+03  0.90782322021E+02  0.20306053294E+03  0.41142911922E+03  0.16500000000E+03 0.  0.
   -5000001    1    1    2    0    0 -0.30425960973E+03 -0.90782322021E+02  0.48176067142E+03  0.60011139352E+03  0.16500000000E+03 0.  0.
<mgrwt>
<rscale>  0 0.74446902E+03</rscale>
<asrwt>0</asrwt>
<pdfrwt beam="1">  1        2 0.12116870E+00 0.74446902E+03</pdfrwt>
<pdfrwt beam="2">  1       -2 0.23337093E-01 0.74446902E+03</pdfrwt>
<totfact> 0.57317394E+02</totfact>
</mgrwt>
</event>
<event>
 4    1  0.5531008E-005  0.5189168E+03  0.7818608E-02  0.1008956E+00
          2   -1    0    0  501    0  0.00000000000E+00  0.00000000000E+00  0.18115500235E+04  0.18115500235E+04  0.25500000000E-02 0.  1.
         -2   -1    0    0    0  501 -0.00000000000E+00 -0.00000000000E+00 -0.37160809427E+02  0.37160809515E+02  0.25500000000E-02 0. -1.
    5000001    1    1    2    0    0  0.15005910950E+03  0.13236790955E+03  0.91353533159E+03  0.94963719488E+03  0.16500000000E+03 0.  0.
   -5000001    1    1    2    0    0 -0.15005910950E+03 -0.13236790955E+03  0.86085388253E+03  0.89907363819E+03  0.16500000000E+03 0.  0.
<mgrwt>
<rscale>  0 0.51891682E+03</rscale>
<asrwt>0</asrwt>
<pdfrwt beam="1">  1        2 0.25879286E+00 0.51891682E+03</pdfrwt>
<pdfrwt beam="2">  1       -2 0.53086871E-02 0.51891682E+03</pdfrwt>
<totfact> 0.19320818E+03</totfact>
</mgrwt>
</event>
<event>
 4    1  0.5531008E-005  0.6081606E+03  0.7818608E-02  0.9888619E-01
          2   -1    0    0  501    0  0.00000000000E+00  0.00000000000E+00  0.24321919312E+03  0.24321919313E+03  0.25500000000E-02 0. -1.
         -2   -1    0    0    0  501 -0.00000000000E+00 -0.00000000000E+00 -0.38017073068E+03  0.38017073069E+03  0.25500000000E-02 0.  1.
    5000001    1    1    2    0    0  0.10906094602E+03 -0.19685560299E+03 -0.19230402734E+03  0.33889859443E+03  0.16500000000E+03 0.  0.
   -5000001    1    1    2    0    0 -0.10906094602E+03  0.19685560299E+03  0.55352489778E+02  0.28449132939E+03  0.16500000000E+03 0.  0.
<mgrwt>
<rscale>  0 0.60816057E+03</rscale>
<asrwt>0</asrwt>
<pdfrwt beam="1">  1        2 0.34745599E-01 0.60816057E+03</pdfrwt>
<pdfrwt beam="2">  1       -2 0.54310105E-01 0.60816057E+03</pdfrwt>
<totfact> 0.48526886E+02</totfact>
</mgrwt>
</event>
<event>
 4    1  0.5531008E-005  0.6369737E+03  0.7818608E-02  0.9831534E-01
          2   -1    0    0  501    0  0.00000000000E+00  0.00000000000E+00  0.21330276880E+04  0.21330276880E+04  0.25500000000E-02 0.  1.
         -2   -1    0    0    0  501 -0.00000000000E+00 -0.00000000000E+00 -0.47553940190E+02  0.47553940258E+02  0.25500000000E-02 0. -1.
    5000001    1    1    2    0    0 -0.27290830841E+02 -0.26119867896E+03  0.12905297439E+04  0.13272759921E+04  0.16500000000E+03 0.  0.
   -5000001    1    1    2    0    0  0.27290830841E+02  0.26119867896E+03  0.79494400393E+03  0.85330563617E+03  0.16500000000E+03 0.  0.
<mgrwt>
<rscale>  0 0.63697369E+03</rscale>
<asrwt>0</asrwt>
<pdfrwt beam="1">  1        2 0.30471829E+00 0.63697369E+03</pdfrwt>
<pdfrwt beam="2">  1       -2 0.67934190E-02 0.63697369E+03</pdfrwt>
<totfact> 0.90044872E+02</totfact>
</mgrwt>
</event>
<event>
 4    1  0.5531008E-005  0.6246882E+03  0.7818608E-02  0.9855470E-01
         -2   -1    0    0    0  501 -0.00000000000E+00  0.00000000000E+00  0.13398044728E+03  0.13398044731E+03  0.25500000000E-02 0. -1.
          2   -1    0    0  501    0  0.00000000000E+00 -0.00000000000E+00 -0.72815726580E+03  0.72815726581E+03  0.25500000000E-02 0.  1.
    5000001    1    1    2    0    0 -0.12104830015E+03 -0.23224703777E+03 -0.23947884591E+03  0.39136491304E+03  0.16500000000E+03 0.  0.
   -5000001    1    1    2    0    0  0.12104830015E+03  0.23224703777E+03 -0.35469797261E+03  0.47077280007E+03  0.16500000000E+03 0.  0.
<mgrwt>
<rscale>  0 0.62468820E+03</rscale>
<asrwt>0</asrwt>
<pdfrwt beam="1">  1        2 0.10402246E+00 0.62468820E+03</pdfrwt>
<pdfrwt beam="2">  1       -2 0.19140064E-01 0.62468820E+03</pdfrwt>
<totfact> 0.99000417E+02</totfact>
</mgrwt>
</event>
<event>
 4    1  0.5531008E-005  0.5332069E+03  0.7818608E-02  0.1005457E+00
          2   -1    0    0  501    0  0.00000000000E+00  0.00000000000E+00  0.30333535024E+03  0.30333535025E+03  0.25500000000E-02 0.  1.
         -2   -1    0    0    0  501 -0.00000000000E+00 -0.00000000000E+00 -0.23431956676E+03  0.23431956678E+03  0.25500000000E-02 0. -1.
    5000001    1    1    2    0    0 -0.12434717605E+03  0.11221144913E+03 -0.92233826008E+02  0.25255832627E+03  0.16500000000E+03 0.  0.
   -5000001    1    1    2    0    0  0.12434717605E+03 -0.11221144913E+03  0.16124960948E+03  0.28509659076E+03  0.16500000000E+03 0.  0.
<mgrwt>
<rscale>  0 0.53320693E+03</rscale>
<asrwt>0</asrwt>
<pdfrwt beam="1">  1        2 0.43333622E-01 0.53320693E+03</pdfrwt>
<pdfrwt beam="2">  1       -2 0.33474224E-01 0.53320693E+03</pdfrwt>
<totfact> 0.98427873E+02</totfact>
</mgrwt>
</event>
<event>
 4    1  0.5531008E-005  0.6124876E+03  0.7818608E-02  0.9879832E-01
         -2   -1    0    0    0  501 -0.00000000000E+00  0.00000000000E+00  0.10817743822E+03  0.10817743825E+03  0.25500000000E-02 0. -1.
          2   -1    0    0  501    0  0.00000000000E+00 -0.00000000000E+00 -0.86695768829E+03  0.86695768830E+03  0.25500000000E-02 0.  1.
    5000001    1    1    2    0    0  0.12615083407E+03 -0.22056625553E+03 -0.30824748441E+03  0.43220946040E+03  0.16500000000E+03 0.  0.
   -5000001    1    1    2    0    0 -0.12615083407E+03  0.22056625553E+03 -0.45053276567E+03  0.54292566614E+03  0.16500000000E+03 0.  0.
<mgrwt>
<rscale>  0 0.61248759E+03</rscale>
<asrwt>0</asrwt>
<pdfrwt beam="1">  1        2 0.12385109E+00 0.61248759E+03</pdfrwt>
<pdfrwt beam="2">  1       -2 0.15453920E-01 0.61248759E+03</pdfrwt>
<totfact> 0.11425984E+03</totfact>
</mgrwt>
</event>
<event>
 4    1  0.5531008E-005  0.5513514E+03  0.7818608E-02  0.1001182E+00
         -2   -1    0    0    0  501 -0.00000000000E+00  0.00000000000E+00  0.19829096615E+02  0.19829096779E+02  0.25500000000E-02 0. -1.
          2   -1    0    0  501    0  0.00000000000E+00 -0.00000000000E+00 -0.38326043594E+04  0.38326043594E+04  0.25500000000E-02 0.  1.
    5000001    1    1    2    0    0 -0.49969312151E+02 -0.18627501038E+03 -0.11545909441E+04  0.11821592786E+04  0.16500000000E+03 0.  0.
   -5000001    1    1    2    0    0  0.49969312151E+02  0.18627501038E+03 -0.26581843187E+04  0.26702741777E+04  0.16500000000E+03 0.  0.
<mgrwt>
<rscale>  0 0.55135137E+03</rscale>
<asrwt>0</asrwt>
<pdfrwt beam="1">  1        2 0.54751443E+00 0.55135137E+03</pdfrwt>
<pdfrwt beam="2">  1       -2 0.28327306E-02 0.55135137E+03</pdfrwt>
<totfact> 0.40441204E+02</totfact>
</mgrwt>
</event>
<event>
 4    1  0.5531008E-005  0.7627419E+03  0.7818608E-02  0.9615570E-01
          2   -1    0    0  501    0  0.00000000000E+00  0.00000000000E+00  0.76192679583E+03  0.76192679583E+03  0.25500000000E-02 0.  1.
         -2   -1    0    0    0  501 -0.00000000000E+00 -0.00000000000E+00 -0.19088947518E+03  0.19088947520E+03  0.25500000000E-02 0. -1.
    5000001    1    1    2    0    0 -0.29392497630E+03  0.17062235715E+03  0.35060809975E+03  0.51541722911E+03  0.16500000000E+03 0.  0.
   -5000001    1    1    2    0    0  0.29392497630E+03 -0.17062235715E+03  0.22042922090E+03  0.43739904193E+03  0.16500000000E+03 0.  0.
<mgrwt>
<rscale>  0 0.76274191E+03</rscale>
<asrwt>0</asrwt>
<pdfrwt beam="1">  1        2 0.10884669E+00 0.76274191E+03</pdfrwt>
<pdfrwt beam="2">  1       -2 0.27269924E-01 0.76274191E+03</pdfrwt>
<totfact> 0.49657113E+02</totfact>
</mgrwt>
</event>
<event>
 4    1  0.5531008E-005  0.4259983E+03  0.7818608E-02  0.1035132E+00
          2   -1    0    0  501    0  0.00000000000E+00  0.00000000000E+00  0.23253024663E+03  0.23253024665E+03  0.25500000000E-02 0.  1.
         -2   -1    0    0    0  501 -0.00000000000E+00 -0.00000000000E+00 -0.19510857541E+03  0.19510857543E+03  0.25500000000E-02 0. -1.
    5000001    1    1    2    0    0 -0.69374305057E+02 -0.41699111438E+02 -0.89370092911E+02  0.20436150225E+03  0.16500000000E+03 0.  0.
   -5000001    1    1    2    0    0  0.69374305057E+02  0.41699111438E+02  0.12679176413E+03  0.22327731982E+03  0.16500000000E+03 0.  0.
<mgrwt>
<rscale>  0 0.42599833E+03</rscale>
<asrwt>0</asrwt>
<pdfrwt beam="1">  1        2 0.33218607E-01 0.42599833E+03</pdfrwt>
<pdfrwt beam="2">  1       -2 0.27872654E-01 0.42599833E+03</pdfrwt>
<totfact> 0.18469689E+03</totfact>
</mgrwt>
</event>
<event>
 4    1  0.5531008E-005  0.9346616E+03  0.7818608E-02  0.9383261E-01
          2   -1    0    0  501    0  0.00000000000E+00  0.00000000000E+00  0.30381880562E+04  0.30381880562E+04  0.25500000000E-02 0.  1.
         -2   -1    0    0    0  501 -0.00000000000E+00 -0.00000000000E+00 -0.71884322520E+02  0.71884322565E+02  0.25500000000E-02 0. -1.
    5000001    1    1    2    0    0 -0.13747839467E+03  0.31847209157E+03  0.59746373734E+03  0.71029057403E+03  0.16500000000E+03 0.  0.
   -5000001    1    1    2    0    0  0.13747839467E+03 -0.31847209157E+03  0.23688399964E+04  0.23997818048E+04  0.16500000000E+03 0.  0.
<mgrwt>
<rscale>  0 0.93466163E+03</rscale>
<asrwt>0</asrwt>
<pdfrwt beam="1">  1        2 0.43402680E+00 0.93466163E+03</pdfrwt>
<pdfrwt beam="2">  1       -2 0.10269190E-01 0.93466163E+03</pdfrwt>
<totfact> 0.15184881E+02</totfact>
</mgrwt>
</event>
<event>
 4    1  0.5531008E-005  0.8683403E+03  0.7818608E-02  0.9466047E-01
          2   -1    0    0  501    0  0.00000000000E+00  0.00000000000E+00  0.43691150930E+04  0.43691150930E+04  0.25500000000E-02 0.  1.
         -2   -1    0    0    0  501 -0.00000000000E+00 -0.00000000000E+00 -0.43144599648E+02  0.43144599723E+02  0.25500000000E-02 0. -1.
    5000001    1    1    2    0    0 -0.11983274193E+03  0.29032169693E+03  0.89132891338E+03  0.95934290302E+03  0.16500000000E+03 0.  0.
   -5000001    1    1    2    0    0  0.11983274193E+03 -0.29032169693E+03  0.34346415800E+04  0.34529167897E+04  0.16500000000E+03 0.  0.
<mgrwt>
<rscale>  0 0.86834031E+03</rscale>
<asrwt>0</asrwt>
<pdfrwt beam="1">  1        2 0.62415954E+00 0.86834031E+03</pdfrwt>
<pdfrwt beam="2">  1       -2 0.61635119E-02 0.86834031E+03</pdfrwt>
<totfact> 0.49612483E+01</totfact>
</mgrwt>
</event>
<event>
 4    1  0.5531008E-005  0.3836873E+03  0.7818608E-02  0.1049579E+00
         -2   -1    0    0    0  501 -0.00000000000E+00  0.00000000000E+00  0.34938991372E+02  0.34938991466E+02  0.25500000000E-02 0. -1.
          2   -1    0    0  501    0  0.00000000000E+00 -0.00000000000E+00 -0.10533785705E+04  0.10533785705E+04  0.25500000000E-02 0.  1.
    5000001    1    1    2    0    0  0.39225948244E+02  0.89099034155E+02 -0.48061895092E+03  0.51739432630E+03  0.16500000000E+03 0.  0.
   -5000001    1    1    2    0    0 -0.39225948244E+02 -0.89099034155E+02 -0.53782062822E+03  0.57092323568E+03  0.16500000000E+03 0.  0.
<mgrwt>
<rscale>  0 0.38368729E+03</rscale>
<asrwt>0</asrwt>
<pdfrwt beam="1">  1        2 0.15048263E+00 0.38368729E+03</pdfrwt>
<pdfrwt beam="2">  1       -2 0.49912851E-02 0.38368729E+03</pdfrwt>
<totfact> 0.53498654E+03</totfact>
</mgrwt>
</event>
<event>
 4    1  0.5531008E-005  0.1174842E+04  0.7818608E-02  0.9135166E-01
         -2   -1    0    0    0  501 -0.00000000000E+00  0.00000000000E+00  0.80141264305E+03  0.80141264305E+03  0.25500000000E-02 0. -1.
          2   -1    0    0  501    0  0.00000000000E+00 -0.00000000000E+00 -0.43056923264E+03  0.43056923265E+03  0.25500000000E-02 0.  1.
    5000001    1    1    2    0    0 -0.28358414648E+01  0.35033281634E+03  0.64860254604E+03  0.75541471188E+03  0.16500000000E+03 0.  0.
   -5000001    1    1    2    0    0  0.28358414648E+01 -0.35033281634E+03 -0.27775913563E+03  0.47656716382E+03  0.16500000000E+03 0.  0.
<mgrwt>
<rscale>  0 0.11748423E+04</rscale>
<asrwt>0</asrwt>
<pdfrwt beam="1">  1        2 0.61509890E-01 0.11748423E+04</pdfrwt>
<pdfrwt beam="2">  1       -2 0.11448752E+00 0.11748423E+04</pdfrwt>
<totfact> 0.46935529E+01</totfact>
</mgrwt>
</event>
<event>
 4    1  0.5531008E-005  0.9102852E+03  0.7818608E-02  0.9412815E-01
         -2   -1    0    0    0  501 -0.00000000000E+00  0.00000000000E+00  0.30045748068E+03  0.30045748069E+03  0.25500000000E-02 0. -1.
          2   -1    0    0  501    0  0.00000000000E+00 -0.00000000000E+00 -0.68946459273E+03  0.68946459273E+03  0.25500000000E-02 0.  1.
    5000001    1    1    2    0    0  0.15808635589E+03  0.31430267171E+03  0.63192282749E+02  0.39369497071E+03  0.16500000000E+03 0.  0.
   -5000001    1    1    2    0    0 -0.15808635589E+03 -0.31430267171E+03 -0.45219939480E+03  0.59622710272E+03  0.16500000000E+03 0.  0.
<mgrwt>
<rscale>  0 0.91028522E+03</rscale>
<asrwt>0</asrwt>
<pdfrwt beam="1">  1        2 0.98494941E-01 0.91028522E+03</pdfrwt>
<pdfrwt beam="2">  1       -2 0.42922497E-01 0.91028522E+03</pdfrwt>
<totfact> 0.23633210E+02</totfact>
</mgrwt>
</event>
<event>
 4    1  0.5531008E-005  0.5707584E+03  0.7818608E-02  0.9968002E-01
          2   -1    0    0  501    0  0.00000000000E+00  0.00000000000E+00  0.18556621749E+04  0.18556621749E+04  0.25500000000E-02 0.  1.
         -2   -1    0    0    0  501 -0.00000000000E+00 -0.00000000000E+00 -0.43887992371E+02  0.43887992445E+02  0.25500000000E-02 0. -1.
    5000001    1    1    2    0    0 -0.38658355467E+02  0.21860000813E+03  0.11397060235E+04  0.11727895173E+04  0.16500000000E+03 0.  0.
   -5000001    1    1    2    0    0  0.38658355467E+02 -0.21860000813E+03  0.67206815903E+03  0.72676064999E+03  0.16500000000E+03 0.  0.
<mgrwt>
<rscale>  0 0.57075840E+03</rscale>
<asrwt>0</asrwt>
<pdfrwt beam="1">  1        2 0.26509461E+00 0.57075840E+03</pdfrwt>
<pdfrwt beam="2">  1       -2 0.62697128E-02 0.57075840E+03</pdfrwt>
<totfact> 0.14133771E+03</totfact>
</mgrwt>
</event>
<event>
 4    1  0.5531008E-005  0.4338294E+03  0.7818608E-02  0.1032657E+00
          2   -1    0    0  501    0  0.00000000000E+00  0.00000000000E+00  0.68282257672E+03  0.68282257672E+03  0.25500000000E-02 0.  1.
         -2   -1    0    0    0  501 -0.00000000000E+00 -0.00000000000E+00 -0.68908070526E+02  0.68908070573E+02  0.25500000000E-02 0. -1.
    5000001    1    1    2    0    0 -0.56721605013E+02  0.94371452973E+02  0.15487019923E+03  0.25166066483E+03  0.16500000000E+03 0.  0.
   -5000001    1    1    2    0    0  0.56721605013E+02 -0.94371452973E+02  0.45904430697E+03  0.50006998247E+03  0.16500000000E+03 0.  0.
<mgrwt>
<rscale>  0 0.43382940E+03</rscale>
<asrwt>0</asrwt>
<pdfrwt beam="1">  1        2 0.97546090E-01 0.43382940E+03</pdfrwt>
<pdfrwt beam="2">  1       -2 0.98440093E-02 0.43382940E+03</pdfrwt>
<totfact> 0.32393396E+03</totfact>
</mgrwt>
</event>
<event>
 4    1  0.5531008E-005  0.4641377E+03  0.7818608E-02  0.1023588E+00
         -2   -1    0    0    0  501 -0.00000000000E+00  0.00000000000E+00  0.81010043641E+02  0.81010043681E+02  0.25500000000E-02 0. -1.
          2   -1    0    0  501    0  0.00000000000E+00 -0.00000000000E+00 -0.66480573839E+03  0.66480573839E+03  0.25500000000E-02 0.  1.
    5000001    1    1    2    0    0 -0.57232607974E+02 -0.15014500922E+03 -0.33768269491E+03  0.40874649558E+03  0.16500000000E+03 0.  0.
   -5000001    1    1    2    0    0  0.57232607974E+02  0.15014500922E+03 -0.24611299984E+03  0.33706928649E+03  0.16500000000E+03 0.  0.
<mgrwt>
<rscale>  0 0.46413766E+03</rscale>
<asrwt>0</asrwt>
<pdfrwt beam="1">  1        2 0.94972246E-01 0.46413766E+03</pdfrwt>
<pdfrwt beam="2">  1       -2 0.11572864E-01 0.46413766E+03</pdfrwt>
<totfact> 0.25758392E+03</totfact>
</mgrwt>
</event>
<event>
 4    1  0.5531008E-005  0.5101999E+03  0.7818608E-02  0.1011150E+00
         -2   -1    0    0    0  501 -0.00000000000E+00  0.00000000000E+00  0.31010371255E+02  0.31010371360E+02  0.25500000000E-02 0. -1.
          2   -1    0    0  501    0  0.00000000000E+00 -0.00000000000E+00 -0.20985232364E+04  0.20985232364E+04  0.25500000000E-02 0.  1.
    5000001    1    1    2    0    0 -0.14783870466E+03 -0.38907540350E+02 -0.15360319244E+04  0.15524139757E+04  0.16500000000E+03 0.  0.
   -5000001    1    1    2    0    0  0.14783870466E+03  0.38907540350E+02 -0.53148094074E+03  0.57711963202E+03  0.16500000000E+03 0.  0.
<mgrwt>
<rscale>  0 0.51019990E+03</rscale>
<asrwt>0</asrwt>
<pdfrwt beam="1">  1        2 0.29978894E+00 0.51019990E+03</pdfrwt>
<pdfrwt beam="2">  1       -2 0.44300544E-02 0.51019990E+03</pdfrwt>
<totfact> 0.18365377E+03</totfact>
</mgrwt>
</event>
<event>
 4    1  0.5531008E-005  0.6931031E+03  0.7818608E-02  0.9729100E-01
         -2   -1    0    0    0  501 -0.00000000000E+00  0.00000000000E+00  0.78113977585E+02  0.78113977627E+02  0.25500000000E-02 0. -1.
          2   -1    0    0  501    0  0.00000000000E+00 -0.00000000000E+00 -0.15374710222E+04  0.15374710222E+04  0.25500000000E-02 0.  1.
    5000001    1    1    2    0    0 -0.26863949980E+03 -0.13345085591E+03 -0.60422550185E+03  0.69447085531E+03  0.16500000000E+03 0.  0.
   -5000001    1    1    2    0    0  0.26863949980E+03  0.13345085591E+03 -0.85513154281E+03  0.92111414456E+03  0.16500000000E+03 0.  0.
<mgrwt>
<rscale>  0 0.69310310E+03</rscale>
<asrwt>0</asrwt>
<pdfrwt beam="1">  1        2 0.21963870E+00 0.69310310E+03</pdfrwt>
<pdfrwt beam="2">  1       -2 0.11159141E-01 0.69310310E+03</pdfrwt>
<totfact> 0.81120828E+02</totfact>
</mgrwt>
</event>
<event>
 4    1  0.5531008E-005  0.4457272E+03  0.7818608E-02  0.1029004E+00
         -2   -1    0    0    0  501 -0.00000000000E+00  0.00000000000E+00  0.13230240329E+03  0.13230240332E+03  0.25500000000E-02 0. -1.
          2   -1    0    0  501    0  0.00000000000E+00 -0.00000000000E+00 -0.37541406431E+03  0.37541406432E+03  0.25500000000E-02 0.  1.
    5000001    1    1    2    0    0  0.30082476206E+02 -0.65316464300E+02 -0.27125633714E+03  0.32553985367E+03  0.16500000000E+03 0.  0.
   -5000001    1    1    2    0    0 -0.30082476206E+02  0.65316464300E+02  0.28144676129E+02  0.18217661397E+03  0.16500000000E+03 0.  0.
<mgrwt>
<rscale>  0 0.44572719E+03</rscale>
<asrwt>0</asrwt>
<pdfrwt beam="1">  1        2 0.53630580E-01 0.44572719E+03</pdfrwt>
<pdfrwt beam="2">  1       -2 0.18900343E-01 0.44572719E+03</pdfrwt>
<totfact> 0.21676478E+03</totfact>
</mgrwt>
</event>
<event>
 4    1  0.5531008E-005  0.3980617E+03  0.7818608E-02  0.1044453E+00
          2   -1    0    0  501    0  0.00000000000E+00  0.00000000000E+00  0.90933998715E+03  0.90933998716E+03  0.25500000000E-02 0.  1.
         -2   -1    0    0    0  501 -0.00000000000E+00 -0.00000000000E+00 -0.43562678698E+02  0.43562678772E+02  0.25500000000E-02 0. -1.
    5000001    1    1    2    0    0 -0.98957520519E+02 -0.72601119312E+01  0.55360610793E+03  0.58613140407E+03  0.16500000000E+03 0.  0.
   -5000001    1    1    2    0    0  0.98957520519E+02  0.72601119312E+01  0.31217120052E+03  0.36677126186E+03  0.16500000000E+03 0.  0.
<mgrwt>
<rscale>  0 0.39806173E+03</rscale>
<asrwt>0</asrwt>
<pdfrwt beam="1">  1        2 0.12990570E+00 0.39806173E+03</pdfrwt>
<pdfrwt beam="2">  1       -2 0.62232403E-02 0.39806173E+03</pdfrwt>
<totfact> 0.46559795E+03</totfact>
</mgrwt>
</event>
<event>
 4    1  0.5531008E-005  0.4836682E+03  0.7818608E-02  0.1018132E+00
         -2   -1    0    0    0  501 -0.00000000000E+00  0.00000000000E+00  0.81722346006E+02  0.81722346046E+02  0.25500000000E-02 0. -1.
          2   -1    0    0  501    0  0.00000000000E+00 -0.00000000000E+00 -0.71563929783E+03  0.71563929783E+03  0.25500000000E-02 0.  1.
    5000001    1    1    2    0    0 -0.10312815806E+03  0.49629361220E+02 -0.53911984142E+03  0.57530313218E+03  0.16500000000E+03 0.  0.
   -5000001    1    1    2    0    0  0.10312815806E+03 -0.49629361220E+02 -0.94797110404E+02  0.22205851170E+03  0.16500000000E+03 0.  0.
<mgrwt>
<rscale>  0 0.48366816E+03</rscale>
<asrwt>0</asrwt>
<pdfrwt beam="1">  1        2 0.10223418E+00 0.48366816E+03</pdfrwt>
<pdfrwt beam="2">  1       -2 0.11674621E-01 0.48366816E+03</pdfrwt>
<totfact> 0.23236013E+03</totfact>
</mgrwt>
</event>
<event>
 4    1  0.5531008E-005  0.4513538E+03  0.7818608E-02  0.1027319E+00
         -2   -1    0    0    0  501 -0.00000000000E+00  0.00000000000E+00  0.16222700991E+02  0.16222701191E+02  0.25500000000E-02 0. -1.
          2   -1    0    0  501    0  0.00000000000E+00 -0.00000000000E+00 -0.31394320351E+04  0.31394320351E+04  0.25500000000E-02 0.  1.
    5000001    1    1    2    0    0 -0.11838534939E+03 -0.36744516763E+02 -0.22000895521E+04  0.22097475620E+04  0.16500000000E+03 0.  0.
   -5000001    1    1    2    0    0  0.11838534939E+03  0.36744516763E+02 -0.92311978207E+03  0.94590717436E+03  0.16500000000E+03 0.  0.
<mgrwt>
<rscale>  0 0.45135382E+03</rscale>
<asrwt>0</asrwt>
<pdfrwt beam="1">  1        2 0.44848990E+00 0.45135382E+03</pdfrwt>
<pdfrwt beam="2">  1       -2 0.23175307E-02 0.45135382E+03</pdfrwt>
<totfact> 0.14217885E+03</totfact>
</mgrwt>
</event>
<event>
 4    1  0.5531008E-005  0.4510505E+03  0.7818608E-02  0.1027409E+00
         -2   -1    0    0    0  501 -0.00000000000E+00  0.00000000000E+00  0.59709835144E+02  0.59709835198E+02  0.25500000000E-02 0. -1.
          2   -1    0    0  501    0  0.00000000000E+00 -0.00000000000E+00 -0.85181346319E+03  0.85181346319E+03  0.25500000000E-02 0.  1.
    5000001    1    1    2    0    0  0.18244572573E+02  0.78343788835E+02 -0.66082713165E+03  0.68584846111E+03  0.16500000000E+03 0.  0.
   -5000001    1    1    2    0    0 -0.18244572573E+02 -0.78343788835E+02 -0.13127649640E+03  0.22567483728E+03  0.16500000000E+03 0.  0.
<mgrwt>
<rscale>  0 0.45105051E+03</rscale>
<asrwt>0</asrwt>
<pdfrwt beam="1">  1        2 0.12168763E+00 0.45105051E+03</pdfrwt>
<pdfrwt beam="2">  1       -2 0.85299770E-02 0.45105051E+03</pdfrwt>
<totfact> 0.30944200E+03</totfact>
</mgrwt>
</event>
<event>
 4    1  0.5531008E-005  0.4353004E+03  0.7818608E-02  0.1032199E+00
         -2   -1    0    0    0  501 -0.00000000000E+00  0.00000000000E+00  0.35975598272E+02  0.35975598362E+02  0.25500000000E-02 0. -1.
          2   -1    0    0  501    0  0.00000000000E+00 -0.00000000000E+00 -0.13167708365E+04  0.13167708365E+04  0.25500000000E-02 0.  1.
    5000001    1    1    2    0    0  0.13628972736E+03  0.34293780936E+02 -0.57858297385E+03  0.61784642980E+03  0.16500000000E+03 0.  0.
   -5000001    1    1    2    0    0 -0.13628972736E+03 -0.34293780936E+02 -0.70221226439E+03  0.73490000507E+03  0.16500000000E+03 0.  0.
<mgrwt>
<rscale>  0 0.43530044E+03</rscale>
<asrwt>0</asrwt>
<pdfrwt beam="1">  1        2 0.18811009E+00 0.43530044E+03</pdfrwt>
<pdfrwt beam="2">  1       -2 0.51393720E-02 0.43530044E+03</pdfrwt>
<totfact> 0.36539284E+03</totfact>
</mgrwt>
</event>
<event>
 4    1  0.5531008E-005  0.5654550E+03  0.7818608E-02  0.9979787E-01
         -2   -1    0    0    0  501 -0.00000000000E+00  0.00000000000E+00  0.10192511051E+03  0.10192511054E+03  0.25500000000E-02 0. -1.
          2   -1    0    0  501    0  0.00000000000E+00 -0.00000000000E+00 -0.78425057803E+03  0.78425057804E+03  0.25500000000E-02 0.  1.
    5000001    1    1    2    0    0 -0.19523702577E+03  0.90889616418E+02 -0.46586431923E+03  0.53910386989E+03  0.16500000000E+03 0.  0.
   -5000001    1    1    2    0    0  0.19523702577E+03 -0.90889616418E+02 -0.21646114830E+03  0.34707181868E+03  0.16500000000E+03 0.  0.
<mgrwt>
<rscale>  0 0.56545496E+03</rscale>
<asrwt>0</asrwt>
<pdfrwt beam="1">  1        2 0.11203579E+00 0.56545496E+03</pdfrwt>
<pdfrwt beam="2">  1       -2 0.14560731E-01 0.56545496E+03</pdfrwt>
<totfact> 0.14385770E+03</totfact>
</mgrwt>
</event>
<event>
 4    1  0.5531008E-005  0.4916646E+03  0.7818608E-02  0.1015978E+00
         -2   -1    0    0    0  501 -0.00000000000E+00  0.00000000000E+00  0.10253681900E+03  0.10253681903E+03  0.25500000000E-02 0. -1.
          2   -1    0    0  501    0  0.00000000000E+00 -0.00000000000E+00 -0.58938368285E+03  0.58938368285E+03  0.25500000000E-02 0.  1.
    5000001    1    1    2    0    0 -0.94721016389E+02 -0.15440596603E+03 -0.27140201835E+03  0.36564645336E+03  0.16500000000E+03 0.  0.
   -5000001    1    1    2    0    0  0.94721016389E+02  0.15440596603E+03 -0.21544484549E+03  0.32627404852E+03  0.16500000000E+03 0.  0.
<mgrwt>
<rscale>  0 0.49166463E+03</rscale>
<asrwt>0</asrwt>
<pdfrwt beam="1">  1        2 0.84197667E-01 0.49166463E+03</pdfrwt>
<pdfrwt beam="2">  1       -2 0.14648117E-01 0.49166463E+03</pdfrwt>
<totfact> 0.20127180E+03</totfact>
</mgrwt>
</event>
<event>
 4    1  0.5531008E-005  0.7576126E+03  0.7818608E-02  0.9623482E-01
          2   -1    0    0  501    0  0.00000000000E+00  0.00000000000E+00  0.75225763683E+03  0.75225763684E+03  0.25500000000E-02 0. -1.
         -2   -1    0    0    0  501 -0.00000000000E+00 -0.00000000000E+00 -0.19075144578E+03  0.19075144580E+03  0.25500000000E-02 0.  1.
    5000001    1    1    2    0    0 -0.31233115335E+03 -0.12686465808E+03  0.21699469462E+03  0.43354018074E+03  0.16500000000E+03 0.  0.
   -5000001    1    1    2    0    0  0.31233115335E+03  0.12686465808E+03  0.34451149644E+03  0.50946890190E+03  0.16500000000E+03 0.  0.
<mgrwt>
<rscale>  0 0.75761265E+03</rscale>
<asrwt>0</asrwt>
<pdfrwt beam="1">  1        2 0.10746538E+00 0.75761265E+03</pdfrwt>
<pdfrwt beam="2">  1       -2 0.27250206E-01 0.75761265E+03</pdfrwt>
<totfact> 0.50540134E+02</totfact>
</mgrwt>
</event>
<event>
 4    1  0.5531008E-005  0.3705815E+03  0.7818608E-02  0.1054471E+00
          2   -1    0    0  501    0  0.00000000000E+00  0.00000000000E+00  0.32764307696E+03  0.32764307697E+03  0.25500000000E-02 0.  1.
         -2   -1    0    0    0  501 -0.00000000000E+00 -0.00000000000E+00 -0.10478679291E+03  0.10478679294E+03  0.25500000000E-02 0. -1.
    5000001    1    1    2    0    0 -0.21590235676E+01 -0.78620487725E+02  0.75999369274E+02  0.19795642602E+03  0.16500000000E+03 0.  0.
   -5000001    1    1    2    0    0  0.21590235676E+01  0.78620487725E+02  0.14685691478E+03  0.23447344389E+03  0.16500000000E+03 0.  0.
<mgrwt>
<rscale>  0 0.37058153E+03</rscale>
<asrwt>0</asrwt>
<pdfrwt beam="1">  1        2 0.46806154E-01 0.37058153E+03</pdfrwt>
<pdfrwt beam="2">  1       -2 0.14969542E-01 0.37058153E+03</pdfrwt>
<totfact> 0.37184690E+03</totfact>
</mgrwt>
</event>
<event>
 4    1  0.5531008E-005  0.4585168E+03  0.7818608E-02  0.1025212E+00
         -2   -1    0    0    0  501 -0.00000000000E+00  0.00000000000E+00  0.10852673828E+04  0.10852673828E+04  0.25500000000E-02 0. -1.
          2   -1    0    0  501    0  0.00000000000E+00 -0.00000000000E+00 -0.48429920668E+02  0.48429920736E+02  0.25500000000E-02 0.  1.
    5000001    1    1    2    0    0 -0.14923592792E+03 -0.33686371364E+02  0.62699298537E+03  0.66614663364E+03  0.16500000000E+03 0.  0.
   -5000001    1    1    2    0    0  0.14923592792E+03  0.33686371364E+02  0.40984447678E+03  0.46755066992E+03  0.16500000000E+03 0.  0.
<mgrwt>
<rscale>  0 0.45851680E+03</rscale>
<asrwt>0</asrwt>
<pdfrwt beam="1">  1        2 0.69185603E-02 0.45851680E+03</pdfrwt>
<pdfrwt beam="2">  1       -2 0.15503819E+00 0.45851680E+03</pdfrwt>
<totfact> 0.29901528E+02</totfact>
</mgrwt>
</event>
<event>
 4    1  0.5531008E-005  0.4817598E+03  0.7818608E-02  0.1018653E+00
         -2   -1    0    0    0  501 -0.00000000000E+00  0.00000000000E+00  0.23203149662E+03  0.23203149664E+03  0.25500000000E-02 0. -1.
          2   -1    0    0  501    0  0.00000000000E+00 -0.00000000000E+00 -0.25006574702E+03  0.25006574703E+03  0.25500000000E-02 0.  1.
    5000001    1    1    2    0    0  0.13735068292E+03 -0.92624251292E+02  0.48934294572E+02  0.23888078033E+03  0.16500000000E+03 0.  0.
   -5000001    1    1    2    0    0 -0.13735068292E+03  0.92624251292E+02 -0.66968544971E+02  0.24321646334E+03  0.16500000000E+03 0.  0.
<mgrwt>
<rscale>  0 0.48175981E+03</rscale>
<asrwt>0</asrwt>
<pdfrwt beam="1">  1        2 0.35723678E-01 0.48175981E+03</pdfrwt>
<pdfrwt beam="2">  1       -2 0.33147357E-01 0.48175981E+03</pdfrwt>
<totfact> 0.12400337E+03</totfact>
</mgrwt>
</event>
<event>
 4    1  0.5531008E-005  0.6643464E+03  0.7818608E-02  0.9780225E-01
          2   -1    0    0  501    0  0.00000000000E+00  0.00000000000E+00  0.78030220421E+03  0.78030220422E+03  0.25500000000E-02 0.  1.
         -2   -1    0    0    0  501 -0.00000000000E+00 -0.00000000000E+00 -0.14140552029E+03  0.14140552031E+03  0.25500000000E-02 0. -1.
    5000001    1    1    2    0    0 -0.23323085756E+03  0.37477984915E+02  0.54873659204E+03  0.61978873797E+03  0.16500000000E+03 0.  0.
   -5000001    1    1    2    0    0  0.23323085756E+03 -0.37477984915E+02  0.90160091886E+02  0.30191898655E+03  0.16500000000E+03 0.  0.
<mgrwt>
<rscale>  0 0.66434641E+03</rscale>
<asrwt>0</asrwt>
<pdfrwt beam="1">  1        2 0.11147175E+00 0.66434641E+03</pdfrwt>
<pdfrwt beam="2">  1       -2 0.20200787E-01 0.66434641E+03</pdfrwt>
<totfact> 0.82564957E+02</totfact>
</mgrwt>
</event>
<event>
 4    1  0.5531008E-005  0.5337199E+03  0.7818608E-02  0.1005334E+00
         -2   -1    0    0    0  501 -0.00000000000E+00  0.00000000000E+00  0.16379586762E+02  0.16379586960E+02  0.25500000000E-02 0.  1.
          2   -1    0    0  501    0  0.00000000000E+00 -0.00000000000E+00 -0.43477425306E+04  0.43477425306E+04  0.25500000000E-02 0. -1.
    5000001    1    1    2    0    0  0.12497030008E+03  0.58790945859E+02 -0.87500806255E+03  0.90107605714E+03  0.16500000000E+03 0.  0.
   -5000001    1    1    2    0    0 -0.12497030008E+03 -0.58790945859E+02 -0.34563548813E+04  0.34630460604E+04  0.16500000000E+03 0.  0.
<mgrwt>
<rscale>  0 0.53371988E+03</rscale>
<asrwt>0</asrwt>
<pdfrwt beam="1">  1        2 0.62110534E+00 0.53371988E+03</pdfrwt>
<pdfrwt beam="2">  1       -2 0.23399438E-02 0.53371988E+03</pdfrwt>
<totfact> 0.24067171E+02</totfact>
</mgrwt>
</event>
<event>
 4    1  0.5531008E-005  0.1482813E+04  0.7818608E-02  0.8895963E-01
          2   -1    0    0  501    0  0.00000000000E+00  0.00000000000E+00  0.44985471673E+03  0.44985471674E+03  0.25500000000E-02 0.  1.
         -2   -1    0    0    0  501 -0.00000000000E+00 -0.00000000000E+00 -0.12219136499E+04  0.12219136499E+04  0.25500000000E-02 0. -1.
    5000001    1    1    2    0    0  0.81543639422E+02  0.62188985679E+03 -0.79106147227E+03  0.10229367586E+04  0.16500000000E+03 0.  0.
   -5000001    1    1    2    0    0 -0.81543639422E+02 -0.62188985679E+03  0.19002539136E+02  0.64883160804E+03  0.16500000000E+03 0.  0.
<mgrwt>
<rscale>  0 0.14828130E+04</rscale>
<asrwt>0</asrwt>
<pdfrwt beam="1">  1        2 0.64264960E-01 0.14828130E+04</pdfrwt>
<pdfrwt beam="2">  1       -2 0.17455909E+00 0.14828130E+04</pdfrwt>
<totfact> 0.14514517E+01</totfact>
</mgrwt>
</event>
<event>
 4    1  0.5531008E-005  0.7248123E+03  0.7818608E-02  0.9675716E-01
          2   -1    0    0  501    0  0.00000000000E+00  0.00000000000E+00  0.63993446578E+03  0.63993446578E+03  0.25500000000E-02 0.  1.
         -2   -1    0    0    0  501 -0.00000000000E+00 -0.00000000000E+00 -0.20523700525E+03  0.20523700527E+03  0.25500000000E-02 0. -1.
    5000001    1    1    2    0    0 -0.32228805884E+03 -0.13450229562E+02  0.20811317441E+03  0.41783560752E+03  0.16500000000E+03 0.  0.
   -5000001    1    1    2    0    0  0.32228805884E+03  0.13450229562E+02  0.22658428612E+03  0.42733586353E+03  0.16500000000E+03 0.  0.
<mgrwt>
<rscale>  0 0.72481234E+03</rscale>
<asrwt>0</asrwt>
<pdfrwt beam="1">  1        2 0.91419209E-01 0.72481234E+03</pdfrwt>
<pdfrwt beam="2">  1       -2 0.29319572E-01 0.72481234E+03</pdfrwt>
<totfact> 0.53957041E+02</totfact>
</mgrwt>
</event>
<event>
 4    1  0.5531008E-005  0.7585941E+03  0.7818608E-02  0.9621963E-01
          2   -1    0    0  501    0  0.00000000000E+00  0.00000000000E+00  0.90790787716E+03  0.90790787716E+03  0.25500000000E-02 0.  1.
         -2   -1    0    0    0  501 -0.00000000000E+00 -0.00000000000E+00 -0.15845906932E+03  0.15845906934E+03  0.25500000000E-02 0. -1.
    5000001    1    1    2    0    0 -0.22658734390E+03 -0.21536328455E+03  0.56807060077E+03  0.66906828964E+03  0.16500000000E+03 0.  0.
   -5000001    1    1    2    0    0  0.22658734390E+03  0.21536328455E+03  0.18137820707E+03  0.39729865686E+03  0.16500000000E+03 0.  0.
<mgrwt>
<rscale>  0 0.75859406E+03</rscale>
<asrwt>0</asrwt>
<pdfrwt beam="1">  1        2 0.12970112E+00 0.75859406E+03</pdfrwt>
<pdfrwt beam="2">  1       -2 0.22637010E-01 0.75859406E+03</pdfrwt>
<totfact> 0.55235293E+02</totfact>
</mgrwt>
</event>
<event>
 4    1  0.5531008E-005  0.7083815E+03  0.7818608E-02  0.9703005E-01
         -2   -1    0    0    0  501 -0.00000000000E+00  0.00000000000E+00  0.38280878242E+03  0.38280878243E+03  0.25500000000E-02 0. -1.
          2   -1    0    0  501    0  0.00000000000E+00 -0.00000000000E+00 -0.32771215631E+03  0.32771215632E+03  0.25500000000E-02 0.  1.
    5000001    1    1    2    0    0  0.28960616040E+03 -0.10154879982E+03  0.91318664789E+02  0.36020547667E+03  0.16500000000E+03 0.  0.
   -5000001    1    1    2    0    0 -0.28960616040E+03  0.10154879982E+03 -0.36222038679E+02  0.35031546208E+03  0.16500000000E+03 0.  0.
<mgrwt>
<rscale>  0 0.70838151E+03</rscale>
<asrwt>0</asrwt>
<pdfrwt beam="1">  1        2 0.46816022E-01 0.70838151E+03</pdfrwt>
<pdfrwt beam="2">  1       -2 0.54686969E-01 0.70838151E+03</pdfrwt>
<totfact> 0.34289319E+02</totfact>
</mgrwt>
</event>
<event>
 4    1  0.5531008E-005  0.7063077E+03  0.7818608E-02  0.9706506E-01
         -2   -1    0    0    0  501 -0.00000000000E+00  0.00000000000E+00  0.27328095466E+03  0.27328095467E+03  0.25500000000E-02 0. -1.
          2   -1    0    0  501    0  0.00000000000E+00 -0.00000000000E+00 -0.45637148200E+03  0.45637148201E+03  0.25500000000E-02 0.  1.
    5000001    1    1    2    0    0  0.24479037840E+01 -0.21513687447E+03 -0.32530452489E+03  0.42348305858E+03  0.16500000000E+03 0.  0.
   -5000001    1    1    2    0    0 -0.24479037840E+01  0.21513687447E+03  0.14221399754E+03  0.30616937810E+03  0.16500000000E+03 0.  0.
<mgrwt>
<rscale>  0 0.70630768E+03</rscale>
<asrwt>0</asrwt>
<pdfrwt beam="1">  1        2 0.65195926E-01 0.70630768E+03</pdfrwt>
<pdfrwt beam="2">  1       -2 0.39040136E-01 0.70630768E+03</pdfrwt>
<totfact> 0.46514165E+02</totfact>
</mgrwt>
</event>
<event>
 4    1  0.5531008E-005  0.4449486E+03  0.7818608E-02  0.1029239E+00
          2   -1    0    0  501    0  0.00000000000E+00  0.00000000000E+00  0.24299627646E+04  0.24299627646E+04  0.25500000000E-02 0.  1.
         -2   -1    0    0    0  501 -0.00000000000E+00 -0.00000000000E+00 -0.20368545667E+02  0.20368545826E+02  0.25500000000E-02 0. -1.
    5000001    1    1    2    0    0  0.39961073855E+02 -0.79982507307E+02  0.54681515049E+03  0.57812273585E+03  0.16500000000E+03 0.  0.
   -5000001    1    1    2    0    0 -0.39961073855E+02  0.79982507307E+02  0.18627790684E+04  0.18722085745E+04  0.16500000000E+03 0.  0.
<mgrwt>
<rscale>  0 0.44494857E+03</rscale>
<asrwt>0</asrwt>
<pdfrwt beam="1">  1        2 0.34713779E+00 0.44494857E+03</pdfrwt>
<pdfrwt beam="2">  1       -2 0.29097901E-02 0.44494857E+03</pdfrwt>
<totfact> 0.23823323E+03</totfact>
</mgrwt>
</event>
<event>
 4    1  0.5531008E-005  0.7185654E+03  0.7818608E-02  0.9685999E-01
          2   -1    0    0  501    0  0.00000000000E+00  0.00000000000E+00  0.11530942096E+04  0.11530942096E+04  0.25500000000E-02 0.  1.
         -2   -1    0    0    0  501 -0.00000000000E+00 -0.00000000000E+00 -0.11194581852E+03  0.11194581855E+03  0.25500000000E-02 0. -1.
    5000001    1    1    2    0    0  0.10101424117E+03 -0.30153014223E+03  0.47285269352E+03  0.59324444655E+03  0.16500000000E+03 0.  0.
   -5000001    1    1    2    0    0 -0.10101424117E+03  0.30153014223E+03  0.56829569757E+03  0.67179558160E+03  0.16500000000E+03 0.  0.
<mgrwt>
<rscale>  0 0.71856545E+03</rscale>
<asrwt>0</asrwt>
<pdfrwt beam="1">  1        2 0.16472775E+00 0.71856545E+03</pdfrwt>
<pdfrwt beam="2">  1       -2 0.15992260E-01 0.71856545E+03</pdfrwt>
<totfact> 0.71852079E+02</totfact>
</mgrwt>
</event>
<event>
 4    1  0.5531008E-005  0.3991532E+03  0.7818608E-02  0.1044073E+00
          2   -1    0    0  501    0  0.00000000000E+00  0.00000000000E+00  0.26580372602E+03  0.26580372603E+03  0.25500000000E-02 0.  1.
         -2   -1    0    0    0  501 -0.00000000000E+00 -0.00000000000E+00 -0.14985046580E+03  0.14985046582E+03  0.25500000000E-02 0. -1.
    5000001    1    1    2    0    0  0.57894891181E+02 -0.58724556760E+02  0.13731977618E+03  0.22996111176E+03  0.16500000000E+03 0.  0.
   -5000001    1    1    2    0    0 -0.57894891181E+02  0.58724556760E+02 -0.21366515961E+02  0.18569308010E+03  0.16500000000E+03 0.  0.
<mgrwt>
<rscale>  0 0.39915316E+03</rscale>
<asrwt>0</asrwt>
<pdfrwt beam="1">  1        2 0.37971961E-01 0.39915316E+03</pdfrwt>
<pdfrwt beam="2">  1       -2 0.21407210E-01 0.39915316E+03</pdfrwt>
<totfact> 0.25451774E+03</totfact>
</mgrwt>
</event>
<event>
 4    1  0.5531008E-005  0.4550579E+03  0.7818608E-02  0.1026224E+00
          2   -1    0    0  501    0  0.00000000000E+00  0.00000000000E+00  0.71579792812E+02  0.71579792857E+02  0.25500000000E-02 0.  1.
         -2   -1    0    0    0  501 -0.00000000000E+00 -0.00000000000E+00 -0.72324061815E+03  0.72324061815E+03  0.25500000000E-02 0. -1.
    5000001    1    1    2    0    0 -0.61108920284E+02 -0.10740412246E+03 -0.15762231652E+03  0.25949901796E+03  0.16500000000E+03 0.  0.
   -5000001    1    1    2    0    0  0.61108920284E+02  0.10740412246E+03 -0.49403850882E+03  0.53532139305E+03  0.16500000000E+03 0.  0.
<mgrwt>
<rscale>  0 0.45505786E+03</rscale>
<asrwt>0</asrwt>
<pdfrwt beam="1">  1        2 0.10225685E-01 0.45505786E+03</pdfrwt>
<pdfrwt beam="2">  1       -2 0.10332008E+00 0.45505786E+03</pdfrwt>
<totfact> 0.49797980E+02</totfact>
</mgrwt>
</event>
<event>
 4    1  0.5531008E-005  0.5462117E+03  0.7818608E-02  0.1002375E+00
         -2   -1    0    0    0  501 -0.00000000000E+00  0.00000000000E+00  0.23708950238E+02  0.23708950375E+02  0.25500000000E-02 0. -1.
          2   -1    0    0  501    0  0.00000000000E+00 -0.00000000000E+00 -0.31459346990E+04  0.31459346990E+04  0.25500000000E-02 0.  1.
    5000001    1    1    2    0    0 -0.11850089382E+03 -0.12037015240E+03 -0.76480886672E+03  0.80043053292E+03  0.16500000000E+03 0.  0.
   -5000001    1    1    2    0    0  0.11850089382E+03  0.12037015240E+03 -0.23574168820E+04  0.23692131165E+04  0.16500000000E+03 0.  0.
<mgrwt>
<rscale>  0 0.54621172E+03</rscale>
<asrwt>0</asrwt>
<pdfrwt beam="1">  1        2 0.44941897E+00 0.54621172E+03</pdfrwt>
<pdfrwt beam="2">  1       -2 0.33869949E-02 0.54621172E+03</pdfrwt>
<totfact> 0.78750370E+02</totfact>
</mgrwt>
</event>
<event>
 4    1  0.5531008E-005  0.5822305E+03  0.7818608E-02  0.9942974E-01
          2   -1    0    0  501    0  0.00000000000E+00  0.00000000000E+00  0.84825124913E+03  0.84825124913E+03  0.25500000000E-02 0.  1.
         -2   -1    0    0    0  501 -0.00000000000E+00 -0.00000000000E+00 -0.99909183366E+02  0.99909183399E+02  0.25500000000E-02 0. -1.
    5000001    1    1    2    0    0 -0.62230768376E+02 -0.20308673862E+03  0.55555805961E+03  0.61724115995E+03  0.16500000000E+03 0.  0.
   -5000001    1    1    2    0    0  0.62230768376E+02  0.20308673862E+03  0.19278400615E+03  0.33091927258E+03  0.16500000000E+03 0.  0.
<mgrwt>
<rscale>  0 0.58223050E+03</rscale>
<asrwt>0</asrwt>
<pdfrwt beam="1">  1        2 0.12117874E+00 0.58223050E+03</pdfrwt>
<pdfrwt beam="2">  1       -2 0.14272741E-01 0.58223050E+03</pdfrwt>
<totfact> 0.13446401E+03</totfact>
</mgrwt>
</event>
<event>
 4    1  0.5531008E-005  0.1140117E+04  0.7818608E-02  0.9166950E-01
          2   -1    0    0  501    0  0.00000000000E+00  0.00000000000E+00  0.87025184923E+03  0.87025184923E+03  0.25500000000E-02 0.  1.
         -2   -1    0    0    0  501 -0.00000000000E+00 -0.00000000000E+00 -0.37341668127E+03  0.37341668128E+03  0.25500000000E-02 0. -1.
    5000001    1    1    2    0    0  0.46478470552E+03 -0.26666012101E+03  0.36077322685E+03  0.66671940412E+03  0.16500000000E+03 0.  0.
   -5000001    1    1    2    0    0 -0.46478470552E+03  0.26666012101E+03  0.13606194111E+03  0.57694912639E+03  0.16500000000E+03 0.  0.
<mgrwt>
<rscale>  0 0.11401168E+04</rscale>
<asrwt>0</asrwt>
<pdfrwt beam="1">  1        2 0.12432169E+00 0.11401168E+04</pdfrwt>
<pdfrwt beam="2">  1       -2 0.53345240E-01 0.11401168E+04</pdfrwt>
<totfact> 0.11165560E+02</totfact>
</mgrwt>
</event>
<event>
 4    1  0.5531008E-005  0.4471413E+03  0.7818608E-02  0.1028578E+00
          2   -1    0    0  501    0  0.00000000000E+00  0.00000000000E+00  0.47023665105E+03  0.47023665106E+03  0.25500000000E-02 0.  1.
         -2   -1    0    0    0  501 -0.00000000000E+00 -0.00000000000E+00 -0.10629505803E+03  0.10629505806E+03  0.25500000000E-02 0. -1.
    5000001    1    1    2    0    0 -0.12486747580E+03  0.64191625838E+02  0.11080512994E+03  0.24334179288E+03  0.16500000000E+03 0.  0.
   -5000001    1    1    2    0    0  0.12486747580E+03 -0.64191625838E+02  0.25313646309E+03  0.33318991624E+03  0.16500000000E+03 0.  0.
<mgrwt>
<rscale>  0 0.44714128E+03</rscale>
<asrwt>0</asrwt>
<pdfrwt beam="1">  1        2 0.67176666E-01 0.44714128E+03</pdfrwt>
<pdfrwt beam="2">  1       -2 0.15185008E-01 0.44714128E+03</pdfrwt>
<totfact> 0.24489768E+03</totfact>
</mgrwt>
</event>
<event>
 4    1  0.5531008E-005  0.5349929E+03  0.7818608E-02  0.1005028E+00
         -2   -1    0    0    0  501 -0.00000000000E+00  0.00000000000E+00  0.34274409499E+02  0.34274409594E+02  0.25500000000E-02 0. -1.
          2   -1    0    0  501    0  0.00000000000E+00 -0.00000000000E+00 -0.20876901589E+04  0.20876901589E+04  0.25500000000E-02 0.  1.
    5000001    1    1    2    0    0 -0.73581622110E+02  0.12986434443E+03 -0.16156841598E+04  0.16309320364E+04  0.16500000000E+03 0.  0.
   -5000001    1    1    2    0    0  0.73581622110E+02 -0.12986434443E+03 -0.43773158967E+03  0.49103253218E+03  0.16500000000E+03 0.  0.
<mgrwt>
<rscale>  0 0.53499289E+03</rscale>
<asrwt>0</asrwt>
<pdfrwt beam="1">  1        2 0.29824137E+00 0.53499289E+03</pdfrwt>
<pdfrwt beam="2">  1       -2 0.48963456E-02 0.53499289E+03</pdfrwt>
<totfact> 0.15918050E+03</totfact>
</mgrwt>
</event>
<event>
 4    1  0.5531008E-005  0.3506196E+03  0.7818608E-02  0.1062361E+00
          2   -1    0    0  501    0  0.00000000000E+00  0.00000000000E+00  0.14608804226E+04  0.14608804226E+04  0.25500000000E-02 0.  1.
         -2   -1    0    0    0  501 -0.00000000000E+00 -0.00000000000E+00 -0.21037674324E+02  0.21037674478E+02  0.25500000000E-02 0. -1.
    5000001    1    1    2    0    0 -0.51612488065E+02 -0.37708117286E+01  0.84172130267E+03  0.85930077348E+03  0.16500000000E+03 0.  0.
   -5000001    1    1    2    0    0  0.51612488065E+02  0.37708117286E+01  0.59812144560E+03  0.62261732359E+03  0.16500000000E+03 0.  0.
<mgrwt>
<rscale>  0 0.35061960E+03</rscale>
<asrwt>0</asrwt>
<pdfrwt beam="1">  1        2 0.20869722E+00 0.35061960E+03</pdfrwt>
<pdfrwt beam="2">  1       -2 0.30053819E-02 0.35061960E+03</pdfrwt>
<totfact> 0.69271039E+03</totfact>
</mgrwt>
</event>
<event>
 4    1  0.5531008E-005  0.5929185E+03  0.7818608E-02  0.9920208E-01
         -2   -1    0    0    0  501 -0.00000000000E+00  0.00000000000E+00  0.20301539262E+04  0.20301539262E+04  0.25500000000E-02 0. -1.
          2   -1    0    0  501    0  0.00000000000E+00 -0.00000000000E+00 -0.43291337800E+02  0.43291337876E+02  0.25500000000E-02 0.  1.
    5000001    1    1    2    0    0 -0.99127048047E+02  0.17661533100E+03  0.14835618869E+04  0.15063864109E+04  0.16500000000E+03 0.  0.
   -5000001    1    1    2    0    0  0.99127048047E+02 -0.17661533100E+03  0.50330070154E+03  0.56705885318E+03  0.16500000000E+03 0.  0.
<mgrwt>
<rscale>  0 0.59291847E+03</rscale>
<asrwt>0</asrwt>
<pdfrwt beam="1">  1        2 0.61844778E-02 0.59291847E+03</pdfrwt>
<pdfrwt beam="2">  1       -2 0.29002195E+00 0.59291847E+03</pdfrwt>
<totfact> 0.47920134E+01</totfact>
</mgrwt>
</event>
<event>
 4    1  0.5531008E-005  0.4805239E+03  0.7818608E-02  0.1018991E+00
         -2   -1    0    0    0  501 -0.00000000000E+00  0.00000000000E+00  0.14322140895E+02  0.14322141122E+02  0.25500000000E-02 0. -1.
          2   -1    0    0  501    0  0.00000000000E+00 -0.00000000000E+00 -0.40305286235E+04  0.40305286235E+04  0.25500000000E-02 0.  1.
    5000001    1    1    2    0    0  0.67006350554E+02  0.11500693995E+03 -0.10563444648E+04  0.10774066435E+04  0.16500000000E+03 0.  0.
   -5000001    1    1    2    0    0 -0.67006350554E+02 -0.11500693995E+03 -0.29598620178E+04  0.29674441211E+04  0.16500000000E+03 0.  0.
<mgrwt>
<rscale>  0 0.48052388E+03</rscale>
<asrwt>0</asrwt>
<pdfrwt beam="1">  1        2 0.57578908E+00 0.48052388E+03</pdfrwt>
<pdfrwt beam="2">  1       -2 0.20460227E-02 0.48052388E+03</pdfrwt>
<totfact> 0.49518110E+02</totfact>
</mgrwt>
</event>
<event>
 4    1  0.5531008E-005  0.5827943E+03  0.7818608E-02  0.9941760E-01
          2   -1    0    0  501    0  0.00000000000E+00  0.00000000000E+00  0.15988388670E+04  0.15988388670E+04  0.25500000000E-02 0.  1.
         -2   -1    0    0    0  501 -0.00000000000E+00 -0.00000000000E+00 -0.53108733213E+02  0.53108733275E+02  0.25500000000E-02 0. -1.
    5000001    1    1    2    0    0  0.20936293936E+03  0.11765457599E+03  0.76310042856E+03  0.81683701171E+03  0.16500000000E+03 0.  0.
   -5000001    1    1    2    0    0 -0.20936293936E+03 -0.11765457599E+03  0.78262970519E+03  0.83511058853E+03  0.16500000000E+03 0.  0.
<mgrwt>
<rscale>  0 0.58279433E+03</rscale>
<asrwt>0</asrwt>
<pdfrwt beam="1">  1        2 0.22840555E+00 0.58279433E+03</pdfrwt>
<pdfrwt beam="2">  1       -2 0.75869619E-02 0.58279433E+03</pdfrwt>
<totfact> 0.14114042E+03</totfact>
</mgrwt>
</event>
<event>
 4    1  0.5531008E-005  0.4390747E+03  0.7818608E-02  0.1031031E+00
          2   -1    0    0  501    0  0.00000000000E+00  0.00000000000E+00  0.12348201498E+04  0.12348201498E+04  0.25500000000E-02 0.  1.
         -2   -1    0    0    0  501 -0.00000000000E+00 -0.00000000000E+00 -0.39031315018E+02  0.39031315101E+02  0.25500000000E-02 0. -1.
    5000001    1    1    2    0    0 -0.64955004023E+02  0.92037039177E+02  0.86191616898E+03  0.88476802128E+03  0.16500000000E+03 0.  0.
   -5000001    1    1    2    0    0  0.64955004023E+02 -0.92037039177E+02  0.33387266575E+03  0.38908344358E+03  0.16500000000E+03 0.  0.
<mgrwt>
<rscale>  0 0.43907473E+03</rscale>
<asrwt>0</asrwt>
<pdfrwt beam="1">  1        2 0.17640290E+00 0.43907473E+03</pdfrwt>
<pdfrwt beam="2">  1       -2 0.55759016E-02 0.43907473E+03</pdfrwt>
<totfact> 0.35678955E+03</totfact>
</mgrwt>
</event>
<event>
 4    1  0.5531008E-005  0.5587639E+03  0.7818608E-02  0.9994856E-01
         -2   -1    0    0    0  501 -0.00000000000E+00  0.00000000000E+00  0.68181832357E+02  0.68181832405E+02  0.25500000000E-02 0. -1.
          2   -1    0    0  501    0  0.00000000000E+00 -0.00000000000E+00 -0.11447955800E+04  0.11447955800E+04  0.25500000000E-02 0.  1.
    5000001    1    1    2    0    0  0.30522708213E+02  0.15908315198E+03 -0.19789458874E+03  0.30434577903E+03  0.16500000000E+03 0.  0.
   -5000001    1    1    2    0    0 -0.30522708213E+02 -0.15908315198E+03 -0.87871915892E+03  0.90863163340E+03  0.16500000000E+03 0.  0.
<mgrwt>
<rscale>  0 0.55876385E+03</rscale>
<asrwt>0</asrwt>
<pdfrwt beam="1">  1        2 0.16354221E+00 0.55876385E+03</pdfrwt>
<pdfrwt beam="2">  1       -2 0.97402625E-02 0.55876385E+03</pdfrwt>
<totfact> 0.16584576E+03</totfact>
</mgrwt>
</event>
<event>
 4    1  0.5531008E-005  0.5245473E+03  0.7818608E-02  0.1007563E+00
          2   -1    0    0  501    0  0.00000000000E+00  0.00000000000E+00  0.31879550161E+03  0.31879550162E+03  0.25500000000E-02 0.  1.
         -2   -1    0    0    0  501 -0.00000000000E+00 -0.00000000000E+00 -0.21577302009E+03  0.21577302011E+03  0.25500000000E-02 0. -1.
    5000001    1    1    2    0    0 -0.18800227226E+03  0.78670483564E+02  0.46064146815E+02  0.26623449247E+03  0.16500000000E+03 0.  0.
   -5000001    1    1    2    0    0  0.18800227226E+03 -0.78670483564E+02  0.56958334700E+02  0.26833402925E+03  0.16500000000E+03 0.  0.
<mgrwt>
<rscale>  0 0.52454730E+03</rscale>
<asrwt>0</asrwt>
<pdfrwt beam="1">  1        2 0.45542214E-01 0.52454730E+03</pdfrwt>
<pdfrwt beam="2">  1       -2 0.30824718E-01 0.52454730E+03</pdfrwt>
<totfact> 0.10867255E+03</totfact>
</mgrwt>
</event>
<event>
 4    1  0.5531008E-005  0.1263231E+04  0.7818608E-02  0.9059243E-01
          2   -1    0    0  501    0  0.00000000000E+00  0.00000000000E+00  0.26771423629E+04  0.26771423630E+04  0.25500000000E-02 0.  1.
         -2   -1    0    0    0  501 -0.00000000000E+00 -0.00000000000E+00 -0.14901634954E+03  0.14901634956E+03  0.25500000000E-02 0. -1.
    5000001    1    1    2    0    0 -0.69657600259E+01  0.60592167339E+03  0.11135944739E+04  0.12784784896E+04  0.16500000000E+03 0.  0.
   -5000001    1    1    2    0    0  0.69657600259E+01 -0.60592167339E+03  0.14145315395E+04  0.15476802229E+04  0.16500000000E+03 0.  0.
<mgrwt>
<rscale>  0 0.12632308E+04</rscale>
<asrwt>0</asrwt>
<pdfrwt beam="1">  1        2 0.38244889E+00 0.12632308E+04</pdfrwt>
<pdfrwt beam="2">  1       -2 0.21288051E-01 0.12632308E+04</pdfrwt>
<totfact> 0.67111310E+01</totfact>
</mgrwt>
</event>
<event>
 4    1  0.5531008E-005  0.8030908E+03  0.7818608E-02  0.9555554E-01
         -2   -1    0    0    0  501 -0.00000000000E+00  0.00000000000E+00  0.10639585155E+03  0.10639585158E+03  0.25500000000E-02 0. -1.
          2   -1    0    0  501    0  0.00000000000E+00 -0.00000000000E+00 -0.15154603442E+04  0.15154603442E+04  0.25500000000E-02 0.  1.
    5000001    1    1    2    0    0 -0.12927674233E+02  0.36584934054E+03 -0.70637112933E+03  0.81252571472E+03  0.16500000000E+03 0.  0.
   -5000001    1    1    2    0    0  0.12927674233E+02 -0.36584934054E+03 -0.70269336335E+03  0.80933048110E+03  0.16500000000E+03 0.  0.
<mgrwt>
<rscale>  0 0.80309076E+03</rscale>
<asrwt>0</asrwt>
<pdfrwt beam="1">  1        2 0.21649432E+00 0.80309076E+03</pdfrwt>
<pdfrwt beam="2">  1       -2 0.15199408E-01 0.80309076E+03</pdfrwt>
<totfact> 0.49503705E+02</totfact>
</mgrwt>
</event>
<event>
 4    1  0.5531008E-005  0.4367003E+03  0.7818608E-02  0.1031764E+00
          2   -1    0    0  501    0  0.00000000000E+00  0.00000000000E+00  0.11793045924E+04  0.11793045924E+04  0.25500000000E-02 0. -1.
         -2   -1    0    0    0  501 -0.00000000000E+00 -0.00000000000E+00 -0.40427889514E+02  0.40427889594E+02  0.25500000000E-02 0.  1.
    5000001    1    1    2    0    0  0.14095912724E+03 -0.19600933257E+02  0.60875253452E+03  0.64657429613E+03  0.16500000000E+03 0.  0.
   -5000001    1    1    2    0    0 -0.14095912724E+03  0.19600933257E+02  0.53012416838E+03  0.57315818588E+03  0.16500000000E+03 0.  0.
<mgrwt>
<rscale>  0 0.43670034E+03</rscale>
<asrwt>0</asrwt>
<pdfrwt beam="1">  1        2 0.16847209E+00 0.43670034E+03</pdfrwt>
<pdfrwt beam="2">  1       -2 0.57754125E-02 0.43670034E+03</pdfrwt>
<totfact> 0.36258992E+03</totfact>
</mgrwt>
</event>
<event>
 4    1  0.5531008E-005  0.3827722E+03  0.7818608E-02  0.1049914E+00
         -2   -1    0    0    0  501 -0.00000000000E+00  0.00000000000E+00  0.29665516667E+03  0.29665516668E+03  0.25500000000E-02 0. -1.
          2   -1    0    0  501    0  0.00000000000E+00 -0.00000000000E+00 -0.12347212814E+03  0.12347212817E+03  0.25500000000E-02 0.  1.
    5000001    1    1    2    0    0 -0.67711752780E+02  0.64249322517E+02  0.57743710994E+02  0.19817212990E+03  0.16500000000E+03 0.  0.
   -5000001    1    1    2    0    0  0.67711752780E+02 -0.64249322517E+02  0.11543932753E+03  0.22195516495E+03  0.16500000000E+03 0.  0.
<mgrwt>
<rscale>  0 0.38277223E+03</rscale>
<asrwt>0</asrwt>
<pdfrwt beam="1">  1        2 0.17638876E-01 0.38277223E+03</pdfrwt>
<pdfrwt beam="2">  1       -2 0.42379309E-01 0.38277223E+03</pdfrwt>
<totfact> 0.17252206E+03</totfact>
</mgrwt>
</event>
<event>
 4    1  0.5531008E-005  0.4002087E+03  0.7818608E-02  0.1043707E+00
         -2   -1    0    0    0  501 -0.00000000000E+00  0.00000000000E+00  0.45221410468E+02  0.45221410540E+02  0.25500000000E-02 0. -1.
          2   -1    0    0  501    0  0.00000000000E+00 -0.00000000000E+00 -0.88545995407E+03  0.88545995407E+03  0.25500000000E-02 0.  1.
    5000001    1    1    2    0    0  0.35043464207E+02  0.10366353679E+03 -0.35261694422E+03  0.40439817333E+03  0.16500000000E+03 0.  0.
   -5000001    1    1    2    0    0 -0.35043464207E+02 -0.10366353679E+03 -0.48762159938E+03  0.52628319128E+03  0.16500000000E+03 0.  0.
<mgrwt>
<rscale>  0 0.40020869E+03</rscale>
<asrwt>0</asrwt>
<pdfrwt beam="1">  1        2 0.12649427E+00 0.40020869E+03</pdfrwt>
<pdfrwt beam="2">  1       -2 0.64602021E-02 0.40020869E+03</pdfrwt>
<totfact> 0.45499341E+03</totfact>
</mgrwt>
</event>
<event>
 4    1  0.5531008E-005  0.4022562E+03  0.7818608E-02  0.1043001E+00
         -2   -1    0    0    0  501 -0.00000000000E+00  0.00000000000E+00  0.31488050765E+03  0.31488050766E+03  0.25500000000E-02 0. -1.
          2   -1    0    0  501    0  0.00000000000E+00 -0.00000000000E+00 -0.12846941003E+03  0.12846941006E+03  0.25500000000E-02 0.  1.
    5000001    1    1    2    0    0 -0.74120411174E+02  0.38640944059E+02  0.18027293277E+03  0.25828334867E+03  0.16500000000E+03 0.  0.
   -5000001    1    1    2    0    0  0.74120411174E+02 -0.38640944059E+02  0.61381648448E+01  0.18506656905E+03  0.16500000000E+03 0.  0.
<mgrwt>
<rscale>  0 0.40225620E+03</rscale>
<asrwt>0</asrwt>
<pdfrwt beam="1">  1        2 0.18352773E-01 0.40225620E+03</pdfrwt>
<pdfrwt beam="2">  1       -2 0.44982930E-01 0.40225620E+03</pdfrwt>
<totfact> 0.14664159E+03</totfact>
</mgrwt>
</event>
<event>
 4    1  0.5531008E-005  0.5460066E+03  0.7818608E-02  0.1002422E+00
         -2   -1    0    0    0  501 -0.00000000000E+00  0.00000000000E+00  0.39618737836E+03  0.39618737837E+03  0.25500000000E-02 0. -1.
          2   -1    0    0  501    0  0.00000000000E+00 -0.00000000000E+00 -0.18812006952E+03  0.18812006953E+03  0.25500000000E-02 0.  1.
    5000001    1    1    2    0    0 -0.15975296186E+03  0.12270798518E+03  0.16258491107E+02  0.26089767531E+03  0.16500000000E+03 0.  0.
   -5000001    1    1    2    0    0  0.15975296186E+03 -0.12270798518E+03  0.19180881774E+03  0.32340977260E+03  0.16500000000E+03 0.  0.
<mgrwt>
<rscale>  0 0.54600658E+03</rscale>
<asrwt>0</asrwt>
<pdfrwt beam="1">  1        2 0.26874296E-01 0.54600658E+03</pdfrwt>
<pdfrwt beam="2">  1       -2 0.56598196E-01 0.54600658E+03</pdfrwt>
<totfact> 0.59489785E+02</totfact>
</mgrwt>
</event>
<event>
 4    1  0.5531008E-005  0.5649405E+03  0.7818608E-02  0.9980938E-01
         -2   -1    0    0    0  501 -0.00000000000E+00  0.00000000000E+00  0.10024678186E+03  0.10024678189E+03  0.25500000000E-02 0. -1.
          2   -1    0    0  501    0  0.00000000000E+00 -0.00000000000E+00 -0.79593008862E+03  0.79593008862E+03  0.25500000000E-02 0.  1.
    5000001    1    1    2    0    0  0.14272247791E+03  0.17851154867E+03 -0.31909677944E+03  0.42577439256E+03  0.16500000000E+03 0.  0.
   -5000001    1    1    2    0    0 -0.14272247791E+03 -0.17851154867E+03 -0.37658652732E+03  0.47040247795E+03  0.16500000000E+03 0.  0.
<mgrwt>
<rscale>  0 0.56494046E+03</rscale>
<asrwt>0</asrwt>
<pdfrwt beam="1">  1        2 0.11370430E+00 0.56494046E+03</pdfrwt>
<pdfrwt beam="2">  1       -2 0.14320969E-01 0.56494046E+03</pdfrwt>
<totfact> 0.14516500E+03</totfact>
</mgrwt>
</event>
<event>
 4    1  0.5531008E-005  0.4478154E+03  0.7818608E-02  0.1028376E+00
          2   -1    0    0  501    0  0.00000000000E+00  0.00000000000E+00  0.19948615810E+04  0.19948615810E+04  0.25500000000E-02 0.  1.
         -2   -1    0    0    0  501 -0.00000000000E+00 -0.00000000000E+00 -0.25131893980E+02  0.25131894110E+02  0.25500000000E-02 0. -1.
    5000001    1    1    2    0    0  0.11051855892E+03 -0.88178763957E+02  0.74112428689E+03  0.77232121226E+03  0.16500000000E+03 0.  0.
   -5000001    1    1    2    0    0 -0.11051855892E+03  0.88178763957E+02  0.12286054001E+04  0.12476722629E+04  0.16500000000E+03 0.  0.
<mgrwt>
<rscale>  0 0.44781536E+03</rscale>
<asrwt>0</asrwt>
<pdfrwt beam="1">  1        2 0.28498028E+00 0.44781536E+03</pdfrwt>
<pdfrwt beam="2">  1       -2 0.35902699E-02 0.44781536E+03</pdfrwt>
<totfact> 0.28588207E+03</totfact>
</mgrwt>
</event>
<event>
 4    1  0.5531008E-005  0.3794236E+03  0.7818608E-02  0.1051147E+00
          2   -1    0    0  501    0  0.00000000000E+00  0.00000000000E+00  0.16231437515E+04  0.16231437515E+04  0.25500000000E-02 0.  1.
         -2   -1    0    0    0  501 -0.00000000000E+00 -0.00000000000E+00 -0.22173371636E+02  0.22173371783E+02  0.25500000000E-02 0. -1.
    5000001    1    1    2    0    0  0.56466978068E+02  0.39392464895E+02  0.52536433276E+03  0.55495312238E+03  0.16500000000E+03 0.  0.
   -5000001    1    1    2    0    0 -0.56466978068E+02 -0.39392464895E+02  0.10756060471E+04  0.10903640009E+04  0.16500000000E+03 0.  0.
<mgrwt>
<rscale>  0 0.37942361E+03</rscale>
<asrwt>0</asrwt>
<pdfrwt beam="1">  1        2 0.23187763E+00 0.37942361E+03</pdfrwt>
<pdfrwt beam="2">  1       -2 0.31676252E-02 0.37942361E+03</pdfrwt>
<totfact> 0.52978335E+03</totfact>
</mgrwt>
</event>
<event>
 4    1  0.5531008E-005  0.9105373E+03  0.7818608E-02  0.9412504E-01
         -2   -1    0    0    0  501 -0.00000000000E+00  0.00000000000E+00  0.50657911634E+03  0.50657911635E+03  0.25500000000E-02 0. -1.
          2   -1    0    0  501    0  0.00000000000E+00 -0.00000000000E+00 -0.40915533906E+03  0.40915533906E+03  0.25500000000E-02 0.  1.
    5000001    1    1    2    0    0  0.13366759739E+02  0.29728349558E+03  0.35290882147E+03  0.49023033697E+03  0.16500000000E+03 0.  0.
   -5000001    1    1    2    0    0 -0.13366759739E+02 -0.29728349558E+03 -0.25548504418E+03  0.42550411845E+03  0.16500000000E+03 0.  0.
<mgrwt>
<rscale>  0 0.91053731E+03</rscale>
<asrwt>0</asrwt>
<pdfrwt beam="1">  1        2 0.58450762E-01 0.91053731E+03</pdfrwt>
<pdfrwt beam="2">  1       -2 0.72368446E-01 0.91053731E+03</pdfrwt>
<totfact> 0.14619286E+02</totfact>
</mgrwt>
</event>
<event>
 4    1  0.5531008E-005  0.5616220E+03  0.7818608E-02  0.9988391E-01
         -2   -1    0    0    0  501 -0.00000000000E+00  0.00000000000E+00  0.18831626695E+03  0.18831626697E+03  0.25500000000E-02 0. -1.
          2   -1    0    0  501    0  0.00000000000E+00 -0.00000000000E+00 -0.41873602911E+03  0.41873602912E+03  0.25500000000E-02 0.  1.
    5000001    1    1    2    0    0  0.20831023201E+03  0.63673362207E+02 -0.45307410212E+02  0.27699316099E+03  0.16500000000E+03 0.  0.
   -5000001    1    1    2    0    0 -0.20831023201E+03 -0.63673362207E+02 -0.18511235194E+03  0.33005913509E+03  0.16500000000E+03 0.  0.
<mgrwt>
<rscale>  0 0.56162196E+03</rscale>
<asrwt>0</asrwt>
<pdfrwt beam="1">  1        2 0.59819433E-01 0.56162196E+03</pdfrwt>
<pdfrwt beam="2">  1       -2 0.26902324E-01 0.56162196E+03</pdfrwt>
<totfact> 0.10316508E+03</totfact>
</mgrwt>
</event>
<event>
 4    1  0.5531008E-005  0.5136608E+03  0.7818608E-02  0.1010273E+00
         -2   -1    0    0    0  501 -0.00000000000E+00  0.00000000000E+00  0.61670777806E+02  0.61670777859E+02  0.25500000000E-02 0. -1.
          2   -1    0    0  501    0  0.00000000000E+00 -0.00000000000E+00 -0.10695804218E+04  0.10695804218E+04  0.25500000000E-02 0.  1.
    5000001    1    1    2    0    0 -0.75947128238E+02 -0.18155146745E+03 -0.49774325224E+03  0.56009128431E+03  0.16500000000E+03 0.  0.
   -5000001    1    1    2    0    0  0.75947128238E+02  0.18155146745E+03 -0.51016639177E+03  0.57115991535E+03  0.16500000000E+03 0.  0.
<mgrwt>
<rscale>  0 0.51366081E+03</rscale>
<asrwt>0</asrwt>
<pdfrwt beam="1">  1        2 0.15279719E+00 0.51366081E+03</pdfrwt>
<pdfrwt beam="2">  1       -2 0.88101117E-02 0.51366081E+03</pdfrwt>
<totfact> 0.21551346E+03</totfact>
</mgrwt>
</event>
<event>
 4    1  0.5531008E-005  0.4852347E+03  0.7818608E-02  0.1017706E+00
          2   -1    0    0  501    0  0.00000000000E+00  0.00000000000E+00  0.57690323055E+03  0.57690323055E+03  0.25500000000E-02 0.  1.
         -2   -1    0    0    0  501 -0.00000000000E+00 -0.00000000000E+00 -0.10203300923E+03  0.10203300926E+03  0.25500000000E-02 0. -1.
    5000001    1    1    2    0    0  0.15041212099E+03  0.83257971008E+02  0.30128604339E+03  0.38412755150E+03  0.16500000000E+03 0.  0.
   -5000001    1    1    2    0    0 -0.15041212099E+03 -0.83257971008E+02  0.17358417793E+03  0.29480868831E+03  0.16500000000E+03 0.  0.
<mgrwt>
<rscale>  0 0.48523468E+03</rscale>
<asrwt>0</asrwt>
<pdfrwt beam="1">  1        2 0.82414746E-01 0.48523468E+03</pdfrwt>
<pdfrwt beam="2">  1       -2 0.14576144E-01 0.48523468E+03</pdfrwt>
<totfact> 0.20802566E+03</totfact>
</mgrwt>
</event>
<event>
 4    1  0.5531008E-005  0.5550020E+03  0.7818608E-02  0.1000343E+00
         -2   -1    0    0    0  501 -0.00000000000E+00  0.00000000000E+00  0.74748006984E+02  0.74748007027E+02  0.25500000000E-02 0. -1.
          2   -1    0    0  501    0  0.00000000000E+00 -0.00000000000E+00 -0.10302188542E+04  0.10302188542E+04  0.25500000000E-02 0.  1.
    5000001    1    1    2    0    0 -0.21179932807E+03 -0.58142689530E+02 -0.55592270127E+03  0.62009239433E+03  0.16500000000E+03 0.  0.
   -5000001    1    1    2    0    0  0.21179932807E+03  0.58142689530E+02 -0.39954814590E+03  0.48487446686E+03  0.16500000000E+03 0.  0.
<mgrwt>
<rscale>  0 0.55500200E+03</rscale>
<asrwt>0</asrwt>
<pdfrwt beam="1">  1        2 0.14717411E+00 0.55500200E+03</pdfrwt>
<pdfrwt beam="2">  1       -2 0.10678287E-01 0.55500200E+03</pdfrwt>
<totfact> 0.16667704E+03</totfact>
</mgrwt>
</event>
<event>
 4    1  0.5531008E-005  0.5284517E+03  0.7818608E-02  0.1006608E+00
          2   -1    0    0  501    0  0.00000000000E+00  0.00000000000E+00  0.75375466436E+02  0.75375466479E+02  0.25500000000E-02 0.  1.
         -2   -1    0    0    0  501 -0.00000000000E+00 -0.00000000000E+00 -0.92623389809E+03  0.92623389809E+03  0.25500000000E-02 0. -1.
    5000001    1    1    2    0    0  0.16337859030E+03 -0.77280438165E+02 -0.61425828260E+03  0.66121332990E+03  0.16500000000E+03 0.  0.
   -5000001    1    1    2    0    0 -0.16337859030E+03  0.77280438165E+02 -0.23660014905E+03  0.34039603467E+03  0.16500000000E+03 0.  0.
<mgrwt>
<rscale>  0 0.52845175E+03</rscale>
<asrwt>0</asrwt>
<pdfrwt beam="1">  1        2 0.10767924E-01 0.52845175E+03</pdfrwt>
<pdfrwt beam="2">  1       -2 0.13231912E+00 0.52845175E+03</pdfrwt>
<totfact> 0.25489040E+02</totfact>
</mgrwt>
</event>
<event>
 4    1  0.5531008E-005  0.4833829E+03  0.7818608E-02  0.1018210E+00
          2   -1    0    0  501    0  0.00000000000E+00  0.00000000000E+00  0.92943469365E+03  0.92943469365E+03  0.25500000000E-02 0.  1.
         -2   -1    0    0    0  501 -0.00000000000E+00 -0.00000000000E+00 -0.62849759936E+02  0.62849759988E+02  0.25500000000E-02 0. -1.
    5000001    1    1    2    0    0  0.10586843865E+03 -0.13503412373E+03  0.51910326014E+03  0.57108277471E+03  0.16500000000E+03 0.  0.
   -5000001    1    1    2    0    0 -0.10586843865E+03  0.13503412373E+03  0.34748167357E+03  0.42120167894E+03  0.16500000000E+03 0.  0.
<mgrwt>
<rscale>  0 0.48338286E+03</rscale>
<asrwt>0</asrwt>
<pdfrwt beam="1">  1        2 0.13277638E+00 0.48338286E+03</pdfrwt>
<pdfrwt beam="2">  1       -2 0.89785373E-02 0.48338286E+03</pdfrwt>
<totfact> 0.25425864E+03</totfact>
</mgrwt>
</event>
<event>
 4    1  0.5531008E-005  0.9429379E+03  0.7818608E-02  0.9373443E-01
          2   -1    0    0  501    0  0.00000000000E+00  0.00000000000E+00  0.60798533476E+03  0.60798533477E+03  0.25500000000E-02 0.  1.
         -2   -1    0    0    0  501 -0.00000000000E+00 -0.00000000000E+00 -0.36560582151E+03  0.36560582152E+03  0.25500000000E-02 0. -1.
    5000001    1    1    2    0    0  0.18552535891E+03 -0.30797933476E+03 -0.14363813457E+03  0.42086558798E+03  0.16500000000E+03 0.  0.
   -5000001    1    1    2    0    0 -0.18552535891E+03  0.30797933476E+03  0.38601764782E+03  0.55272556831E+03  0.16500000000E+03 0.  0.
<mgrwt>
<rscale>  0 0.94293791E+03</rscale>
<asrwt>0</asrwt>
<pdfrwt beam="1">  1        2 0.86855047E-01 0.94293791E+03</pdfrwt>
<pdfrwt beam="2">  1       -2 0.52229404E-01 0.94293791E+03</pdfrwt>
<totfact> 0.18503039E+02</totfact>
</mgrwt>
</event>
<event>
 4    1  0.5531008E-005  0.4040521E+03  0.7818608E-02  0.1042386E+00
         -2   -1    0    0    0  501 -0.00000000000E+00  0.00000000000E+00  0.22618399712E+02  0.22618399856E+02  0.25500000000E-02 0. -1.
          2   -1    0    0  501    0  0.00000000000E+00 -0.00000000000E+00 -0.18044832058E+04  0.18044832058E+04  0.25500000000E-02 0.  1.
    5000001    1    1    2    0    0  0.59240068798E+02  0.86283851925E+02 -0.11230643486E+04  0.11399354455E+04  0.16500000000E+03 0.  0.
   -5000001    1    1    2    0    0 -0.59240068798E+02 -0.86283851925E+02 -0.65880045752E+03  0.68716616017E+03  0.16500000000E+03 0.  0.
<mgrwt>
<rscale>  0 0.40405209E+03</rscale>
<asrwt>0</asrwt>
<pdfrwt beam="1">  1        2 0.25778322E+00 0.40405209E+03</pdfrwt>
<pdfrwt beam="2">  1       -2 0.32312011E-02 0.40405209E+03</pdfrwt>
<totfact> 0.41728303E+03</totfact>
</mgrwt>
</event>
<event>
 4    1  0.5531008E-005  0.4415608E+03  0.7818608E-02  0.1030269E+00
          2   -1    0    0  501    0  0.00000000000E+00  0.00000000000E+00  0.72291734894E+03  0.72291734895E+03  0.25500000000E-02 0.  1.
         -2   -1    0    0    0  501 -0.00000000000E+00 -0.00000000000E+00 -0.67426762166E+02  0.67426762214E+02  0.25500000000E-02 0. -1.
    5000001    1    1    2    0    0  0.10190949643E+03  0.34140369162E+02  0.50644623590E+03  0.54338191001E+03  0.16500000000E+03 0.  0.
   -5000001    1    1    2    0    0 -0.10190949643E+03 -0.34140369162E+02  0.14904435087E+03  0.24696220115E+03  0.16500000000E+03 0.  0.
<mgrwt>
<rscale>  0 0.44156076E+03</rscale>
<asrwt>0</asrwt>
<pdfrwt beam="1">  1        2 0.10327392E+00 0.44156076E+03</pdfrwt>
<pdfrwt beam="2">  1       -2 0.96323937E-02 0.44156076E+03</pdfrwt>
<totfact> 0.31309737E+03</totfact>
</mgrwt>
</event>
<event>
 4    1  0.5531008E-005  0.1844124E+04  0.7818608E-02  0.8683181E-01
          2   -1    0    0  501    0  0.00000000000E+00  0.00000000000E+00  0.21510731459E+04  0.21510731459E+04  0.25500000000E-02 0.  1.
         -2   -1    0    0    0  501 -0.00000000000E+00 -0.00000000000E+00 -0.39524365131E+03  0.39524365132E+03  0.25500000000E-02 0. -1.
    5000001    1    1    2    0    0 -0.20512235092E+03 -0.79472044820E+03  0.14114675039E+04  0.16410732111E+04  0.16500000000E+03 0.  0.
   -5000001    1    1    2    0    0  0.20512235092E+03  0.79472044820E+03  0.34436199074E+03  0.90524358617E+03  0.16500000000E+03 0.  0.
<mgrwt>
<rscale>  0 0.18441236E+04</rscale>
<asrwt>0</asrwt>
<pdfrwt beam="1">  1        2 0.30729616E+00 0.18441236E+04</pdfrwt>
<pdfrwt beam="2">  1       -2 0.56463379E-01 0.18441236E+04</pdfrwt>
<totfact> 0.18617585E+01</totfact>
</mgrwt>
</event>
<event>
 4    1  0.5531008E-005  0.4089775E+03  0.7818608E-02  0.1040715E+00
          2   -1    0    0  501    0  0.00000000000E+00  0.00000000000E+00  0.13525658062E+04  0.13525658062E+04  0.25500000000E-02 0.  1.
         -2   -1    0    0    0  501 -0.00000000000E+00 -0.00000000000E+00 -0.30915799936E+02  0.30915800041E+02  0.25500000000E-02 0. -1.
    5000001    1    1    2    0    0  0.42224024739E+02  0.54545048432E+02  0.99626021439E+03  0.10121844918E+04  0.16500000000E+03 0.  0.
   -5000001    1    1    2    0    0 -0.42224024739E+02 -0.54545048432E+02  0.32538979189E+03  0.37129711451E+03  0.16500000000E+03 0.  0.
<mgrwt>
<rscale>  0 0.40897752E+03</rscale>
<asrwt>0</asrwt>
<pdfrwt beam="1">  1        2 0.19322367E+00 0.40897752E+03</pdfrwt>
<pdfrwt beam="2">  1       -2 0.44165431E-02 0.40897752E+03</pdfrwt>
<totfact> 0.44121438E+03</totfact>
</mgrwt>
</event>
<event>
 4    1  0.5531008E-005  0.4260686E+03  0.7818608E-02  0.1035109E+00
          2   -1    0    0  501    0  0.00000000000E+00  0.00000000000E+00  0.30095554432E+03  0.30095554433E+03  0.25500000000E-02 0.  1.
         -2   -1    0    0    0  501 -0.00000000000E+00 -0.00000000000E+00 -0.15079837351E+03  0.15079837353E+03  0.25500000000E-02 0. -1.
    5000001    1    1    2    0    0 -0.49446299327E+02  0.12346556593E+03  0.52094020406E+02  0.21823718622E+03  0.16500000000E+03 0.  0.
   -5000001    1    1    2    0    0  0.49446299327E+02 -0.12346556593E+03  0.98063150406E+02  0.23351673164E+03  0.16500000000E+03 0.  0.
<mgrwt>
<rscale>  0 0.42606857E+03</rscale>
<asrwt>0</asrwt>
<pdfrwt beam="1">  1        2 0.42993650E-01 0.42606857E+03</pdfrwt>
<pdfrwt beam="2">  1       -2 0.21542625E-01 0.42606857E+03</pdfrwt>
<totfact> 0.21998351E+03</totfact>
</mgrwt>
</event>
<event>
 4    1  0.5531008E-005  0.4935546E+03  0.7818608E-02  0.1015475E+00
          2   -1    0    0  501    0  0.00000000000E+00  0.00000000000E+00  0.50869171478E+03  0.50869171478E+03  0.25500000000E-02 0.  1.
         -2   -1    0    0    0  501 -0.00000000000E+00 -0.00000000000E+00 -0.11971698577E+03  0.11971698580E+03  0.25500000000E-02 0. -1.
    5000001    1    1    2    0    0 -0.10989689942E+03 -0.14690842442E+03  0.19935655497E+03  0.31721829972E+03  0.16500000000E+03 0.  0.
   -5000001    1    1    2    0    0  0.10989689942E+03  0.14690842442E+03  0.18961817404E+03  0.31119040087E+03  0.16500000000E+03 0.  0.
<mgrwt>
<rscale>  0 0.49355461E+03</rscale>
<asrwt>0</asrwt>
<pdfrwt beam="1">  1        2 0.72670246E-01 0.49355461E+03</pdfrwt>
<pdfrwt beam="2">  1       -2 0.17102426E-01 0.49355461E+03</pdfrwt>
<totfact> 0.18356075E+03</totfact>
</mgrwt>
</event>
<event>
 4    1  0.5531008E-005  0.1380930E+04  0.7818608E-02  0.8967739E-01
         -2   -1    0    0    0  501 -0.00000000000E+00  0.00000000000E+00  0.18547079230E+03  0.18547079232E+03  0.25500000000E-02 0. -1.
          2   -1    0    0  501    0  0.00000000000E+00 -0.00000000000E+00 -0.25704430264E+04  0.25704430264E+04  0.25500000000E-02 0.  1.
    5000001    1    1    2    0    0  0.12898036501E+03  0.59678189879E+03 -0.17453060021E+04  0.18563681236E+04  0.16500000000E+03 0.  0.
   -5000001    1    1    2    0    0 -0.12898036501E+03 -0.59678189879E+03 -0.63966623198E+03  0.89954569512E+03  0.16500000000E+03 0.  0.
<mgrwt>
<rscale>  0 0.13809303E+04</rscale>
<asrwt>0</asrwt>
<pdfrwt beam="1">  1        2 0.36720612E+00 0.13809303E+04</pdfrwt>
<pdfrwt beam="2">  1       -2 0.26495829E-01 0.13809303E+04</pdfrwt>
<totfact> 0.51064503E+01</totfact>
</mgrwt>
</event>
<event>
 4    1  0.5531008E-005  0.6046910E+03  0.7818608E-02  0.9895721E-01
         -2   -1    0    0    0  501 -0.00000000000E+00  0.00000000000E+00  0.10831827085E+03  0.10831827088E+03  0.25500000000E-02 0. -1.
          2   -1    0    0  501    0  0.00000000000E+00 -0.00000000000E+00 -0.84392786570E+03  0.84392786571E+03  0.25500000000E-02 0.  1.
    5000001    1    1    2    0    0  0.13312005865E+03  0.20312791402E+03 -0.48142719052E+03  0.56389630186E+03  0.16500000000E+03 0.  0.
   -5000001    1    1    2    0    0 -0.13312005865E+03 -0.20312791402E+03 -0.25418240433E+03  0.38834983474E+03  0.16500000000E+03 0.  0.
<mgrwt>
<rscale>  0 0.60469102E+03</rscale>
<asrwt>0</asrwt>
<pdfrwt beam="1">  1        2 0.12056112E+00 0.60469102E+03</pdfrwt>
<pdfrwt beam="2">  1       -2 0.15474039E-01 0.60469102E+03</pdfrwt>
<totfact> 0.11812285E+03</totfact>
</mgrwt>
</event>
<event>
 4    1  0.5531008E-005  0.5576809E+03  0.7818608E-02  0.9997316E-01
         -2   -1    0    0    0  501 -0.00000000000E+00  0.00000000000E+00  0.20775688285E+02  0.20775688442E+02  0.25500000000E-02 0. -1.
          2   -1    0    0  501    0  0.00000000000E+00 -0.00000000000E+00 -0.37424507803E+04  0.37424507803E+04  0.25500000000E-02 0.  1.
    5000001    1    1    2    0    0  0.22145288315E+03 -0.31014005101E+02 -0.20152682968E+04  0.20343388499E+04  0.16500000000E+03 0.  0.
   -5000001    1    1    2    0    0 -0.22145288315E+03  0.31014005101E+02 -0.17064067953E+04  0.17288876189E+04  0.16500000000E+03 0.  0.
<mgrwt>
<rscale>  0 0.55768088E+03</rscale>
<asrwt>0</asrwt>
<pdfrwt beam="1">  1        2 0.53463540E+00 0.55768088E+03</pdfrwt>
<pdfrwt beam="2">  1       -2 0.29679579E-02 0.55768088E+03</pdfrwt>
<totfact> 0.42919000E+02</totfact>
</mgrwt>
</event>
<event>
 4    1  0.5531008E-005  0.7706720E+03  0.7818608E-02  0.9603466E-01
         -2   -1    0    0    0  501 -0.00000000000E+00  0.00000000000E+00  0.83530046563E+02  0.83530046602E+02  0.25500000000E-02 0. -1.
          2   -1    0    0  501    0  0.00000000000E+00 -0.00000000000E+00 -0.17776096543E+04  0.17776096543E+04  0.25500000000E-02 0.  1.
    5000001    1    1    2    0    0 -0.33695345513E+03 -0.76016715036E+02 -0.74059948281E+03  0.83368385244E+03  0.16500000000E+03 0.  0.
   -5000001    1    1    2    0    0  0.33695345513E+03  0.76016715036E+02 -0.95348012488E+03  0.10274558484E+04  0.16500000000E+03 0.  0.
<mgrwt>
<rscale>  0 0.77067196E+03</rscale>
<asrwt>0</asrwt>
<pdfrwt beam="1">  1        2 0.25394421E+00 0.77067196E+03</pdfrwt>
<pdfrwt beam="2">  1       -2 0.11932865E-01 0.77067196E+03</pdfrwt>
<totfact> 0.54433650E+02</totfact>
</mgrwt>
</event>
<event>
 4    1  0.5531008E-005  0.3800760E+03  0.7818608E-02  0.1050906E+00
         -2   -1    0    0    0  501 -0.00000000000E+00  0.00000000000E+00  0.39108484795E+03  0.39108484795E+03  0.25500000000E-02 0. -1.
          2   -1    0    0  501    0  0.00000000000E+00 -0.00000000000E+00 -0.92344273238E+02  0.92344273273E+02  0.25500000000E-02 0.  1.
    5000001    1    1    2    0    0 -0.41666573043E+02  0.84523549932E+02  0.15320979497E+03  0.24408722842E+03  0.16500000000E+03 0.  0.
   -5000001    1    1    2    0    0  0.41666573043E+02 -0.84523549932E+02  0.14553077974E+03  0.23934189281E+03  0.16500000000E+03 0.  0.
<mgrwt>
<rscale>  0 0.38007602E+03</rscale>
<asrwt>0</asrwt>
<pdfrwt beam="1">  1        2 0.13192039E-01 0.38007602E+03</pdfrwt>
<pdfrwt beam="2">  1       -2 0.55869264E-01 0.38007602E+03</pdfrwt>
<totfact> 0.14050651E+03</totfact>
</mgrwt>
</event>
<event>
 4    1  0.5531008E-005  0.4835119E+03  0.7818608E-02  0.1018174E+00
          2   -1    0    0  501    0  0.00000000000E+00  0.00000000000E+00  0.11036915766E+04  0.11036915766E+04  0.25500000000E-02 0.  1.
         -2   -1    0    0    0  501 -0.00000000000E+00 -0.00000000000E+00 -0.52954945500E+02  0.52954945561E+02  0.25500000000E-02 0. -1.
    5000001    1    1    2    0    0 -0.30096042070E+02 -0.11849856267E+03  0.83053044140E+03  0.85554280734E+03  0.16500000000E+03 0.  0.
   -5000001    1    1    2    0    0  0.30096042070E+02  0.11849856267E+03  0.22020618974E+03  0.30110371486E+03  0.16500000000E+03 0.  0.
<mgrwt>
<rscale>  0 0.48351185E+03</rscale>
<asrwt>0</asrwt>
<pdfrwt beam="1">  1        2 0.15767023E+00 0.48351185E+03</pdfrwt>
<pdfrwt beam="2">  1       -2 0.75649918E-02 0.48351185E+03</pdfrwt>
<totfact> 0.26235348E+03</totfact>
</mgrwt>
</event>
<event>
 4    1  0.5531008E-005  0.3614910E+03  0.7818608E-02  0.1057995E+00
         -2   -1    0    0    0  501 -0.00000000000E+00  0.00000000000E+00  0.19602930000E+02  0.19602930166E+02  0.25500000000E-02 0. -1.
          2   -1    0    0  501    0  0.00000000000E+00 -0.00000000000E+00 -0.16665332337E+04  0.16665332337E+04  0.25500000000E-02 0.  1.
    5000001    1    1    2    0    0 -0.65291254712E+01 -0.73490910763E+02 -0.82054842857E+03  0.84021917799E+03  0.16500000000E+03 0.  0.
   -5000001    1    1    2    0    0  0.65291254712E+01  0.73490910763E+02 -0.82638187516E+03  0.84591698590E+03  0.16500000000E+03 0.  0.
<mgrwt>
<rscale>  0 0.36149099E+03</rscale>
<asrwt>0</asrwt>
<pdfrwt beam="1">  1        2 0.23807609E+00 0.36149099E+03</pdfrwt>
<pdfrwt beam="2">  1       -2 0.28004196E-02 0.36149099E+03</pdfrwt>
<totfact> 0.60608059E+03</totfact>
</mgrwt>
</event>
<event>
 4    1  0.5531008E-005  0.5053100E+03  0.7818608E-02  0.1012402E+00
         -2   -1    0    0    0  501 -0.00000000000E+00  0.00000000000E+00  0.40413939339E+02  0.40413939419E+02  0.25500000000E-02 0. -1.
          2   -1    0    0  501    0  0.00000000000E+00 -0.00000000000E+00 -0.15795181958E+04  0.15795181958E+04  0.25500000000E-02 0.  1.
    5000001    1    1    2    0    0  0.16891002859E+03  0.43052313008E+02 -0.51660811661E+03  0.56964291057E+03  0.16500000000E+03 0.  0.
   -5000001    1    1    2    0    0 -0.16891002859E+03 -0.43052313008E+02 -0.10224961398E+04  0.10502892246E+04  0.16500000000E+03 0.  0.
<mgrwt>
<rscale>  0 0.50531001E+03</rscale>
<asrwt>0</asrwt>
<pdfrwt beam="1">  1        2 0.22564542E+00 0.50531001E+03</pdfrwt>
<pdfrwt beam="2">  1       -2 0.57734209E-02 0.50531001E+03</pdfrwt>
<totfact> 0.22236036E+03</totfact>
</mgrwt>
</event>
<event>
 4    1  0.5531008E-005  0.4306058E+03  0.7818608E-02  0.1033669E+00
         -2   -1    0    0    0  501 -0.00000000000E+00  0.00000000000E+00  0.38912805831E+02  0.38912805914E+02  0.25500000000E-02 0. -1.
          2   -1    0    0  501    0  0.00000000000E+00 -0.00000000000E+00 -0.11912618151E+04  0.11912618151E+04  0.25500000000E-02 0.  1.
    5000001    1    1    2    0    0 -0.83382226785E+02 -0.59579967249E+02 -0.31081097539E+03  0.36651170604E+03  0.16500000000E+03 0.  0.
   -5000001    1    1    2    0    0  0.83382226785E+02  0.59579967249E+02 -0.84153803387E+03  0.86366291497E+03  0.16500000000E+03 0.  0.
<mgrwt>
<rscale>  0 0.43060580E+03</rscale>
<asrwt>0</asrwt>
<pdfrwt beam="1">  1        2 0.17018024E+00 0.43060580E+03</pdfrwt>
<pdfrwt beam="2">  1       -2 0.55589730E-02 0.43060580E+03</pdfrwt>
<totfact> 0.37881609E+03</totfact>
</mgrwt>
</event>
<event>
 4    1  0.5531008E-005  0.9379208E+03  0.7818608E-02  0.9379382E-01
         -2   -1    0    0    0  501 -0.00000000000E+00  0.00000000000E+00  0.13474489266E+03  0.13474489269E+03  0.25500000000E-02 0. -1.
          2   -1    0    0  501    0  0.00000000000E+00 -0.00000000000E+00 -0.16321496846E+04  0.16321496846E+04  0.25500000000E-02 0.  1.
    5000001    1    1    2    0    0  0.31631909213E+03 -0.86674997533E+02 -0.12983470538E+04  0.13492592024E+04  0.16500000000E+03 0.  0.
   -5000001    1    1    2    0    0 -0.31631909213E+03  0.86674997533E+02 -0.19905773819E+03  0.41763537491E+03  0.16500000000E+03 0.  0.
<mgrwt>
<rscale>  0 0.93792075E+03</rscale>
<asrwt>0</asrwt>
<pdfrwt beam="1">  1        2 0.23316423E+00 0.93792075E+03</pdfrwt>
<pdfrwt beam="2">  1       -2 0.19249271E-01 0.93792075E+03</pdfrwt>
<totfact> 0.28447647E+02</totfact>
</mgrwt>
</event>
<event>
 4    1  0.5531008E-005  0.4145394E+03  0.7818608E-02  0.1038858E+00
          2   -1    0    0  501    0  0.00000000000E+00  0.00000000000E+00  0.49652646265E+03  0.49652646266E+03  0.25500000000E-02 0.  1.
         -2   -1    0    0    0  501 -0.00000000000E+00 -0.00000000000E+00 -0.86522519447E+02  0.86522519484E+02  0.25500000000E-02 0. -1.
    5000001    1    1    2    0    0 -0.15668365752E+02  0.97657493297E+02  0.96480456560E+02  0.21521143599E+03  0.16500000000E+03 0.  0.
   -5000001    1    1    2    0    0  0.15668365752E+02 -0.97657493297E+02  0.31352348665E+03  0.36783754616E+03  0.16500000000E+03 0.  0.
<mgrwt>
<rscale>  0 0.41453936E+03</rscale>
<asrwt>0</asrwt>
<pdfrwt beam="1">  1        2 0.70932353E-01 0.41453936E+03</pdfrwt>
<pdfrwt beam="2">  1       -2 0.12360360E-01 0.41453936E+03</pdfrwt>
<totfact> 0.32363142E+03</totfact>
</mgrwt>
</event>
<event>
 4    1  0.5531008E-005  0.5145271E+03  0.7818608E-02  0.1010055E+00
         -2   -1    0    0    0  501 -0.00000000000E+00  0.00000000000E+00  0.11253394089E+03  0.11253394092E+03  0.25500000000E-02 0. -1.
          2   -1    0    0  501    0  0.00000000000E+00 -0.00000000000E+00 -0.58812960720E+03  0.58812960720E+03  0.25500000000E-02 0.  1.
    5000001    1    1    2    0    0  0.11862347657E+03 -0.69223875779E+02 -0.44753618018E+02  0.21929742474E+03  0.16500000000E+03 0.  0.
   -5000001    1    1    2    0    0 -0.11862347657E+03  0.69223875779E+02 -0.43084204829E+03  0.48136612339E+03  0.16500000000E+03 0.  0.
<mgrwt>
<rscale>  0 0.51452713E+03</rscale>
<asrwt>0</asrwt>
<pdfrwt beam="1">  1        2 0.84018514E-01 0.51452713E+03</pdfrwt>
<pdfrwt beam="2">  1       -2 0.16076278E-01 0.51452713E+03</pdfrwt>
<totfact> 0.17258236E+03</totfact>
</mgrwt>
</event>
<event>
 4    1  0.5531008E-005  0.1010879E+04  0.7818608E-02  0.9296692E-01
         -2   -1    0    0    0  501 -0.00000000000E+00  0.00000000000E+00  0.13301441346E+03  0.13301441348E+03  0.25500000000E-02 0. -1.
          2   -1    0    0  501    0  0.00000000000E+00 -0.00000000000E+00 -0.19206133239E+04  0.19206133239E+04  0.25500000000E-02 0.  1.
    5000001    1    1    2    0    0  0.41102201953E+02 -0.44617624186E+03 -0.12305773748E+04  0.13199652666E+04  0.16500000000E+03 0.  0.
   -5000001    1    1    2    0    0 -0.41102201953E+02  0.44617624186E+03 -0.55702153570E+03  0.73366247079E+03  0.16500000000E+03 0.  0.
<mgrwt>
<rscale>  0 0.10108793E+04</rscale>
<asrwt>0</asrwt>
<pdfrwt beam="1">  1        2 0.27437332E+00 0.10108793E+04</pdfrwt>
<pdfrwt beam="2">  1       -2 0.19002060E-01 0.10108793E+04</pdfrwt>
<totfact> 0.20583626E+02</totfact>
</mgrwt>
</event>
<event>
 4    1  0.5531008E-005  0.5787681E+03  0.7818608E-02  0.9950462E-01
         -2   -1    0    0    0  501 -0.00000000000E+00  0.00000000000E+00  0.17835743933E+03  0.17835743935E+03  0.25500000000E-02 0. -1.
          2   -1    0    0  501    0  0.00000000000E+00 -0.00000000000E+00 -0.46952418073E+03  0.46952418074E+03  0.25500000000E-02 0.  1.
    5000001    1    1    2    0    0  0.15856835929E+03 -0.11741962168E+03  0.28682540146E+01  0.25722464696E+03  0.16500000000E+03 0.  0.
   -5000001    1    1    2    0    0 -0.15856835929E+03  0.11741962168E+03 -0.29403499542E+03  0.39065697313E+03  0.16500000000E+03 0.  0.
<mgrwt>
<rscale>  0 0.57876811E+03</rscale>
<asrwt>0</asrwt>
<pdfrwt beam="1">  1        2 0.67074883E-01 0.57876811E+03</pdfrwt>
<pdfrwt beam="2">  1       -2 0.25479634E-01 0.57876811E+03</pdfrwt>
<totfact> 0.10010173E+03</totfact>
</mgrwt>
</event>
<event>
 4    1  0.5531008E-005  0.4379835E+03  0.7818608E-02  0.1031367E+00
          2   -1    0    0  501    0  0.00000000000E+00  0.00000000000E+00  0.17707211304E+04  0.17707211304E+04  0.25500000000E-02 0.  1.
         -2   -1    0    0    0  501 -0.00000000000E+00 -0.00000000000E+00 -0.27083529053E+02  0.27083529173E+02  0.25500000000E-02 0. -1.
    5000001    1    1    2    0    0  0.98448352261E+02 -0.10504736884E+03  0.88131265282E+03  0.90811013637E+03  0.16500000000E+03 0.  0.
   -5000001    1    1    2    0    0 -0.98448352261E+02  0.10504736884E+03  0.86232494855E+03  0.88969452323E+03  0.16500000000E+03 0.  0.
<mgrwt>
<rscale>  0 0.43798346E+03</rscale>
<asrwt>0</asrwt>
<pdfrwt beam="1">  1        2 0.25296024E+00 0.43798346E+03</pdfrwt>
<pdfrwt beam="2">  1       -2 0.38690744E-02 0.43798346E+03</pdfrwt>
<totfact> 0.32999024E+03</totfact>
</mgrwt>
</event>
<event>
 4    1  0.5531008E-005  0.6732272E+03  0.7818608E-02  0.9764145E-01
         -2   -1    0    0    0  501 -0.00000000000E+00  0.00000000000E+00  0.54894698457E+02  0.54894698516E+02  0.25500000000E-02 0. -1.
          2   -1    0    0  501    0  0.00000000000E+00 -0.00000000000E+00 -0.20641103741E+04  0.20641103741E+04  0.25500000000E-02 0.  1.
    5000001    1    1    2    0    0 -0.24900709216E+03  0.41446097954E+02 -0.14752814930E+04  0.15057897577E+04  0.16500000000E+03 0.  0.
   -5000001    1    1    2    0    0  0.24900709216E+03 -0.41446097954E+02 -0.53393418263E+03  0.61321531485E+03  0.16500000000E+03 0.  0.
<mgrwt>
<rscale>  0 0.67322720E+03</rscale>
<asrwt>0</asrwt>
<pdfrwt beam="1">  1        2 0.29487286E+00 0.67322720E+03</pdfrwt>
<pdfrwt beam="2">  1       -2 0.78421011E-02 0.67322720E+03</pdfrwt>
<totfact> 0.77491407E+02</totfact>
</mgrwt>
</event>
<event>
 4    1  0.5531008E-005  0.6782928E+03  0.7818608E-02  0.9755092E-01
         -2   -1    0    0    0  501 -0.00000000000E+00  0.00000000000E+00  0.10943181148E+03  0.10943181151E+03  0.25500000000E-02 0. -1.
          2   -1    0    0  501    0  0.00000000000E+00 -0.00000000000E+00 -0.10510681953E+04  0.10510681953E+04  0.25500000000E-02 0.  1.
    5000001    1    1    2    0    0  0.23906175868E+03 -0.16919450825E+03 -0.39396047627E+03  0.51788721064E+03  0.16500000000E+03 0.  0.
   -5000001    1    1    2    0    0 -0.23906175868E+03  0.16919450825E+03 -0.54767590756E+03  0.64261279617E+03  0.16500000000E+03 0.  0.
<mgrwt>
<rscale>  0 0.67829285E+03</rscale>
<asrwt>0</asrwt>
<pdfrwt beam="1">  1        2 0.15015259E+00 0.67829285E+03</pdfrwt>
<pdfrwt beam="2">  1       -2 0.15633116E-01 0.67829285E+03</pdfrwt>
<totfact> 0.85789771E+02</totfact>
</mgrwt>
</event>
<event>
 4    1  0.5531008E-005  0.5420600E+03  0.7818608E-02  0.1003349E+00
          2   -1    0    0  501    0  0.00000000000E+00  0.00000000000E+00  0.13892920340E+03  0.13892920343E+03  0.25500000000E-02 0.  1.
         -2   -1    0    0    0  501 -0.00000000000E+00 -0.00000000000E+00 -0.52873875623E+03  0.52873875623E+03  0.25500000000E-02 0. -1.
    5000001    1    1    2    0    0 -0.18346989567E+03 -0.69349590647E+02 -0.30342013901E+03  0.39718931141E+03  0.16500000000E+03 0.  0.
   -5000001    1    1    2    0    0  0.18346989567E+03  0.69349590647E+02 -0.86389413815E+02  0.27047864825E+03  0.16500000000E+03 0.  0.
<mgrwt>
<rscale>  0 0.54205998E+03</rscale>
<asrwt>0</asrwt>
<pdfrwt beam="1">  1        2 0.19847029E-01 0.54205998E+03</pdfrwt>
<pdfrwt beam="2">  1       -2 0.75534107E-01 0.54205998E+03</pdfrwt>
<totfact> 0.45483872E+02</totfact>
</mgrwt>
</event>
<event>
 4    1  0.5531008E-005  0.4046891E+03  0.7818608E-02  0.1042168E+00
          2   -1    0    0  501    0  0.00000000000E+00  0.00000000000E+00  0.30263374462E+03  0.30263374463E+03  0.25500000000E-02 0.  1.
         -2   -1    0    0    0  501 -0.00000000000E+00 -0.00000000000E+00 -0.13528997598E+03  0.13528997600E+03  0.25500000000E-02 0. -1.
    5000001    1    1    2    0    0  0.63923841923E+02 -0.37531412798E+01  0.18979711854E+03  0.25951549056E+03  0.16500000000E+03 0.  0.
   -5000001    1    1    2    0    0 -0.63923841923E+02  0.37531412798E+01 -0.22453349897E+02  0.17840823007E+03  0.16500000000E+03 0.  0.
<mgrwt>
<rscale>  0 0.40468908E+03</rscale>
<asrwt>0</asrwt>
<pdfrwt beam="1">  1        2 0.43233392E-01 0.40468908E+03</pdfrwt>
<pdfrwt beam="2">  1       -2 0.19327139E-01 0.40468908E+03</pdfrwt>
<totfact> 0.26368195E+03</totfact>
</mgrwt>
</event>
<event>
 4    1  0.5531008E-005  0.7990623E+03  0.7818608E-02  0.9561375E-01
         -2   -1    0    0    0  501 -0.00000000000E+00  0.00000000000E+00  0.86508444500E+02  0.86508444537E+02  0.25500000000E-02 0. -1.
          2   -1    0    0  501    0  0.00000000000E+00 -0.00000000000E+00 -0.18451974180E+04  0.18451974180E+04  0.25500000000E-02 0.  1.
    5000001    1    1    2    0    0  0.18142151281E+02 -0.29737632691E+03 -0.37434091784E+03  0.50608096213E+03  0.16500000000E+03 0.  0.
   -5000001    1    1    2    0    0 -0.18142151281E+02  0.29737632691E+03 -0.13843480556E+04  0.14256249004E+04  0.16500000000E+03 0.  0.
<mgrwt>
<rscale>  0 0.79906235E+03</rscale>
<asrwt>0</asrwt>
<pdfrwt beam="1">  1        2 0.26359961E+00 0.79906235E+03</pdfrwt>
<pdfrwt beam="2">  1       -2 0.12358350E-01 0.79906235E+03</pdfrwt>
<totfact> 0.47371173E+02</totfact>
</mgrwt>
</event>
<event>
 4    1  0.5531008E-005  0.5392412E+03  0.7818608E-02  0.1004015E+00
          2   -1    0    0  501    0  0.00000000000E+00  0.00000000000E+00  0.13359241938E+04  0.13359241938E+04  0.25500000000E-02 0.  1.
         -2   -1    0    0    0  501 -0.00000000000E+00 -0.00000000000E+00 -0.54415709654E+02  0.54415709714E+02  0.25500000000E-02 0. -1.
    5000001    1    1    2    0    0 -0.19405835252E+03 -0.67943054070E+02  0.78650064798E+03  0.82950778903E+03  0.16500000000E+03 0.  0.
   -5000001    1    1    2    0    0  0.19405835252E+03  0.67943054070E+02  0.49500783614E+03  0.56083211447E+03  0.16500000000E+03 0.  0.
<mgrwt>
<rscale>  0 0.53924118E+03</rscale>
<asrwt>0</asrwt>
<pdfrwt beam="1">  1        2 0.19084628E+00 0.53924118E+03</pdfrwt>
<pdfrwt beam="2">  1       -2 0.77736741E-02 0.53924118E+03</pdfrwt>
<totfact> 0.18668963E+03</totfact>
</mgrwt>
</event>
<event>
 4    1  0.5531008E-005  0.4203644E+03  0.7818608E-02  0.1036948E+00
          2   -1    0    0  501    0  0.00000000000E+00  0.00000000000E+00  0.99751764906E+03  0.99751764906E+03  0.25500000000E-02 0.  1.
         -2   -1    0    0    0  501 -0.00000000000E+00 -0.00000000000E+00 -0.44286483239E+02  0.44286483312E+02  0.25500000000E-02 0. -1.
    5000001    1    1    2    0    0 -0.12965056432E+03 -0.11730718422E+02  0.47125979484E+03  0.51600162094E+03  0.16500000000E+03 0.  0.
   -5000001    1    1    2    0    0  0.12965056432E+03  0.11730718422E+02  0.48197137098E+03  0.52580251143E+03  0.16500000000E+03 0.  0.
<mgrwt>
<rscale>  0 0.42036436E+03</rscale>
<asrwt>0</asrwt>
<pdfrwt beam="1">  1        2 0.14250252E+00 0.42036436E+03</pdfrwt>
<pdfrwt beam="2">  1       -2 0.63266404E-02 0.42036436E+03</pdfrwt>
<totfact> 0.40072184E+03</totfact>
</mgrwt>
</event>
<event>
 4    1  0.5531008E-005  0.5342829E+03  0.7818608E-02  0.1005199E+00
         -2   -1    0    0    0  501 -0.00000000000E+00  0.00000000000E+00  0.45194223636E+03  0.45194223636E+03  0.25500000000E-02 0. -1.
          2   -1    0    0  501    0  0.00000000000E+00 -0.00000000000E+00 -0.15790637405E+03  0.15790637407E+03  0.25500000000E-02 0.  1.
    5000001    1    1    2    0    0 -0.36415901229E+02  0.19723737955E+03  0.75636249509E+02  0.27050793703E+03  0.16500000000E+03 0.  0.
   -5000001    1    1    2    0    0  0.36415901229E+02 -0.19723737955E+03  0.21839961280E+03  0.33934067340E+03  0.16500000000E+03 0.  0.
<mgrwt>
<rscale>  0 0.53428292E+03</rscale>
<asrwt>0</asrwt>
<pdfrwt beam="1">  1        2 0.22558054E-01 0.53428292E+03</pdfrwt>
<pdfrwt beam="2">  1       -2 0.64563176E-01 0.53428292E+03</pdfrwt>
<totfact> 0.55100004E+02</totfact>
</mgrwt>
</event>
<event>
 4    1  0.5531008E-005  0.4335224E+03  0.7818608E-02  0.1032753E+00
          2   -1    0    0  501    0  0.00000000000E+00  0.00000000000E+00  0.18517332234E+04  0.18517332234E+04  0.25500000000E-02 0.  1.
         -2   -1    0    0    0  501 -0.00000000000E+00 -0.00000000000E+00 -0.25373749812E+02  0.25373749941E+02  0.25500000000E-02 0. -1.
    5000001    1    1    2    0    0 -0.10836427914E+03 -0.84492684098E+02  0.78483756583E+03  0.81368104033E+03  0.16500000000E+03 0.  0.
   -5000001    1    1    2    0    0  0.10836427914E+03  0.84492684098E+02  0.10415219078E+04  0.10634259330E+04  0.16500000000E+03 0.  0.
<mgrwt>
<rscale>  0 0.43352239E+03</rscale>
<asrwt>0</asrwt>
<pdfrwt beam="1">  1        2 0.26453345E+00 0.43352239E+03</pdfrwt>
<pdfrwt beam="2">  1       -2 0.36248196E-02 0.43352239E+03</pdfrwt>
<totfact> 0.33203069E+03</totfact>
</mgrwt>
</event>
<event>
 4    1  0.5531008E-005  0.6490431E+03  0.7818608E-02  0.9808576E-01
          2   -1    0    0  501    0  0.00000000000E+00  0.00000000000E+00  0.98078698673E+03  0.98078698673E+03  0.25500000000E-02 0.  1.
         -2   -1    0    0    0  501 -0.00000000000E+00 -0.00000000000E+00 -0.10737726722E+03  0.10737726725E+03  0.25500000000E-02 0. -1.
    5000001    1    1    2    0    0 -0.44991427361E+02 -0.22948329310E+03  0.18022616993E+03  0.33822076027E+03  0.16500000000E+03 0.  0.
   -5000001    1    1    2    0    0  0.44991427361E+02  0.22948329310E+03  0.69318354958E+03  0.74994349371E+03  0.16500000000E+03 0.  0.
<mgrwt>
<rscale>  0 0.64904307E+03</rscale>
<asrwt>0</asrwt>
<pdfrwt beam="1">  1        2 0.14011243E+00 0.64904307E+03</pdfrwt>
<pdfrwt beam="2">  1       -2 0.15339609E-01 0.64904307E+03</pdfrwt>
<totfact> 0.97809932E+02</totfact>
</mgrwt>
</event>
<event>
 4    1  0.5531008E-005  0.6631670E+03  0.7818608E-02  0.9782381E-01
          2   -1    0    0  501    0  0.00000000000E+00  0.00000000000E+00  0.31515588251E+03  0.31515588252E+03  0.25500000000E-02 0.  1.
         -2   -1    0    0    0  501 -0.00000000000E+00 -0.00000000000E+00 -0.34886743388E+03  0.34886743389E+03  0.25500000000E-02 0. -1.
    5000001    1    1    2    0    0 -0.44828351058E+02  0.25698238705E+03  0.10443318773E+03  0.32585398419E+03  0.16500000000E+03 0.  0.
   -5000001    1    1    2    0    0  0.44828351058E+02 -0.25698238705E+03 -0.13814473910E+03  0.33816933222E+03  0.16500000000E+03 0.  0.
<mgrwt>
<rscale>  0 0.66316702E+03</rscale>
<asrwt>0</asrwt>
<pdfrwt beam="1">  1        2 0.45022269E-01 0.66316702E+03</pdfrwt>
<pdfrwt beam="2">  1       -2 0.49838205E-01 0.66316702E+03</pdfrwt>
<totfact> 0.43354282E+02</totfact>
</mgrwt>
</event>
<event>
 4    1  0.5531008E-005  0.5757513E+03  0.7818608E-02  0.9957032E-01
         -2   -1    0    0    0  501 -0.00000000000E+00  0.00000000000E+00  0.44321389746E+02  0.44321389819E+02  0.25500000000E-02 0. -1.
          2   -1    0    0  501    0  0.00000000000E+00 -0.00000000000E+00 -0.18698058104E+04  0.18698058104E+04  0.25500000000E-02 0.  1.
    5000001    1    1    2    0    0  0.22195549676E+03  0.59946836666E+02 -0.73715167726E+03  0.78960462325E+03  0.16500000000E+03 0.  0.
   -5000001    1    1    2    0    0 -0.22195549676E+03 -0.59946836666E+02 -0.10883327434E+04  0.11245225769E+04  0.16500000000E+03 0.  0.
<mgrwt>
<rscale>  0 0.57575131E+03</rscale>
<asrwt>0</asrwt>
<pdfrwt beam="1">  1        2 0.26711507E+00 0.57575131E+03</pdfrwt>
<pdfrwt beam="2">  1       -2 0.63316283E-02 0.57575131E+03</pdfrwt>
<totfact> 0.13688340E+03</totfact>
</mgrwt>
</event>
<event>
 4    1  0.5531008E-005  0.3982868E+03  0.7818608E-02  0.1044375E+00
          2   -1    0    0  501    0  0.00000000000E+00  0.00000000000E+00  0.12997104680E+03  0.12997104683E+03  0.25500000000E-02 0.  1.
         -2   -1    0    0    0  501 -0.00000000000E+00 -0.00000000000E+00 -0.30513018422E+03  0.30513018423E+03  0.25500000000E-02 0. -1.
    5000001    1    1    2    0    0  0.74984431047E+02  0.71761091790E+02 -0.43060178932E+02  0.19962840029E+03  0.16500000000E+03 0.  0.
   -5000001    1    1    2    0    0 -0.74984431047E+02 -0.71761091790E+02 -0.13209895848E+03  0.23547283076E+03  0.16500000000E+03 0.  0.
<mgrwt>
<rscale>  0 0.39828678E+03</rscale>
<asrwt>0</asrwt>
<pdfrwt beam="1">  1        2 0.18567293E-01 0.39828678E+03</pdfrwt>
<pdfrwt beam="2">  1       -2 0.43590026E-01 0.39828678E+03</pdfrwt>
<totfact> 0.15385647E+03</totfact>
</mgrwt>
</event>
<event>
 4    1  0.5531008E-005  0.7011194E+03  0.7818608E-02  0.9715320E-01
         -2   -1    0    0    0  501 -0.00000000000E+00  0.00000000000E+00  0.20679703927E+03  0.20679703928E+03  0.25500000000E-02 0. -1.
          2   -1    0    0  501    0  0.00000000000E+00 -0.00000000000E+00 -0.59426438914E+03  0.59426438915E+03  0.25500000000E-02 0.  1.
    5000001    1    1    2    0    0 -0.19655858434E+03 -0.23880239902E+03 -0.19635241796E+03  0.40179738040E+03  0.16500000000E+03 0.  0.
   -5000001    1    1    2    0    0  0.19655858434E+03  0.23880239902E+03 -0.19111493191E+03  0.39926404804E+03  0.16500000000E+03 0.  0.
<mgrwt>
<rscale>  0 0.70111944E+03</rscale>
<asrwt>0</asrwt>
<pdfrwt beam="1">  1        2 0.84894912E-01 0.70111944E+03</pdfrwt>
<pdfrwt beam="2">  1       -2 0.29542434E-01 0.70111944E+03</pdfrwt>
<totfact> 0.58147149E+02</totfact>
</mgrwt>
</event>
<event>
 4    1  0.5531008E-005  0.7673880E+03  0.7818608E-02  0.9608459E-01
         -2   -1    0    0    0  501 -0.00000000000E+00  0.00000000000E+00  0.10103134622E+04  0.10103134622E+04  0.25500000000E-02 0. -1.
          2   -1    0    0  501    0  0.00000000000E+00 -0.00000000000E+00 -0.14571821663E+03  0.14571821665E+03  0.25500000000E-02 0.  1.
    5000001    1    1    2    0    0 -0.28412165975E+03  0.17250318201E+03  0.57923335850E+03  0.68790896850E+03  0.16500000000E+03 0.  0.
   -5000001    1    1    2    0    0  0.28412165975E+03 -0.17250318201E+03  0.28536188703E+03  0.46812271032E+03  0.16500000000E+03 0.  0.
<mgrwt>
<rscale>  0 0.76738797E+03</rscale>
<asrwt>0</asrwt>
<pdfrwt beam="1">  1        2 0.20816888E-01 0.76738797E+03</pdfrwt>
<pdfrwt beam="2">  1       -2 0.14433050E+00 0.76738797E+03</pdfrwt>
<totfact> 0.90809818E+01</totfact>
</mgrwt>
</event>
<event>
 4    1  0.5531008E-005  0.3894679E+03  0.7818608E-02  0.1047489E+00
         -2   -1    0    0    0  501 -0.00000000000E+00  0.00000000000E+00  0.74649052986E+02  0.74649053029E+02  0.25500000000E-02 0.  1.
          2   -1    0    0  501    0  0.00000000000E+00 -0.00000000000E+00 -0.50799465479E+03  0.50799465480E+03  0.25500000000E-02 0. -1.
    5000001    1    1    2    0    0  0.47244456342E+02  0.91115068662E+02 -0.19761271957E+03  0.27714577632E+03  0.16500000000E+03 0.  0.
   -5000001    1    1    2    0    0 -0.47244456342E+02 -0.91115068662E+02 -0.23573288223E+03  0.30549793151E+03  0.16500000000E+03 0.  0.
<mgrwt>
<rscale>  0 0.38946794E+03</rscale>
<asrwt>0</asrwt>
<pdfrwt beam="1">  1        2 0.72570663E-01 0.38946794E+03</pdfrwt>
<pdfrwt beam="2">  1       -2 0.10664151E-01 0.38946794E+03</pdfrwt>
<totfact> 0.40044854E+03</totfact>
</mgrwt>
</event>
<event>
 4    1  0.5531008E-005  0.5368391E+03  0.7818608E-02  0.1004587E+00
          2   -1    0    0  501    0  0.00000000000E+00  0.00000000000E+00  0.17463270129E+04  0.17463270129E+04  0.25500000000E-02 0.  1.
         -2   -1    0    0    0  501 -0.00000000000E+00 -0.00000000000E+00 -0.41257487694E+02  0.41257487773E+02  0.25500000000E-02 0. -1.
    5000001    1    1    2    0    0 -0.19321218285E+03  0.47239698601E+02  0.61100070537E+03  0.66340741531E+03  0.16500000000E+03 0.  0.
   -5000001    1    1    2    0    0  0.19321218285E+03 -0.47239698601E+02  0.10940688198E+04  0.11241770854E+04  0.16500000000E+03 0.  0.
<mgrwt>
<rscale>  0 0.53683914E+03</rscale>
<asrwt>0</asrwt>
<pdfrwt beam="1">  1        2 0.24947519E+00 0.53683914E+03</pdfrwt>
<pdfrwt beam="2">  1       -2 0.58939290E-02 0.53683914E+03</pdfrwt>
<totfact> 0.17698012E+03</totfact>
</mgrwt>
</event>
<event>
 4    1  0.5531008E-005  0.5256571E+03  0.7818608E-02  0.1007291E+00
          2   -1    0    0  501    0  0.00000000000E+00  0.00000000000E+00  0.25599556273E+03  0.25599556275E+03  0.25500000000E-02 0.  1.
         -2   -1    0    0    0  501 -0.00000000000E+00 -0.00000000000E+00 -0.26984389353E+03  0.26984389354E+03  0.25500000000E-02 0. -1.
    5000001    1    1    2    0    0 -0.17256484570E+03 -0.10490214186E+03  0.25809566390E+02  0.26205766361E+03  0.16500000000E+03 0.  0.
   -5000001    1    1    2    0    0  0.17256484570E+03  0.10490214186E+03 -0.39657897185E+02  0.26378179268E+03  0.16500000000E+03 0.  0.
<mgrwt>
<rscale>  0 0.52565707E+03</rscale>
<asrwt>0</asrwt>
<pdfrwt beam="1">  1        2 0.36570795E-01 0.52565707E+03</pdfrwt>
<pdfrwt beam="2">  1       -2 0.38549127E-01 0.52565707E+03</pdfrwt>
<totfact> 0.90764679E+02</totfact>
</mgrwt>
</event>
<event>
 4    1  0.5531008E-005  0.4088826E+03  0.7818608E-02  0.1040747E+00
          2   -1    0    0  501    0  0.00000000000E+00  0.00000000000E+00  0.26809209973E+03  0.26809209974E+03  0.25500000000E-02 0.  1.
         -2   -1    0    0    0  501 -0.00000000000E+00 -0.00000000000E+00 -0.15590259045E+03  0.15590259047E+03  0.25500000000E-02 0. -1.
    5000001    1    1    2    0    0 -0.10850144749E+03  0.48694970718E+02  0.34654793519E+02  0.20632430539E+03  0.16500000000E+03 0.  0.
   -5000001    1    1    2    0    0  0.10850144749E+03 -0.48694970718E+02  0.77534715765E+02  0.21767038482E+03  0.16500000000E+03 0.  0.
<mgrwt>
<rscale>  0 0.40888264E+03</rscale>
<asrwt>0</asrwt>
<pdfrwt beam="1">  1        2 0.38298871E-01 0.40888264E+03</pdfrwt>
<pdfrwt beam="2">  1       -2 0.22271799E-01 0.40888264E+03</pdfrwt>
<totfact> 0.23538516E+03</totfact>
</mgrwt>
</event>
<event>
 4    1  0.5531008E-005  0.5277944E+03  0.7818608E-02  0.1006768E+00
          2   -1    0    0  501    0  0.00000000000E+00  0.00000000000E+00  0.87623213049E+03  0.87623213049E+03  0.25500000000E-02 0.  1.
         -2   -1    0    0    0  501 -0.00000000000E+00 -0.00000000000E+00 -0.79478628621E+02  0.79478628662E+02  0.25500000000E-02 0. -1.
    5000001    1    1    2    0    0  0.11445643805E+03 -0.12463577669E+03  0.61095740655E+03  0.65507885453E+03  0.16500000000E+03 0.  0.
   -5000001    1    1    2    0    0 -0.11445643805E+03  0.12463577669E+03  0.18579609532E+03  0.30063190462E+03  0.16500000000E+03 0.  0.
<mgrwt>
<rscale>  0 0.52779438E+03</rscale>
<asrwt>0</asrwt>
<pdfrwt beam="1">  1        2 0.12517601E+00 0.52779438E+03</pdfrwt>
<pdfrwt beam="2">  1       -2 0.11354091E-01 0.52779438E+03</pdfrwt>
<totfact> 0.18818613E+03</totfact>
</mgrwt>
</event>
<event>
 4    1  0.5531008E-005  0.3748620E+03  0.7818608E-02  0.1052849E+00
         -2   -1    0    0    0  501 -0.00000000000E+00  0.00000000000E+00  0.80105714788E+02  0.80105714828E+02  0.25500000000E-02 0. -1.
          2   -1    0    0  501    0  0.00000000000E+00 -0.00000000000E+00 -0.43855016053E+03  0.43855016054E+03  0.25500000000E-02 0.  1.
    5000001    1    1    2    0    0  0.68920787834E+02 -0.31349354529E+02 -0.11473264748E+03  0.21475902175E+03  0.16500000000E+03 0.  0.
   -5000001    1    1    2    0    0 -0.68920787834E+02  0.31349354529E+02 -0.24371179826E+03  0.30389685362E+03  0.16500000000E+03 0.  0.
<mgrwt>
<rscale>  0 0.37486197E+03</rscale>
<asrwt>0</asrwt>
<pdfrwt beam="1">  1        2 0.62650022E-01 0.37486197E+03</pdfrwt>
<pdfrwt beam="2">  1       -2 0.11443674E-01 0.37486197E+03</pdfrwt>
<totfact> 0.42039036E+03</totfact>
</mgrwt>
</event>
<event>
 4    1  0.5531008E-005  0.4344281E+03  0.7818608E-02  0.1032470E+00
          2   -1    0    0  501    0  0.00000000000E+00  0.00000000000E+00  0.51355033033E+03  0.51355033034E+03  0.25500000000E-02 0.  1.
         -2   -1    0    0    0  501 -0.00000000000E+00 -0.00000000000E+00 -0.91874019134E+02  0.91874019169E+02  0.25500000000E-02 0. -1.
    5000001    1    1    2    0    0  0.11347924325E+03 -0.32089498704E+02  0.10244360555E+03  0.22721568364E+03  0.16500000000E+03 0.  0.
   -5000001    1    1    2    0    0 -0.11347924325E+03  0.32089498704E+02  0.31923270565E+03  0.37820866586E+03  0.16500000000E+03 0.  0.
<mgrwt>
<rscale>  0 0.43442805E+03</rscale>
<asrwt>0</asrwt>
<pdfrwt beam="1">  1        2 0.73364333E-01 0.43442805E+03</pdfrwt>
<pdfrwt beam="2">  1       -2 0.13124860E-01 0.43442805E+03</pdfrwt>
<totfact> 0.28251040E+03</totfact>
</mgrwt>
</event>
<event>
 4    1  0.5531008E-005  0.1094767E+04  0.7818608E-02  0.9210307E-01
         -2   -1    0    0    0  501 -0.00000000000E+00  0.00000000000E+00  0.22051281033E+03  0.22051281034E+03  0.25500000000E-02 0. -1.
          2   -1    0    0  501    0  0.00000000000E+00 -0.00000000000E+00 -0.13587819685E+04  0.13587819685E+04  0.25500000000E-02 0.  1.
    5000001    1    1    2    0    0 -0.36570842024E+03  0.33743509405E+03 -0.79630731317E+03  0.95338105096E+03  0.16500000000E+03 0.  0.
   -5000001    1    1    2    0    0  0.36570842024E+03 -0.33743509405E+03 -0.34196184505E+03  0.62591372792E+03  0.16500000000E+03 0.  0.
<mgrwt>
<rscale>  0 0.10947672E+04</rscale>
<asrwt>0</asrwt>
<pdfrwt beam="1">  1        2 0.19411170E+00 0.10947672E+04</pdfrwt>
<pdfrwt beam="2">  1       -2 0.31501831E-01 0.10947672E+04</pdfrwt>
<totfact> 0.16161002E+02</totfact>
</mgrwt>
</event>
<event>
 4    1  0.5531008E-005  0.4629385E+03  0.7818608E-02  0.1023932E+00
         -2   -1    0    0    0  501 -0.00000000000E+00  0.00000000000E+00  0.34271592122E+03  0.34271592123E+03  0.25500000000E-02 0. -1.
          2   -1    0    0  501    0  0.00000000000E+00 -0.00000000000E+00 -0.15633361415E+03  0.15633361417E+03  0.25500000000E-02 0.  1.
    5000001    1    1    2    0    0  0.12507950603E+03  0.85544252028E+02  0.15595946864E+03  0.27296713674E+03  0.16500000000E+03 0.  0.
   -5000001    1    1    2    0    0 -0.12507950603E+03 -0.85544252028E+02  0.30422838426E+02  0.22608239865E+03  0.16500000000E+03 0.  0.
<mgrwt>
<rscale>  0 0.46293852E+03</rscale>
<asrwt>0</asrwt>
<pdfrwt beam="1">  1        2 0.22333373E-01 0.46293852E+03</pdfrwt>
<pdfrwt beam="2">  1       -2 0.48959417E-01 0.46293852E+03</pdfrwt>
<totfact> 0.98789870E+02</totfact>
</mgrwt>
</event>
<event>
 4    1  0.5531008E-005  0.3887420E+03  0.7818608E-02  0.1047749E+00
         -2   -1    0    0    0  501 -0.00000000000E+00  0.00000000000E+00  0.16466350350E+03  0.16466350352E+03  0.25500000000E-02 0. -1.
          2   -1    0    0  501    0  0.00000000000E+00 -0.00000000000E+00 -0.22943816192E+03  0.22943816194E+03  0.25500000000E-02 0.  1.
    5000001    1    1    2    0    0  0.90792978769E+02 -0.20452438196E+01  0.16311859486E+02  0.18904662064E+03  0.16500000000E+03 0.  0.
   -5000001    1    1    2    0    0 -0.90792978769E+02  0.20452438196E+01 -0.81086517912E+02  0.20505504481E+03  0.16500000000E+03 0.  0.
<mgrwt>
<rscale>  0 0.38874203E+03</rscale>
<asrwt>0</asrwt>
<pdfrwt beam="1">  1        2 0.32776880E-01 0.38874203E+03</pdfrwt>
<pdfrwt beam="2">  1       -2 0.23523358E-01 0.38874203E+03</pdfrwt>
<totfact> 0.25350481E+03</totfact>
</mgrwt>
</event>
<event>
 4    1  0.5531008E-005  0.4379040E+03  0.7818608E-02  0.1031392E+00
          2   -1    0    0  501    0  0.00000000000E+00  0.00000000000E+00  0.48001513405E+03  0.48001513405E+03  0.25500000000E-02 0.  1.
         -2   -1    0    0    0  501 -0.00000000000E+00 -0.00000000000E+00 -0.99871785861E+02  0.99871785893E+02  0.25500000000E-02 0. -1.
    5000001    1    1    2    0    0  0.10096918515E+03  0.63501489621E+02  0.29673413584E+03  0.35986575679E+03  0.16500000000E+03 0.  0.
   -5000001    1    1    2    0    0 -0.10096918515E+03 -0.63501489621E+02  0.83409212347E+02  0.22002116316E+03  0.16500000000E+03 0.  0.
<mgrwt>
<rscale>  0 0.43790396E+03</rscale>
<asrwt>0</asrwt>
<pdfrwt beam="1">  1        2 0.68573591E-01 0.43790396E+03</pdfrwt>
<pdfrwt beam="2">  1       -2 0.14267398E-01 0.43790396E+03</pdfrwt>
<totfact> 0.26549145E+03</totfact>
</mgrwt>
</event>
<event>
 4    1  0.5531008E-005  0.5647887E+03  0.7818608E-02  0.9981277E-01
          2   -1    0    0  501    0  0.00000000000E+00  0.00000000000E+00  0.38419166812E+03  0.38419166812E+03  0.25500000000E-02 0.  1.
         -2   -1    0    0    0  501 -0.00000000000E+00 -0.00000000000E+00 -0.20756972015E+03  0.20756972016E+03  0.25500000000E-02 0. -1.
    5000001    1    1    2    0    0 -0.11352959369E+03 -0.43941859510E+02  0.29175321563E+03  0.35660173092E+03  0.16500000000E+03 0.  0.
   -5000001    1    1    2    0    0  0.11352959369E+03  0.43941859510E+02 -0.11513126766E+03  0.23515965737E+03  0.16500000000E+03 0.  0.
<mgrwt>
<rscale>  0 0.56478866E+03</rscale>
<asrwt>0</asrwt>
<pdfrwt beam="1">  1        2 0.54884524E-01 0.56478866E+03</pdfrwt>
<pdfrwt beam="2">  1       -2 0.29652817E-01 0.56478866E+03</pdfrwt>
<totfact> 0.95011433E+02</totfact>
</mgrwt>
</event>
<event>
 4    1  0.5531008E-005  0.8346339E+03  0.7818608E-02  0.9511196E-01
         -2   -1    0    0    0  501 -0.00000000000E+00  0.00000000000E+00  0.31416140688E+03  0.31416140689E+03  0.25500000000E-02 0. -1.
          2   -1    0    0  501    0  0.00000000000E+00 -0.00000000000E+00 -0.55434379204E+03  0.55434379204E+03  0.25500000000E-02 0.  1.
    5000001    1    1    2    0    0 -0.30980169739E+03 -0.22544381058E+03 -0.13179125154E+03  0.43748821403E+03  0.16500000000E+03 0.  0.
   -5000001    1    1    2    0    0  0.30980169739E+03  0.22544381058E+03 -0.10839113361E+03  0.43101698491E+03  0.16500000000E+03 0.  0.
<mgrwt>
<rscale>  0 0.83463387E+03</rscale>
<asrwt>0</asrwt>
<pdfrwt beam="1">  1        2 0.79191970E-01 0.83463387E+03</pdfrwt>
<pdfrwt beam="2">  1       -2 0.44880201E-01 0.83463387E+03</pdfrwt>
<totfact> 0.28175679E+02</totfact>
</mgrwt>
</event>
<event>
 4    1  0.5531008E-005  0.8112704E+03  0.7818608E-02  0.9543845E-01
         -2   -1    0    0    0  501 -0.00000000000E+00  0.00000000000E+00  0.45909558609E+02  0.45909558680E+02  0.25500000000E-02 0. -1.
          2   -1    0    0  501    0  0.00000000000E+00 -0.00000000000E+00 -0.35840010865E+04  0.35840010865E+04  0.25500000000E-02 0.  1.
    5000001    1    1    2    0    0 -0.30296991386E+03  0.19862170643E+03 -0.21177457041E+04  0.21548348471E+04  0.16500000000E+03 0.  0.
   -5000001    1    1    2    0    0  0.30296991386E+03 -0.19862170643E+03 -0.14203458237E+04  0.14750757981E+04  0.16500000000E+03 0.  0.
<mgrwt>
<rscale>  0 0.81127038E+03</rscale>
<asrwt>0</asrwt>
<pdfrwt beam="1">  1        2 0.51199998E+00 0.81127038E+03</pdfrwt>
<pdfrwt beam="2">  1       -2 0.65585106E-02 0.81127038E+03</pdfrwt>
<totfact> 0.15271720E+02</totfact>
</mgrwt>
</event>
<event>
 4    1  0.5531008E-005  0.6391799E+03  0.7818608E-02  0.9827297E-01
         -2   -1    0    0    0  501 -0.00000000000E+00  0.00000000000E+00  0.48202230411E+02  0.48202230479E+02  0.25500000000E-02 0. -1.
          2   -1    0    0  501    0  0.00000000000E+00 -0.00000000000E+00 -0.21189423430E+04  0.21189423430E+04  0.25500000000E-02 0.  1.
    5000001    1    1    2    0    0 -0.23892657893E+03  0.12635695678E+03 -0.11816246519E+04  0.12233208118E+04  0.16500000000E+03 0.  0.
   -5000001    1    1    2    0    0  0.23892657893E+03 -0.12635695678E+03 -0.88911546069E+03  0.94382376167E+03  0.16500000000E+03 0.  0.
<mgrwt>
<rscale>  0 0.63917993E+03</rscale>
<asrwt>0</asrwt>
<pdfrwt beam="1">  1        2 0.30270599E+00 0.63917993E+03</pdfrwt>
<pdfrwt beam="2">  1       -2 0.68860343E-02 0.63917993E+03</pdfrwt>
<totfact> 0.89578350E+02</totfact>
</mgrwt>
</event>
<event>
 4    1  0.5531008E-005  0.6648419E+03  0.7818608E-02  0.9779321E-01
         -2   -1    0    0    0  501 -0.00000000000E+00  0.00000000000E+00  0.65304691792E+02  0.65304691842E+02  0.25500000000E-02 0. -1.
          2   -1    0    0  501    0  0.00000000000E+00 -0.00000000000E+00 -0.16921247712E+04  0.16921247712E+04  0.25500000000E-02 0.  1.
    5000001    1    1    2    0    0 -0.27383445070E+03  0.67152084516E+02 -0.97601501016E+03  0.10292351572E+04  0.16500000000E+03 0.  0.
   -5000001    1    1    2    0    0  0.27383445070E+03 -0.67152084516E+02 -0.65080506923E+03  0.72819430578E+03  0.16500000000E+03 0.  0.
<mgrwt>
<rscale>  0 0.66484190E+03</rscale>
<asrwt>0</asrwt>
<pdfrwt beam="1">  1        2 0.24173208E+00 0.66484190E+03</pdfrwt>
<pdfrwt beam="2">  1       -2 0.93292427E-02 0.66484190E+03</pdfrwt>
<totfact> 0.90491687E+02</totfact>
</mgrwt>
</event>
<event>
 4    1  0.5531008E-005  0.5756370E+03  0.7818608E-02  0.9957282E-01
         -2   -1    0    0    0  501 -0.00000000000E+00  0.00000000000E+00  0.20986817306E+03  0.20986817308E+03  0.25500000000E-02 0.  1.
          2   -1    0    0  501    0  0.00000000000E+00 -0.00000000000E+00 -0.39472154433E+03  0.39472154433E+03  0.25500000000E-02 0. -1.
    5000001    1    1    2    0    0 -0.22377905001E+03  0.22247147132E+02 -0.17844586399E+02  0.27949137383E+03  0.16500000000E+03 0.  0.
   -5000001    1    1    2    0    0  0.22377905001E+03 -0.22247147132E+02 -0.16700878486E+03  0.32509834359E+03  0.16500000000E+03 0.  0.
<mgrwt>
<rscale>  0 0.57563700E+03</rscale>
<asrwt>0</asrwt>
<pdfrwt beam="1">  1        2 0.56388792E-01 0.57563700E+03</pdfrwt>
<pdfrwt beam="2">  1       -2 0.29981168E-01 0.57563700E+03</pdfrwt>
<totfact> 0.90344185E+02</totfact>
</mgrwt>
</event>
<event>
 4    1  0.5531008E-005  0.4069245E+03  0.7818608E-02  0.1041408E+00
          2   -1    0    0  501    0  0.00000000000E+00  0.00000000000E+00  0.24721580451E+04  0.24721580451E+04  0.25500000000E-02 0.  1.
         -2   -1    0    0    0  501 -0.00000000000E+00 -0.00000000000E+00 -0.16745240416E+02  0.16745240610E+02  0.25500000000E-02 0. -1.
    5000001    1    1    2    0    0 -0.37943708038E+02  0.10977963406E+03  0.13872709351E+04  0.14018690882E+04  0.16500000000E+03 0.  0.
   -5000001    1    1    2    0    0  0.37943708038E+02 -0.10977963406E+03  0.10681418696E+04  0.10870341976E+04  0.16500000000E+03 0.  0.
<mgrwt>
<rscale>  0 0.40692447E+03</rscale>
<asrwt>0</asrwt>
<pdfrwt beam="1">  1        2 0.35316562E+00 0.40692447E+03</pdfrwt>
<pdfrwt beam="2">  1       -2 0.23921760E-02 0.40692447E+03</pdfrwt>
<totfact> 0.30495024E+03</totfact>
</mgrwt>
</event>
<event>
 4    1  0.5531008E-005  0.5363416E+03  0.7818608E-02  0.1004706E+00
          2   -1    0    0  501    0  0.00000000000E+00  0.00000000000E+00  0.31524672628E+03  0.31524672629E+03  0.25500000000E-02 0.  1.
         -2   -1    0    0    0  501 -0.00000000000E+00 -0.00000000000E+00 -0.22812474578E+03  0.22812474579E+03  0.25500000000E-02 0. -1.
    5000001    1    1    2    0    0  0.80207970623E+02 -0.18021359651E+03  0.12058591832E+03  0.28403560096E+03  0.16500000000E+03 0.  0.
   -5000001    1    1    2    0    0 -0.80207970623E+02  0.18021359651E+03 -0.33463937812E+02  0.25933587112E+03  0.16500000000E+03 0.  0.
<mgrwt>
<rscale>  0 0.53634160E+03</rscale>
<asrwt>0</asrwt>
<pdfrwt beam="1">  1        2 0.45035246E-01 0.53634160E+03</pdfrwt>
<pdfrwt beam="2">  1       -2 0.32589250E-01 0.53634160E+03</pdfrwt>
<totfact> 0.99198558E+02</totfact>
</mgrwt>
</event>
<event>
 4    1  0.5531008E-005  0.5709877E+03  0.7818608E-02  0.9967495E-01
         -2   -1    0    0    0  501 -0.00000000000E+00  0.00000000000E+00  0.30307313075E+03  0.30307313076E+03  0.25500000000E-02 0. -1.
          2   -1    0    0  501    0  0.00000000000E+00 -0.00000000000E+00 -0.26893425188E+03  0.26893425189E+03  0.25500000000E-02 0.  1.
    5000001    1    1    2    0    0  0.10464355318E+03  0.19793173345E+03  0.81639963973E+02  0.28985742710E+03  0.16500000000E+03 0.  0.
   -5000001    1    1    2    0    0 -0.10464355318E+03 -0.19793173345E+03 -0.47501085099E+02  0.28214995555E+03  0.16500000000E+03 0.  0.
<mgrwt>
<rscale>  0 0.57098773E+03</rscale>
<asrwt>0</asrwt>
<pdfrwt beam="1">  1        2 0.38419179E-01 0.57098773E+03</pdfrwt>
<pdfrwt beam="2">  1       -2 0.43296162E-01 0.57098773E+03</pdfrwt>
<totfact> 0.68544100E+02</totfact>
</mgrwt>
</event>
<event>
 4    1  0.5531008E-005  0.8171658E+03  0.7818608E-02  0.9535497E-01
          2   -1    0    0  501    0  0.00000000000E+00  0.00000000000E+00  0.15414150184E+03  0.15414150186E+03  0.25500000000E-02 0.  1.
         -2   -1    0    0    0  501 -0.00000000000E+00 -0.00000000000E+00 -0.10830307693E+04  0.10830307693E+04  0.25500000000E-02 0. -1.
    5000001    1    1    2    0    0  0.28767814771E+03 -0.12769731503E+03 -0.15919967874E+03  0.38940320831E+03  0.16500000000E+03 0.  0.
   -5000001    1    1    2    0    0 -0.28767814771E+03  0.12769731503E+03 -0.76968958875E+03  0.84776906287E+03  0.16500000000E+03 0.  0.
<mgrwt>
<rscale>  0 0.81716581E+03</rscale>
<asrwt>0</asrwt>
<pdfrwt beam="1">  1        2 0.22020215E-01 0.81716581E+03</pdfrwt>
<pdfrwt beam="2">  1       -2 0.15471868E+00 0.81716581E+03</pdfrwt>
<totfact> 0.70610566E+01</totfact>
</mgrwt>
</event>
<event>
 4    1  0.5531008E-005  0.4396365E+03  0.7818608E-02  0.1030858E+00
         -2   -1    0    0    0  501 -0.00000000000E+00  0.00000000000E+00  0.55683699087E+02  0.55683699145E+02  0.25500000000E-02 0. -1.
          2   -1    0    0  501    0  0.00000000000E+00 -0.00000000000E+00 -0.86775959705E+03  0.86775959706E+03  0.25500000000E-02 0.  1.
    5000001    1    1    2    0    0 -0.78181081343E+02 -0.10273015561E+03 -0.54583046888E+03  0.58465516940E+03  0.16500000000E+03 0.  0.
   -5000001    1    1    2    0    0  0.78181081343E+02  0.10273015561E+03 -0.26624542908E+03  0.33878812680E+03  0.16500000000E+03 0.  0.
<mgrwt>
<rscale>  0 0.43963651E+03</rscale>
<asrwt>0</asrwt>
<pdfrwt beam="1">  1        2 0.12396565E+00 0.43963651E+03</pdfrwt>
<pdfrwt beam="2">  1       -2 0.79548147E-02 0.43963651E+03</pdfrwt>
<totfact> 0.33737153E+03</totfact>
</mgrwt>
</event>
<event>
 4    1  0.5531008E-005  0.3887012E+03  0.7818608E-02  0.1047764E+00
          2   -1    0    0  501    0  0.00000000000E+00  0.00000000000E+00  0.32226652445E+03  0.32226652446E+03  0.25500000000E-02 0.  1.
         -2   -1    0    0    0  501 -0.00000000000E+00 -0.00000000000E+00 -0.11720784118E+03  0.11720784121E+03  0.25500000000E-02 0. -1.
    5000001    1    1    2    0    0  0.72304846235E+02  0.42850722325E+01  0.18484619877E+03  0.25814621793E+03  0.16500000000E+03 0.  0.
   -5000001    1    1    2    0    0 -0.72304846235E+02 -0.42850722325E+01  0.20212484510E+02  0.18132814774E+03  0.16500000000E+03 0.  0.
<mgrwt>
<rscale>  0 0.38870124E+03</rscale>
<asrwt>0</asrwt>
<pdfrwt beam="1">  1        2 0.46038075E-01 0.38870124E+03</pdfrwt>
<pdfrwt beam="2">  1       -2 0.16743977E-01 0.38870124E+03</pdfrwt>
<totfact> 0.31412291E+03</totfact>
</mgrwt>
</event>
<event>
 4    1  0.5531008E-005  0.5501332E+03  0.7818608E-02  0.1001463E+00
         -2   -1    0    0    0  501 -0.00000000000E+00  0.00000000000E+00  0.30867923831E+02  0.30867923936E+02  0.25500000000E-02 0. -1.
          2   -1    0    0  501    0  0.00000000000E+00 -0.00000000000E+00 -0.24511411701E+04  0.24511411701E+04  0.25500000000E-02 0.  1.
    5000001    1    1    2    0    0 -0.16511735714E+02 -0.21528851024E+03 -0.14023382001E+04  0.14284254295E+04  0.16500000000E+03 0.  0.
   -5000001    1    1    2    0    0  0.16511735714E+02  0.21528851024E+03 -0.10179350462E+04  0.10535836646E+04  0.16500000000E+03 0.  0.
<mgrwt>
<rscale>  0 0.55013322E+03</rscale>
<asrwt>0</asrwt>
<pdfrwt beam="1">  1        2 0.35016290E+00 0.55013322E+03</pdfrwt>
<pdfrwt beam="2">  1       -2 0.44097050E-02 0.55013322E+03</pdfrwt>
<totfact> 0.12258623E+03</totfact>
</mgrwt>
</event>
<event>
 4    1  0.5531008E-005  0.3709255E+03  0.7818608E-02  0.1054340E+00
         -2   -1    0    0    0  501 -0.00000000000E+00  0.00000000000E+00  0.13830664814E+02  0.13830665049E+02  0.25500000000E-02 0. -1.
          2   -1    0    0  501    0  0.00000000000E+00 -0.00000000000E+00 -0.24869691953E+04  0.24869691953E+04  0.25500000000E-02 0.  1.
    5000001    1    1    2    0    0 -0.82361202341E+02 -0.10748127880E+02 -0.11252645672E+04  0.11403263727E+04  0.16500000000E+03 0.  0.
   -5000001    1    1    2    0    0  0.82361202341E+02  0.10748127880E+02 -0.13478739632E+04  0.13604734876E+04  0.16500000000E+03 0.  0.
<mgrwt>
<rscale>  0 0.37092553E+03</rscale>
<asrwt>0</asrwt>
<pdfrwt beam="1">  1        2 0.35528103E+00 0.37092553E+03</pdfrwt>
<pdfrwt beam="2">  1       -2 0.19758109E-02 0.37092553E+03</pdfrwt>
<totfact> 0.39917327E+03</totfact>
</mgrwt>
</event>
<event>
 4    1  0.5531008E-005  0.4011701E+03  0.7818608E-02  0.1043375E+00
          2   -1    0    0  501    0  0.00000000000E+00  0.00000000000E+00  0.59713981953E+02  0.59713982007E+02  0.25500000000E-02 0.  1.
         -2   -1    0    0    0  501 -0.00000000000E+00 -0.00000000000E+00 -0.67378468429E+03  0.67378468429E+03  0.25500000000E-02 0. -1.
    5000001    1    1    2    0    0 -0.31331945228E+02 -0.10644246565E+03 -0.25874081283E+03  0.32631809252E+03  0.16500000000E+03 0.  0.
   -5000001    1    1    2    0    0  0.31331945228E+02  0.10644246565E+03 -0.35532988951E+03  0.40718057378E+03  0.16500000000E+03 0.  0.
<mgrwt>
<rscale>  0 0.40117012E+03</rscale>
<asrwt>0</asrwt>
<pdfrwt beam="1">  1        2 0.85305693E-02 0.40117012E+03</pdfrwt>
<pdfrwt beam="2">  1       -2 0.96254950E-01 0.40117012E+03</pdfrwt>
<totfact> 0.73949368E+02</totfact>
</mgrwt>
</event>
<event>
 4    1  0.5531008E-005  0.7711686E+03  0.7818608E-02  0.9602713E-01
          2   -1    0    0  501    0  0.00000000000E+00  0.00000000000E+00  0.65004373787E+03  0.65004373788E+03  0.25500000000E-02 0.  1.
         -2   -1    0    0    0  501 -0.00000000000E+00 -0.00000000000E+00 -0.22871576201E+03  0.22871576202E+03  0.25500000000E-02 0. -1.
    5000001    1    1    2    0    0 -0.58451829938E+02 -0.34187328610E+03  0.24941239357E+03  0.45795796995E+03  0.16500000000E+03 0.  0.
   -5000001    1    1    2    0    0  0.58451829938E+02  0.34187328610E+03  0.17191558229E+03  0.42080152995E+03  0.16500000000E+03 0.  0.
<mgrwt>
<rscale>  0 0.77116859E+03</rscale>
<asrwt>0</asrwt>
<pdfrwt beam="1">  1        2 0.92863392E-01 0.77116859E+03</pdfrwt>
<pdfrwt beam="2">  1       -2 0.32673680E-01 0.77116859E+03</pdfrwt>
<totfact> 0.43206231E+02</totfact>
</mgrwt>
</event>
<event>
 4    1  0.5531008E-005  0.5937280E+03  0.7818608E-02  0.9918504E-01
         -2   -1    0    0    0  501 -0.00000000000E+00  0.00000000000E+00  0.87451815996E+02  0.87451816033E+02  0.25500000000E-02 0. -1.
          2   -1    0    0  501    0  0.00000000000E+00 -0.00000000000E+00 -0.10077348800E+04  0.10077348800E+04  0.25500000000E-02 0.  1.
    5000001    1    1    2    0    0 -0.48234098671E+02 -0.23332343184E+03 -0.57878334011E+03  0.64728780840E+03  0.16500000000E+03 0.  0.
   -5000001    1    1    2    0    0  0.48234098671E+02  0.23332343184E+03 -0.34149972388E+03  0.44789888762E+03  0.16500000000E+03 0.  0.
<mgrwt>
<rscale>  0 0.59372804E+03</rscale>
<asrwt>0</asrwt>
<pdfrwt beam="1">  1        2 0.14396212E+00 0.59372804E+03</pdfrwt>
<pdfrwt beam="2">  1       -2 0.12493117E-01 0.59372804E+03</pdfrwt>
<totfact> 0.13286373E+03</totfact>
</mgrwt>
</event>
<event>
 4    1  0.5531008E-005  0.3928116E+03  0.7818608E-02  0.1046298E+00
         -2   -1    0    0    0  501 -0.00000000000E+00  0.00000000000E+00  0.48277768711E+02  0.48277768778E+02  0.25500000000E-02 0. -1.
          2   -1    0    0  501    0  0.00000000000E+00 -0.00000000000E+00 -0.79902678284E+03  0.79902678284E+03  0.25500000000E-02 0.  1.
    5000001    1    1    2    0    0 -0.81365371718E+02 -0.66980021109E+02 -0.34170947454E+03  0.39382357971E+03  0.16500000000E+03 0.  0.
   -5000001    1    1    2    0    0  0.81365371718E+02  0.66980021109E+02 -0.40903953959E+03  0.45348097191E+03  0.16500000000E+03 0.  0.
<mgrwt>
<rscale>  0 0.39281156E+03</rscale>
<asrwt>0</asrwt>
<pdfrwt beam="1">  1        2 0.11414668E+00 0.39281156E+03</pdfrwt>
<pdfrwt beam="2">  1       -2 0.68968246E-02 0.39281156E+03</pdfrwt>
<totfact> 0.46853147E+03</totfact>
</mgrwt>
</event>
<event>
 4    1  0.5531008E-005  0.5215931E+03  0.7818608E-02  0.1008292E+00
         -2   -1    0    0    0  501 -0.00000000000E+00  0.00000000000E+00  0.98978082954E+02  0.98978082987E+02  0.25500000000E-02 0. -1.
          2   -1    0    0  501    0  0.00000000000E+00 -0.00000000000E+00 -0.68717083649E+03  0.68717083650E+03  0.25500000000E-02 0.  1.
    5000001    1    1    2    0    0 -0.17633559451E+03 -0.68301431464E+02 -0.18719591343E+03  0.31309205904E+03  0.16500000000E+03 0.  0.
   -5000001    1    1    2    0    0  0.17633559451E+03  0.68301431464E+02 -0.40099684011E+03  0.47305686044E+03  0.16500000000E+03 0.  0.
<mgrwt>
<rscale>  0 0.52159314E+03</rscale>
<asrwt>0</asrwt>
<pdfrwt beam="1">  1        2 0.98167260E-01 0.52159314E+03</pdfrwt>
<pdfrwt beam="2">  1       -2 0.14139727E-01 0.52159314E+03</pdfrwt>
<totfact> 0.17797568E+03</totfact>
</mgrwt>
</event>
<event>
 4    1  0.5531008E-005  0.5554565E+03  0.7818608E-02  0.1000239E+00
         -2   -1    0    0    0  501 -0.00000000000E+00  0.00000000000E+00  0.18749985759E+03  0.18749985761E+03  0.25500000000E-02 0. -1.
          2   -1    0    0  501    0  0.00000000000E+00 -0.00000000000E+00 -0.41137627240E+03  0.41137627241E+03  0.25500000000E-02 0.  1.
    5000001    1    1    2    0    0 -0.12895834629E+02  0.20498679114E+03 -0.20668287577E+03  0.33485623516E+03  0.16500000000E+03 0.  0.
   -5000001    1    1    2    0    0  0.12895834629E+02 -0.20498679114E+03 -0.17193539045E+02  0.26401989485E+03  0.16500000000E+03 0.  0.
<mgrwt>
<rscale>  0 0.55545654E+03</rscale>
<asrwt>0</asrwt>
<pdfrwt beam="1">  1        2 0.58768038E-01 0.55545654E+03</pdfrwt>
<pdfrwt beam="2">  1       -2 0.26785694E-01 0.55545654E+03</pdfrwt>
<totfact> 0.10605376E+03</totfact>
</mgrwt>
</event>
<event>
 4    1  0.5531008E-005  0.4184071E+03  0.7818608E-02  0.1037586E+00
          2   -1    0    0  501    0  0.00000000000E+00  0.00000000000E+00  0.97831266380E+03  0.97831266380E+03  0.25500000000E-02 0.  1.
         -2   -1    0    0    0  501 -0.00000000000E+00 -0.00000000000E+00 -0.44736347813E+02  0.44736347885E+02  0.25500000000E-02 0. -1.
    5000001    1    1    2    0    0 -0.20561074768E+02 -0.95096088086E+02  0.26112144878E+03  0.32384476957E+03  0.16500000000E+03 0.  0.
   -5000001    1    1    2    0    0  0.20561074768E+02  0.95096088086E+02  0.67245486721E+03  0.69920424212E+03  0.16500000000E+03 0.  0.
<mgrwt>
<rscale>  0 0.41840715E+03</rscale>
<asrwt>0</asrwt>
<pdfrwt beam="1">  1        2 0.13975898E+00 0.41840715E+03</pdfrwt>
<pdfrwt beam="2">  1       -2 0.63909057E-02 0.41840715E+03</pdfrwt>
<totfact> 0.40513746E+03</totfact>
</mgrwt>
</event>
<event>
 4    1  0.5531008E-005  0.4926833E+03  0.7818608E-02  0.1015707E+00
          2   -1    0    0  501    0  0.00000000000E+00  0.00000000000E+00  0.37328815054E+04  0.37328815054E+04  0.25500000000E-02 0.  1.
         -2   -1    0    0    0  501 -0.00000000000E+00 -0.00000000000E+00 -0.16256667395E+02  0.16256667595E+02  0.25500000000E-02 0. -1.
    5000001    1    1    2    0    0  0.16131818974E+03  0.56354227085E+02  0.23549745595E+04  0.23669240657E+04  0.16500000000E+03 0.  0.
   -5000001    1    1    2    0    0 -0.16131818974E+03 -0.56354227085E+02  0.13616502785E+04  0.13822141072E+04  0.16500000000E+03 0.  0.
<mgrwt>
<rscale>  0 0.49268332E+03</rscale>
<asrwt>0</asrwt>
<pdfrwt beam="1">  1        2 0.53326814E+00 0.49268332E+03</pdfrwt>
<pdfrwt beam="2">  1       -2 0.23223839E-02 0.49268332E+03</pdfrwt>
<totfact> 0.63549667E+02</totfact>
</mgrwt>
</event>
<event>
 4    1  0.5531008E-005  0.5804835E+03  0.7818608E-02  0.9946745E-01
         -2   -1    0    0    0  501 -0.00000000000E+00  0.00000000000E+00  0.89471386062E+02  0.89471386098E+02  0.25500000000E-02 0. -1.
          2   -1    0    0  501    0  0.00000000000E+00 -0.00000000000E+00 -0.94153316255E+03  0.94153316256E+03  0.25500000000E-02 0.  1.
    5000001    1    1    2    0    0 -0.22157001098E+03 -0.86983005821E+02 -0.45954083589E+03  0.54319618272E+03  0.16500000000E+03 0.  0.
   -5000001    1    1    2    0    0  0.22157001098E+03  0.86983005821E+02 -0.39252094060E+03  0.48780836593E+03  0.16500000000E+03 0.  0.
<mgrwt>
<rscale>  0 0.58048351E+03</rscale>
<asrwt>0</asrwt>
<pdfrwt beam="1">  1        2 0.13450473E+00 0.58048351E+03</pdfrwt>
<pdfrwt beam="2">  1       -2 0.12781627E-01 0.58048351E+03</pdfrwt>
<totfact> 0.14059957E+03</totfact>
</mgrwt>
</event>
<event>
 4    1  0.5531008E-005  0.3771393E+03  0.7818608E-02  0.1051996E+00
          2   -1    0    0  501    0  0.00000000000E+00  0.00000000000E+00  0.32868097499E+02  0.32868097598E+02  0.25500000000E-02 0.  1.
         -2   -1    0    0    0  501 -0.00000000000E+00 -0.00000000000E+00 -0.10818549404E+04  0.10818549404E+04  0.25500000000E-02 0. -1.
    5000001    1    1    2    0    0  0.74803958549E+02  0.45809930925E+02 -0.44975768619E+03  0.48703301559E+03  0.16500000000E+03 0.  0.
   -5000001    1    1    2    0    0 -0.74803958549E+02 -0.45809930925E+02 -0.59922915674E+03  0.62769002244E+03  0.16500000000E+03 0.  0.
<mgrwt>
<rscale>  0 0.37713930E+03</rscale>
<asrwt>0</asrwt>
<pdfrwt beam="1">  1        2 0.46954432E-02 0.37713930E+03</pdfrwt>
<pdfrwt beam="2">  1       -2 0.15455068E+00 0.37713930E+03</pdfrwt>
<totfact> 0.50412588E+02</totfact>
</mgrwt>
</event>
<event>
 4    1  0.5531008E-005  0.4482866E+03  0.7818608E-02  0.1028234E+00
         -2   -1    0    0    0  501 -0.00000000000E+00  0.00000000000E+00  0.31794165007E+02  0.31794165109E+02  0.25500000000E-02 0. -1.
          2   -1    0    0  501    0  0.00000000000E+00 -0.00000000000E+00 -0.15801710233E+04  0.15801710233E+04  0.25500000000E-02 0.  1.
    5000001    1    1    2    0    0 -0.31095568425E+02 -0.12631813127E+03 -0.49352854685E+03  0.53639410066E+03  0.16500000000E+03 0.  0.
   -5000001    1    1    2    0    0  0.31095568425E+02  0.12631813127E+03 -0.10548483115E+04  0.10755710878E+04  0.16500000000E+03 0.  0.
<mgrwt>
<rscale>  0 0.44828660E+03</rscale>
<asrwt>0</asrwt>
<pdfrwt beam="1">  1        2 0.22573867E+00 0.44828660E+03</pdfrwt>
<pdfrwt beam="2">  1       -2 0.45420246E-02 0.44828660E+03</pdfrwt>
<totfact> 0.32219308E+03</totfact>
</mgrwt>
</event>
<event>
 4    1  0.5531008E-005  0.5397096E+03  0.7818608E-02  0.1003904E+00
          2   -1    0    0  501    0  0.00000000000E+00  0.00000000000E+00  0.64035227642E+03  0.64035227643E+03  0.25500000000E-02 0.  1.
         -2   -1    0    0    0  501 -0.00000000000E+00 -0.00000000000E+00 -0.11372118630E+03  0.11372118633E+03  0.25500000000E-02 0. -1.
    5000001    1    1    2    0    0 -0.30823750064E+02  0.19822120831E+03  0.16107387384E+03  0.30563302149E+03  0.16500000000E+03 0.  0.
   -5000001    1    1    2    0    0  0.30823750064E+02 -0.19822120831E+03  0.36555721628E+03  0.44844044127E+03  0.16500000000E+03 0.  0.
<mgrwt>
<rscale>  0 0.53970963E+03</rscale>
<asrwt>0</asrwt>
<pdfrwt beam="1">  1        2 0.91478895E-01 0.53970963E+03</pdfrwt>
<pdfrwt beam="2">  1       -2 0.16245884E-01 0.53970963E+03</pdfrwt>
<totfact> 0.15338451E+03</totfact>
</mgrwt>
</event>
<event>
 4    1  0.5531008E-005  0.4131247E+03  0.7818608E-02  0.1039327E+00
         -2   -1    0    0    0  501 -0.00000000000E+00  0.00000000000E+00  0.29025116669E+04  0.29025116669E+04  0.25500000000E-02 0. -1.
          2   -1    0    0  501    0  0.00000000000E+00 -0.00000000000E+00 -0.14700376499E+02  0.14700376720E+02  0.25500000000E-02 0.  1.
    5000001    1    1    2    0    0  0.33438799089E+02 -0.86258401645E+02  0.20297985506E+04  0.20385940795E+04  0.16500000000E+03 0.  0.
   -5000001    1    1    2    0    0 -0.33438799089E+02  0.86258401645E+02  0.85801273987E+03  0.87861796414E+03  0.16500000000E+03 0.  0.
<mgrwt>
<rscale>  0 0.41312475E+03</rscale>
<asrwt>0</asrwt>
<pdfrwt beam="1">  1        2 0.21000545E-02 0.41312475E+03</pdfrwt>
<pdfrwt beam="2">  1       -2 0.41464438E+00 0.41312475E+03</pdfrwt>
<totfact> 0.36387297E+01</totfact>
</mgrwt>
</event>
<event>
 4    1  0.5531008E-005  0.7090798E+03  0.7818608E-02  0.9701829E-01
         -2   -1    0    0    0  501 -0.00000000000E+00  0.00000000000E+00  0.13711107071E+03  0.13711107073E+03  0.25500000000E-02 0. -1.
          2   -1    0    0  501    0  0.00000000000E+00 -0.00000000000E+00 -0.91676422218E+03  0.91676422219E+03  0.25500000000E-02 0.  1.
    5000001    1    1    2    0    0  0.11209928053E+02  0.20549655092E+03 -0.74191294566E+03  0.78740987666E+03  0.16500000000E+03 0.  0.
   -5000001    1    1    2    0    0 -0.11209928053E+02 -0.20549655092E+03 -0.37740205815E+02  0.26646541626E+03  0.16500000000E+03 0.  0.
<mgrwt>
<rscale>  0 0.70907975E+03</rscale>
<asrwt>0</asrwt>
<pdfrwt beam="1">  1        2 0.13096631E+00 0.70907975E+03</pdfrwt>
<pdfrwt beam="2">  1       -2 0.19587296E-01 0.70907975E+03</pdfrwt>
<totfact> 0.70443106E+02</totfact>
</mgrwt>
</event>
<event>
 4    1  0.5531008E-005  0.5247127E+03  0.7818608E-02  0.1007523E+00
         -2   -1    0    0    0  501 -0.00000000000E+00  0.00000000000E+00  0.22337428777E+02  0.22337428923E+02  0.25500000000E-02 0. -1.
          2   -1    0    0  501    0  0.00000000000E+00 -0.00000000000E+00 -0.30814132856E+04  0.30814132856E+04  0.25500000000E-02 0.  1.
    5000001    1    1    2    0    0  0.32812435158E+02 -0.19442278547E+03 -0.12205332760E+04  0.12473184650E+04  0.16500000000E+03 0.  0.
   -5000001    1    1    2    0    0 -0.32812435158E+02  0.19442278547E+03 -0.18385425808E+04  0.18564322495E+04  0.16500000000E+03 0.  0.
<mgrwt>
<rscale>  0 0.52471268E+03</rscale>
<asrwt>0</asrwt>
<pdfrwt beam="1">  1        2 0.44020163E+00 0.52471268E+03</pdfrwt>
<pdfrwt beam="2">  1       -2 0.31910632E-02 0.52471268E+03</pdfrwt>
<totfact> 0.93785587E+02</totfact>
</mgrwt>
</event>
<event>
 4    1  0.5531008E-005  0.4055560E+03  0.7818608E-02  0.1041873E+00
         -2   -1    0    0    0  501 -0.00000000000E+00  0.00000000000E+00  0.22545625172E+02  0.22545625316E+02  0.25500000000E-02 0. -1.
          2   -1    0    0  501    0  0.00000000000E+00 -0.00000000000E+00 -0.18238088622E+04  0.18238088622E+04  0.25500000000E-02 0.  1.
    5000001    1    1    2    0    0  0.11584747283E+03 -0.38934787476E+00 -0.99965804875E+03  0.10197852730E+04  0.16500000000E+03 0.  0.
   -5000001    1    1    2    0    0 -0.11584747283E+03  0.38934787476E+00 -0.80160518830E+03  0.82656921456E+03  0.16500000000E+03 0.  0.
<mgrwt>
<rscale>  0 0.40555597E+03</rscale>
<asrwt>0</asrwt>
<pdfrwt beam="1">  1        2 0.26054403E+00 0.40555597E+03</pdfrwt>
<pdfrwt beam="2">  1       -2 0.32208048E-02 0.40555597E+03</pdfrwt>
<totfact> 0.41013457E+03</totfact>
</mgrwt>
</event>
<event>
 4    1  0.5531008E-005  0.4786256E+03  0.7818608E-02  0.1019514E+00
          2   -1    0    0  501    0  0.00000000000E+00  0.00000000000E+00  0.14610995686E+03  0.14610995689E+03  0.25500000000E-02 0.  1.
         -2   -1    0    0    0  501 -0.00000000000E+00 -0.00000000000E+00 -0.39196922263E+03  0.39196922263E+03  0.25500000000E-02 0. -1.
    5000001    1    1    2    0    0  0.10690011031E+03  0.12954517783E+03 -0.74758268108E+02  0.24702911839E+03  0.16500000000E+03 0.  0.
   -5000001    1    1    2    0    0 -0.10690011031E+03 -0.12954517783E+03 -0.17110099766E+03  0.29105006113E+03  0.16500000000E+03 0.  0.
<mgrwt>
<rscale>  0 0.47862556E+03</rscale>
<asrwt>0</asrwt>
<pdfrwt beam="1">  1        2 0.20872851E-01 0.47862556E+03</pdfrwt>
<pdfrwt beam="2">  1       -2 0.55995603E-01 0.47862556E+03</pdfrwt>
<totfact> 0.81263587E+02</totfact>
</mgrwt>
</event>
<event>
 4    1  0.5531008E-005  0.4279964E+03  0.7818608E-02  0.1034495E+00
          2   -1    0    0  501    0  0.00000000000E+00  0.00000000000E+00  0.66775362570E+03  0.66775362570E+03  0.25500000000E-02 0.  1.
         -2   -1    0    0    0  501 -0.00000000000E+00 -0.00000000000E+00 -0.68581015792E+02  0.68581015839E+02  0.25500000000E-02 0. -1.
    5000001    1    1    2    0    0  0.12171048063E+03 -0.38009582389E+02  0.38231077629E+03  0.43548214557E+03  0.16500000000E+03 0.  0.
   -5000001    1    1    2    0    0 -0.12171048063E+03  0.38009582389E+02  0.21686183362E+03  0.30085249597E+03  0.16500000000E+03 0.  0.
<mgrwt>
<rscale>  0 0.42799636E+03</rscale>
<asrwt>0</asrwt>
<pdfrwt beam="1">  1        2 0.95393373E-01 0.42799636E+03</pdfrwt>
<pdfrwt beam="2">  1       -2 0.97972882E-02 0.42799636E+03</pdfrwt>
<totfact> 0.33519993E+03</totfact>
</mgrwt>
</event>
<event>
 4    1  0.5531008E-005  0.5062107E+03  0.7818608E-02  0.1012170E+00
         -2   -1    0    0    0  501 -0.00000000000E+00  0.00000000000E+00  0.77731320742E+02  0.77731320784E+02  0.25500000000E-02 0. -1.
          2   -1    0    0  501    0  0.00000000000E+00 -0.00000000000E+00 -0.82415069686E+03  0.82415069686E+03  0.25500000000E-02 0.  1.
    5000001    1    1    2    0    0 -0.37720982092E+02  0.18818283391E+03 -0.37090681982E+03  0.44903509936E+03  0.16500000000E+03 0.  0.
   -5000001    1    1    2    0    0  0.37720982092E+02 -0.18818283391E+03 -0.37551255630E+03  0.45284691829E+03  0.16500000000E+03 0.  0.
<mgrwt>
<rscale>  0 0.50621072E+03</rscale>
<asrwt>0</asrwt>
<pdfrwt beam="1">  1        2 0.11773581E+00 0.50621072E+03</pdfrwt>
<pdfrwt beam="2">  1       -2 0.11104475E-01 0.50621072E+03</pdfrwt>
<totfact> 0.21132643E+03</totfact>
</mgrwt>
</event>
<event>
 4    1  0.5531008E-005  0.4967664E+03  0.7818608E-02  0.1014626E+00
          2   -1    0    0  501    0  0.00000000000E+00  0.00000000000E+00  0.33209284613E+04  0.33209284613E+04  0.25500000000E-02 0.  1.
         -2   -1    0    0    0  501 -0.00000000000E+00 -0.00000000000E+00 -0.18577397674E+02  0.18577397849E+02  0.25500000000E-02 0. -1.
    5000001    1    1    2    0    0  0.50464408014E+02  0.17174446234E+03  0.13200363968E+04  0.13422979944E+04  0.16500000000E+03 0.  0.
   -5000001    1    1    2    0    0 -0.50464408014E+02 -0.17174446234E+03  0.19823146668E+04  0.19972078648E+04  0.16500000000E+03 0.  0.
<mgrwt>
<rscale>  0 0.49676638E+03</rscale>
<asrwt>0</asrwt>
<pdfrwt beam="1">  1        2 0.47441802E+00 0.49676638E+03</pdfrwt>
<pdfrwt beam="2">  1       -2 0.26539158E-02 0.49676638E+03</pdfrwt>
<totfact> 0.91319920E+02</totfact>
</mgrwt>
</event>
<event>
 4    1  0.5531008E-005  0.4210187E+03  0.7818608E-02  0.1036735E+00
          2   -1    0    0  501    0  0.00000000000E+00  0.00000000000E+00  0.17098002857E+03  0.17098002859E+03  0.25500000000E-02 0.  1.
         -2   -1    0    0    0  501 -0.00000000000E+00 -0.00000000000E+00 -0.25917759185E+03  0.25917759187E+03  0.25500000000E-02 0. -1.
    5000001    1    1    2    0    0  0.83972724368E+02 -0.40605210721E+02 -0.13767835452E+03  0.23426594050E+03  0.16500000000E+03 0.  0.
   -5000001    1    1    2    0    0 -0.83972724368E+02  0.40605210721E+02  0.49480791238E+02  0.19589167996E+03  0.16500000000E+03 0.  0.
<mgrwt>
<rscale>  0 0.42101873E+03</rscale>
<asrwt>0</asrwt>
<pdfrwt beam="1">  1        2 0.24425719E-01 0.42101873E+03</pdfrwt>
<pdfrwt beam="2">  1       -2 0.37025370E-01 0.42101873E+03</pdfrwt>
<totfact> 0.15380947E+03</totfact>
</mgrwt>
</event>
<event>
 4    1  0.5531008E-005  0.3958988E+03  0.7818608E-02  0.1045209E+00
          2   -1    0    0  501    0  0.00000000000E+00  0.00000000000E+00  0.22354762581E+03  0.22354762582E+03  0.25500000000E-02 0.  1.
         -2   -1    0    0    0  501 -0.00000000000E+00 -0.00000000000E+00 -0.17528239593E+03  0.17528239595E+03  0.25500000000E-02 0. -1.
    5000001    1    1    2    0    0  0.99797753468E+02  0.85607400904E+01  0.68344746793E+02  0.20476543234E+03  0.16500000000E+03 0.  0.
   -5000001    1    1    2    0    0 -0.99797753468E+02 -0.85607400904E+01 -0.20079516915E+02  0.19406458942E+03  0.16500000000E+03 0.  0.
<mgrwt>
<rscale>  0 0.39589879E+03</rscale>
<asrwt>0</asrwt>
<pdfrwt beam="1">  1        2 0.31935375E-01 0.39589879E+03</pdfrwt>
<pdfrwt beam="2">  1       -2 0.25040342E-01 0.39589879E+03</pdfrwt>
<totfact> 0.23362310E+03</totfact>
</mgrwt>
</event>
<event>
 4    1  0.5531008E-005  0.5659194E+03  0.7818608E-02  0.9978749E-01
          2   -1    0    0  501    0  0.00000000000E+00  0.00000000000E+00  0.39719526932E+02  0.39719527013E+02  0.25500000000E-02 0.  1.
         -2   -1    0    0    0  501 -0.00000000000E+00 -0.00000000000E+00 -0.20157889056E+04  0.20157889056E+04  0.25500000000E-02 0. -1.
    5000001    1    1    2    0    0  0.17812566639E+03 -0.14463993813E+03 -0.10383262500E+04  0.10761021634E+04  0.16500000000E+03 0.  0.
   -5000001    1    1    2    0    0 -0.17812566639E+03  0.14463993813E+03 -0.93774312876E+03  0.97940626926E+03  0.16500000000E+03 0.  0.
<mgrwt>
<rscale>  0 0.56591936E+03</rscale>
<asrwt>0</asrwt>
<pdfrwt beam="1">  1        2 0.56742194E-02 0.56591936E+03</pdfrwt>
<pdfrwt beam="2">  1       -2 0.28796978E+00 0.56591936E+03</pdfrwt>
<totfact> 0.55417159E+01</totfact>
</mgrwt>
</event>
<event>
 4    1  0.5531008E-005  0.4715974E+03  0.7818608E-02  0.1021470E+00
          2   -1    0    0  501    0  0.00000000000E+00  0.00000000000E+00  0.19508684601E+04  0.19508684601E+04  0.25500000000E-02 0.  1.
         -2   -1    0    0    0  501 -0.00000000000E+00 -0.00000000000E+00 -0.28500652235E+02  0.28500652349E+02  0.25500000000E-02 0. -1.
    5000001    1    1    2    0    0 -0.11956451671E+03  0.22184652253E+02  0.14504399760E+04  0.14648511721E+04  0.16500000000E+03 0.  0.
   -5000001    1    1    2    0    0  0.11956451671E+03 -0.22184652253E+02  0.47192783193E+03  0.51451794040E+03  0.16500000000E+03 0.  0.
<mgrwt>
<rscale>  0 0.47159739E+03</rscale>
<asrwt>0</asrwt>
<pdfrwt beam="1">  1        2 0.27869545E+00 0.47159739E+03</pdfrwt>
<pdfrwt beam="2">  1       -2 0.40715224E-02 0.47159739E+03</pdfrwt>
<totfact> 0.24802730E+03</totfact>
</mgrwt>
</event>
<event>
 4    1  0.5531008E-005  0.5787888E+03  0.7818608E-02  0.9950417E-01
         -2   -1    0    0    0  501 -0.00000000000E+00  0.00000000000E+00  0.83412268760E+03  0.83412268761E+03  0.25500000000E-02 0. -1.
          2   -1    0    0  501    0  0.00000000000E+00 -0.00000000000E+00 -0.10040383681E+03  0.10040383684E+03  0.25500000000E-02 0.  1.
    5000001    1    1    2    0    0  0.87494083532E+02 -0.21908917396E+03  0.41445217261E+03  0.50462945235E+03  0.16500000000E+03 0.  0.
   -5000001    1    1    2    0    0 -0.87494083532E+02  0.21908917396E+03  0.31926667818E+03  0.42989707210E+03  0.16500000000E+03 0.  0.
<mgrwt>
<rscale>  0 0.57878880E+03</rscale>
<asrwt>0</asrwt>
<pdfrwt beam="1">  1        2 0.14343405E-01 0.57878880E+03</pdfrwt>
<pdfrwt beam="2">  1       -2 0.11916039E+00 0.57878880E+03</pdfrwt>
<totfact> 0.23186785E+02</totfact>
</mgrwt>
</event>
<event>
 4    1  0.5531008E-005  0.5868134E+03  0.7818608E-02  0.9933148E-01
         -2   -1    0    0    0  501 -0.00000000000E+00  0.00000000000E+00  0.70749808981E+02  0.70749809027E+02  0.25500000000E-02 0. -1.
          2   -1    0    0  501    0  0.00000000000E+00 -0.00000000000E+00 -0.12167875023E+04  0.12167875023E+04  0.25500000000E-02 0.  1.
    5000001    1    1    2    0    0  0.62335211432E+02 -0.23442803847E+03 -0.58290445528E+03  0.65256784152E+03  0.16500000000E+03 0.  0.
   -5000001    1    1    2    0    0 -0.62335211432E+02  0.23442803847E+03 -0.56313323804E+03  0.63496946981E+03  0.16500000000E+03 0.  0.
<mgrwt>
<rscale>  0 0.58681337E+03</rscale>
<asrwt>0</asrwt>
<pdfrwt beam="1">  1        2 0.17382677E+00 0.58681337E+03</pdfrwt>
<pdfrwt beam="2">  1       -2 0.10107116E-01 0.58681337E+03</pdfrwt>
<totfact> 0.14220280E+03</totfact>
</mgrwt>
</event>
<event>
 4    1  0.5531008E-005  0.4308975E+03  0.7818608E-02  0.1033577E+00
          2   -1    0    0  501    0  0.00000000000E+00  0.00000000000E+00  0.12420884084E+04  0.12420884084E+04  0.25500000000E-02 0.  1.
         -2   -1    0    0    0  501 -0.00000000000E+00 -0.00000000000E+00 -0.37371056345E+02  0.37371056432E+02  0.25500000000E-02 0. -1.
    5000001    1    1    2    0    0  0.64507446028E+02  0.81373021834E+02  0.87466662407E+03  0.89613028212E+03  0.16500000000E+03 0.  0.
   -5000001    1    1    2    0    0 -0.64507446028E+02 -0.81373021834E+02  0.33005072799E+03  0.38332918271E+03  0.16500000000E+03 0.  0.
<mgrwt>
<rscale>  0 0.43089746E+03</rscale>
<asrwt>0</asrwt>
<pdfrwt beam="1">  1        2 0.17744119E+00 0.43089746E+03</pdfrwt>
<pdfrwt beam="2">  1       -2 0.53387227E-02 0.43089746E+03</pdfrwt>
<totfact> 0.37808787E+03</totfact>
</mgrwt>
</event>
<event>
 4    1  0.5531008E-005  0.4568662E+03  0.7818608E-02  0.1025694E+00
         -2   -1    0    0    0  501 -0.00000000000E+00  0.00000000000E+00  0.15492708667E+03  0.15492708669E+03  0.25500000000E-02 0. -1.
          2   -1    0    0  501    0  0.00000000000E+00 -0.00000000000E+00 -0.33681443948E+03  0.33681443948E+03  0.25500000000E-02 0.  1.
    5000001    1    1    2    0    0 -0.11934171241E+03 -0.46582938391E+01  0.20354543516E+02  0.20470332549E+03  0.16500000000E+03 0.  0.
   -5000001    1    1    2    0    0  0.11934171241E+03  0.46582938391E+01 -0.20224189633E+03  0.28703820069E+03  0.16500000000E+03 0.  0.
<mgrwt>
<rscale>  0 0.45686619E+03</rscale>
<asrwt>0</asrwt>
<pdfrwt beam="1">  1        2 0.48116348E-01 0.45686619E+03</pdfrwt>
<pdfrwt beam="2">  1       -2 0.22132441E-01 0.45686619E+03</pdfrwt>
<totfact> 0.18566398E+03</totfact>
</mgrwt>
</event>
<event>
 4    1  0.5531008E-005  0.6833944E+03  0.7818608E-02  0.9746059E-01
          2   -1    0    0  501    0  0.00000000000E+00  0.00000000000E+00  0.41436860699E+04  0.41436860699E+04  0.25500000000E-02 0.  1.
         -2   -1    0    0    0  501 -0.00000000000E+00 -0.00000000000E+00 -0.28177083329E+02  0.28177083444E+02  0.25500000000E-02 0. -1.
    5000001    1    1    2    0    0  0.19590916706E+03 -0.19541699330E+03  0.27528180617E+04  0.27716061199E+04  0.16500000000E+03 0.  0.
   -5000001    1    1    2    0    0 -0.19590916706E+03  0.19541699330E+03  0.13626909249E+04  0.14002570335E+04  0.16500000000E+03 0.  0.
<mgrwt>
<rscale>  0 0.68339443E+03</rscale>
<asrwt>0</asrwt>
<pdfrwt beam="1">  1        2 0.59195561E+00 0.68339443E+03</pdfrwt>
<pdfrwt beam="2">  1       -2 0.40252945E-02 0.68339443E+03</pdfrwt>
<totfact> 0.14402184E+02</totfact>
</mgrwt>
</event>
<event>
 4    1  0.5531008E-005  0.3635358E+03  0.7818608E-02  0.1057193E+00
          2   -1    0    0  501    0  0.00000000000E+00  0.00000000000E+00  0.29359343957E+04  0.29359343957E+04  0.25500000000E-02 0.  1.
         -2   -1    0    0    0  501 -0.00000000000E+00 -0.00000000000E+00 -0.11253511963E+02  0.11253512252E+02  0.25500000000E-02 0. -1.
    5000001    1    1    2    0    0  0.45065848681E+02 -0.53339678766E+02  0.12139798618E+04  0.12271300489E+04  0.16500000000E+03 0.  0.
   -5000001    1    1    2    0    0 -0.45065848681E+02  0.53339678766E+02  0.17107010220E+04  0.17200578591E+04  0.16500000000E+03 0.  0.
<mgrwt>
<rscale>  0 0.36353582E+03</rscale>
<asrwt>0</asrwt>
<pdfrwt beam="1">  1        2 0.41941952E+00 0.36353582E+03</pdfrwt>
<pdfrwt beam="2">  1       -2 0.16076433E-02 0.36353582E+03</pdfrwt>
<totfact> 0.31784617E+03</totfact>
</mgrwt>
</event>
<event>
 4    1  0.5531008E-005  0.3936831E+03  0.7818608E-02  0.1045989E+00
         -2   -1    0    0    0  501 -0.00000000000E+00  0.00000000000E+00  0.59757167382E+02  0.59757167436E+02  0.25500000000E-02 0. -1.
          2   -1    0    0  501    0  0.00000000000E+00 -0.00000000000E+00 -0.64840096028E+03  0.64840096029E+03  0.25500000000E-02 0.  1.
    5000001    1    1    2    0    0  0.38701552704E+02 -0.95988105494E+02 -0.34551917583E+03  0.39663588774E+03  0.16500000000E+03 0.  0.
   -5000001    1    1    2    0    0 -0.38701552704E+02  0.95988105494E+02 -0.24312461707E+03  0.31152223999E+03  0.16500000000E+03 0.  0.
<mgrwt>
<rscale>  0 0.39368315E+03</rscale>
<asrwt>0</asrwt>
<pdfrwt beam="1">  1        2 0.92628704E-01 0.39368315E+03</pdfrwt>
<pdfrwt beam="2">  1       -2 0.85367386E-02 0.39368315E+03</pdfrwt>
<totfact> 0.43181429E+03</totfact>
</mgrwt>
</event>
<event>
 4    1  0.5531008E-005  0.8406573E+03  0.7818608E-02  0.9502963E-01
          2   -1    0    0  501    0  0.00000000000E+00  0.00000000000E+00  0.96261424657E+03  0.96261424657E+03  0.25500000000E-02 0.  1.
         -2   -1    0    0    0  501 -0.00000000000E+00 -0.00000000000E+00 -0.18353787988E+03  0.18353787989E+03  0.25500000000E-02 0. -1.
    5000001    1    1    2    0    0  0.34081132766E+03 -0.17396335409E+03  0.31442031105E+03  0.52201603580E+03  0.16500000000E+03 0.  0.
   -5000001    1    1    2    0    0 -0.34081132766E+03  0.17396335409E+03  0.46465605564E+03  0.62413609067E+03  0.16500000000E+03 0.  0.
<mgrwt>
<rscale>  0 0.84065731E+03</rscale>
<asrwt>0</asrwt>
<pdfrwt beam="1">  1        2 0.13751632E+00 0.84065731E+03</pdfrwt>
<pdfrwt beam="2">  1       -2 0.26219697E-01 0.84065731E+03</pdfrwt>
<totfact> 0.39014832E+02</totfact>
</mgrwt>
</event>
<event>
 4    1  0.5531008E-005  0.3744928E+03  0.7818608E-02  0.1052988E+00
          2   -1    0    0  501    0  0.00000000000E+00  0.00000000000E+00  0.10422037504E+04  0.10422037504E+04  0.25500000000E-02 0.  1.
         -2   -1    0    0    0  501 -0.00000000000E+00 -0.00000000000E+00 -0.33641418243E+02  0.33641418339E+02  0.25500000000E-02 0. -1.
    5000001    1    1    2    0    0  0.55011741655E+02  0.58496914464E+02  0.39725105166E+03  0.43758608155E+03  0.16500000000E+03 0.  0.
   -5000001    1    1    2    0    0 -0.55011741655E+02 -0.58496914464E+02  0.61131128054E+03  0.63825908723E+03  0.16500000000E+03 0.  0.
<mgrwt>
<rscale>  0 0.37449279E+03</rscale>
<asrwt>0</asrwt>
<pdfrwt beam="1">  1        2 0.14888621E+00 0.37449279E+03</pdfrwt>
<pdfrwt beam="2">  1       -2 0.48059182E-02 0.37449279E+03</pdfrwt>
<totfact> 0.57529425E+03</totfact>
</mgrwt>
</event>
<event>
 4    1  0.5531008E-005  0.4028075E+03  0.7818608E-02  0.1042812E+00
         -2   -1    0    0    0  501 -0.00000000000E+00  0.00000000000E+00  0.17281867903E+03  0.17281867904E+03  0.25500000000E-02 0. -1.
          2   -1    0    0  501    0  0.00000000000E+00 -0.00000000000E+00 -0.23471690194E+03  0.23471690195E+03  0.25500000000E-02 0.  1.
    5000001    1    1    2    0    0 -0.11134605078E+03  0.20096709019E+02 -0.54386608829E+02  0.20732757645E+03  0.16500000000E+03 0.  0.
   -5000001    1    1    2    0    0  0.11134605078E+03 -0.20096709019E+02 -0.75116140837E+01  0.20020800454E+03  0.16500000000E+03 0.  0.
<mgrwt>
<rscale>  0 0.40280747E+03</rscale>
<asrwt>0</asrwt>
<pdfrwt beam="1">  1        2 0.33530986E-01 0.40280747E+03</pdfrwt>
<pdfrwt beam="2">  1       -2 0.24688383E-01 0.40280747E+03</pdfrwt>
<totfact> 0.22708882E+03</totfact>
</mgrwt>
</event>
<event>
 4    1  0.5531008E-005  0.8802467E+03  0.7818608E-02  0.9450617E-01
          2   -1    0    0  501    0  0.00000000000E+00  0.00000000000E+00  0.70172213428E+03  0.70172213429E+03  0.25500000000E-02 0.  1.
         -2   -1    0    0    0  501 -0.00000000000E+00 -0.00000000000E+00 -0.27604738639E+03  0.27604738640E+03  0.25500000000E-02 0. -1.
    5000001    1    1    2    0    0  0.15494920115E+03  0.15722400544E+03  0.59400992583E+03  0.65482931731E+03  0.16500000000E+03 0.  0.
   -5000001    1    1    2    0    0 -0.15494920115E+03 -0.15722400544E+03 -0.16833517794E+03  0.32294020338E+03  0.16500000000E+03 0.  0.
<mgrwt>
<rscale>  0 0.88024670E+03</rscale>
<asrwt>0</asrwt>
<pdfrwt beam="1">  1        2 0.10024602E+00 0.88024670E+03</pdfrwt>
<pdfrwt beam="2">  1       -2 0.39435341E-01 0.88024670E+03</pdfrwt>
<totfact> 0.27343024E+02</totfact>
</mgrwt>
</event>
<event>
 4    1  0.5531008E-005  0.3644030E+03  0.7818608E-02  0.1056854E+00
         -2   -1    0    0    0  501 -0.00000000000E+00  0.00000000000E+00  0.61174500352E+02  0.61174500405E+02  0.25500000000E-02 0. -1.
          2   -1    0    0  501    0  0.00000000000E+00 -0.00000000000E+00 -0.54266712793E+03  0.54266712794E+03  0.25500000000E-02 0.  1.
    5000001    1    1    2    0    0 -0.66389572874E+02  0.36919863881E+02 -0.21721014987E+03  0.28315349361E+03  0.16500000000E+03 0.  0.
   -5000001    1    1    2    0    0  0.66389572874E+02 -0.36919863881E+02 -0.26428247771E+03  0.32068813474E+03  0.16500000000E+03 0.  0.
<mgrwt>
<rscale>  0 0.36440302E+03</rscale>
<asrwt>0</asrwt>
<pdfrwt beam="1">  1        2 0.77523873E-01 0.36440302E+03</pdfrwt>
<pdfrwt beam="2">  1       -2 0.87392146E-02 0.36440302E+03</pdfrwt>
<totfact> 0.51020208E+03</totfact>
</mgrwt>
</event>
<event>
 4    1  0.5531008E-005  0.4280092E+03  0.7818608E-02  0.1034491E+00
         -2   -1    0    0    0  501 -0.00000000000E+00  0.00000000000E+00  0.67923207744E+02  0.67923207792E+02  0.25500000000E-02 0.  1.
          2   -1    0    0  501    0  0.00000000000E+00 -0.00000000000E+00 -0.67426105382E+03  0.67426105383E+03  0.25500000000E-02 0. -1.
    5000001    1    1    2    0    0 -0.12852486511E+03  0.36091638811E+02 -0.35071213164E+03  0.40993322215E+03  0.16500000000E+03 0.  0.
   -5000001    1    1    2    0    0  0.12852486511E+03 -0.36091638811E+02 -0.25562571444E+03  0.33225103947E+03  0.16500000000E+03 0.  0.
<mgrwt>
<rscale>  0 0.42800922E+03</rscale>
<asrwt>0</asrwt>
<pdfrwt beam="1">  1        2 0.96323004E-01 0.42800922E+03</pdfrwt>
<pdfrwt beam="2">  1       -2 0.97033158E-02 0.42800922E+03</pdfrwt>
<totfact> 0.33650385E+03</totfact>
</mgrwt>
</event>
<event>
 4    1  0.5531008E-005  0.4199562E+03  0.7818608E-02  0.1037081E+00
         -2   -1    0    0    0  501 -0.00000000000E+00  0.00000000000E+00  0.15007645812E+02  0.15007646029E+02  0.25500000000E-02 0. -1.
          2   -1    0    0  501    0  0.00000000000E+00 -0.00000000000E+00 -0.29378887647E+04  0.29378887647E+04  0.25500000000E-02 0.  1.
    5000001    1    1    2    0    0 -0.11199005747E+03  0.55451313696E+02 -0.12129238587E+04  0.12304576012E+04  0.16500000000E+03 0.  0.
   -5000001    1    1    2    0    0  0.11199005747E+03 -0.55451313696E+02 -0.17099572602E+04  0.17224388096E+04  0.16500000000E+03 0.  0.
<mgrwt>
<rscale>  0 0.41995616E+03</rscale>
<asrwt>0</asrwt>
<pdfrwt beam="1">  1        2 0.41969803E+00 0.41995616E+03</pdfrwt>
<pdfrwt beam="2">  1       -2 0.21439513E-02 0.41995616E+03</pdfrwt>
<totfact> 0.20595833E+03</totfact>
</mgrwt>
</event>
<event>
 4    1  0.5531008E-005  0.5689191E+03  0.7818608E-02  0.9972073E-01
          2   -1    0    0  501    0  0.00000000000E+00  0.00000000000E+00  0.34933204320E+03  0.34933204321E+03  0.25500000000E-02 0.  1.
         -2   -1    0    0    0  501 -0.00000000000E+00 -0.00000000000E+00 -0.23163416235E+03  0.23163416237E+03  0.25500000000E-02 0. -1.
    5000001    1    1    2    0    0 -0.11850413155E+03  0.16937340379E+03  0.16576389203E+03  0.31214299129E+03  0.16500000000E+03 0.  0.
   -5000001    1    1    2    0    0  0.11850413155E+03 -0.16937340379E+03 -0.48066011188E+02  0.26882321429E+03  0.16500000000E+03 0.  0.
<mgrwt>
<rscale>  0 0.56891910E+03</rscale>
<asrwt>0</asrwt>
<pdfrwt beam="1">  1        2 0.49904577E-01 0.56891910E+03</pdfrwt>
<pdfrwt beam="2">  1       -2 0.33090595E-01 0.56891910E+03</pdfrwt>
<totfact> 0.86080555E+02</totfact>
</mgrwt>
</event>
<event>
 4    1  0.5531008E-005  0.5514541E+03  0.7818608E-02  0.1001158E+00
          2   -1    0    0  501    0  0.00000000000E+00  0.00000000000E+00  0.62867501157E+03  0.62867501158E+03  0.25500000000E-02 0.  1.
         -2   -1    0    0    0  501 -0.00000000000E+00 -0.00000000000E+00 -0.12092956648E+03  0.12092956651E+03  0.25500000000E-02 0. -1.
    5000001    1    1    2    0    0 -0.19768233177E+03 -0.94055349252E+02  0.21364768151E+03  0.34755581542E+03  0.16500000000E+03 0.  0.
   -5000001    1    1    2    0    0  0.19768233177E+03  0.94055349252E+02  0.29409776358E+03  0.40204876267E+03  0.16500000000E+03 0.  0.
<mgrwt>
<rscale>  0 0.55145407E+03</rscale>
<asrwt>0</asrwt>
<pdfrwt beam="1">  1        2 0.89810718E-01 0.55145407E+03</pdfrwt>
<pdfrwt beam="2">  1       -2 0.17275652E-01 0.55145407E+03</pdfrwt>
<totfact> 0.14121179E+03</totfact>
</mgrwt>
</event>
<event>
 4    1  0.5531008E-005  0.7313320E+03  0.7818608E-02  0.9665101E-01
          2   -1    0    0  501    0  0.00000000000E+00  0.00000000000E+00  0.19911628310E+04  0.19911628310E+04  0.25500000000E-02 0.  1.
         -2   -1    0    0    0  501 -0.00000000000E+00 -0.00000000000E+00 -0.67152536640E+02  0.67152536688E+02  0.25500000000E-02 0. -1.
    5000001    1    1    2    0    0  0.15037041179E+02  0.32596281463E+03  0.97033802780E+03  0.10369468440E+04  0.16500000000E+03 0.  0.
   -5000001    1    1    2    0    0 -0.15037041179E+02 -0.32596281463E+03  0.95367226653E+03  0.10213685236E+04  0.16500000000E+03 0.  0.
<mgrwt>
<rscale>  0 0.73133203E+03</rscale>
<asrwt>0</asrwt>
<pdfrwt beam="1">  1        2 0.28445184E+00 0.73133203E+03</pdfrwt>
<pdfrwt beam="2">  1       -2 0.95932193E-02 0.73133203E+03</pdfrwt>
<totfact> 0.60775183E+02</totfact>
</mgrwt>
</event>
<event>
 4    1  0.5531008E-005  0.5933602E+03  0.7818608E-02  0.9919278E-01
          2   -1    0    0  501    0  0.00000000000E+00  0.00000000000E+00  0.13553765638E+04  0.13553765638E+04  0.25500000000E-02 0.  1.
         -2   -1    0    0    0  501 -0.00000000000E+00 -0.00000000000E+00 -0.64940689877E+02  0.64940689927E+02  0.25500000000E-02 0. -1.
    5000001    1    1    2    0    0 -0.25929625024E+02  0.24207373907E+03  0.55183206412E+03  0.62531245598E+03  0.16500000000E+03 0.  0.
   -5000001    1    1    2    0    0  0.25929625024E+02 -0.24207373907E+03  0.73860380979E+03  0.79500479775E+03  0.16500000000E+03 0.  0.
<mgrwt>
<rscale>  0 0.59336022E+03</rscale>
<asrwt>0</asrwt>
<pdfrwt beam="1">  1        2 0.19362522E+00 0.59336022E+03</pdfrwt>
<pdfrwt beam="2">  1       -2 0.92772416E-02 0.59336022E+03</pdfrwt>
<totfact> 0.13718604E+03</totfact>
</mgrwt>
</event>
<event>
 4    1  0.5531008E-005  0.5139183E+03  0.7818608E-02  0.1010209E+00
          2   -1    0    0  501    0  0.00000000000E+00  0.00000000000E+00  0.52906810370E+03  0.52906810370E+03  0.25500000000E-02 0.  1.
         -2   -1    0    0    0  501 -0.00000000000E+00 -0.00000000000E+00 -0.12480057454E+03  0.12480057456E+03  0.25500000000E-02 0. -1.
    5000001    1    1    2    0    0  0.61219614514E+02 -0.16928302758E+03  0.10036071595E+03  0.26401109434E+03  0.16500000000E+03 0.  0.
   -5000001    1    1    2    0    0 -0.61219614514E+02  0.16928302758E+03  0.30390681321E+03  0.38985758393E+03  0.16500000000E+03 0.  0.
<mgrwt>
<rscale>  0 0.51391829E+03</rscale>
<asrwt>0</asrwt>
<pdfrwt beam="1">  1        2 0.75581157E-01 0.51391829E+03</pdfrwt>
<pdfrwt beam="2">  1       -2 0.17828654E-01 0.51391829E+03</pdfrwt>
<totfact> 0.16353622E+03</totfact>
</mgrwt>
</event>
<event>
 4    1  0.5531008E-005  0.1246872E+04  0.7818608E-02  0.9072791E-01
         -2   -1    0    0    0  501 -0.00000000000E+00  0.00000000000E+00  0.34595079346E+03  0.34595079347E+03  0.25500000000E-02 0. -1.
          2   -1    0    0  501    0  0.00000000000E+00 -0.00000000000E+00 -0.11234908037E+04  0.11234908037E+04  0.25500000000E-02 0.  1.
    5000001    1    1    2    0    0  0.33153096846E+03 -0.45728767375E+03 -0.63150351826E+03  0.86316075744E+03  0.16500000000E+03 0.  0.
   -5000001    1    1    2    0    0 -0.33153096846E+03  0.45728767375E+03 -0.14603649194E+03  0.60628083970E+03  0.16500000000E+03 0.  0.
<mgrwt>
<rscale>  0 0.12468721E+04</rscale>
<asrwt>0</asrwt>
<pdfrwt beam="1">  1        2 0.16049868E+00 0.12468721E+04</pdfrwt>
<pdfrwt beam="2">  1       -2 0.49421543E-01 0.12468721E+04</pdfrwt>
<totfact> 0.90226486E+01</totfact>
</mgrwt>
</event>
<event>
 4    1  0.5531008E-005  0.1079820E+04  0.7818608E-02  0.9225086E-01
         -2   -1    0    0    0  501 -0.00000000000E+00  0.00000000000E+00  0.24058759138E+03  0.24058759139E+03  0.25500000000E-02 0. -1.
          2   -1    0    0  501    0  0.00000000000E+00 -0.00000000000E+00 -0.12116296995E+04  0.12116296995E+04  0.25500000000E-02 0.  1.
    5000001    1    1    2    0    0  0.38333055119E+03 -0.21827519263E+03 -0.84055556404E+03  0.96350663071E+03  0.16500000000E+03 0.  0.
   -5000001    1    1    2    0    0 -0.38333055119E+03  0.21827519263E+03 -0.13048654409E+03  0.48871066019E+03  0.16500000000E+03 0.  0.
<mgrwt>
<rscale>  0 0.10798205E+04</rscale>
<asrwt>0</asrwt>
<pdfrwt beam="1">  1        2 0.17308995E+00 0.10798205E+04</pdfrwt>
<pdfrwt beam="2">  1       -2 0.34369656E-01 0.10798205E+04</pdfrwt>
<totfact> 0.16563536E+02</totfact>
</mgrwt>
</event>
<event>
 4    1  0.5531008E-005  0.3664495E+03  0.7818608E-02  0.1056059E+00
          2   -1    0    0  501    0  0.00000000000E+00  0.00000000000E+00  0.18765265289E+04  0.18765265289E+04  0.25500000000E-02 0.  1.
         -2   -1    0    0    0  501 -0.00000000000E+00 -0.00000000000E+00 -0.17890132690E+02  0.17890132872E+02  0.25500000000E-02 0. -1.
    5000001    1    1    2    0    0 -0.77575948650E+02 -0.95555943836E+01  0.84973717761E+03  0.86913037469E+03  0.16500000000E+03 0.  0.
   -5000001    1    1    2    0    0  0.77575948650E+02  0.95555943836E+01  0.10088992186E+04  0.10252862871E+04  0.16500000000E+03 0.  0.
<mgrwt>
<rscale>  0 0.36644950E+03</rscale>
<asrwt>0</asrwt>
<pdfrwt beam="1">  1        2 0.26807540E+00 0.36644950E+03</pdfrwt>
<pdfrwt beam="2">  1       -2 0.25557316E-02 0.36644950E+03</pdfrwt>
<totfact> 0.54657050E+03</totfact>
</mgrwt>
</event>
<event>
 4    1  0.5531008E-005  0.4192968E+03  0.7818608E-02  0.1037295E+00
          2   -1    0    0  501    0  0.00000000000E+00  0.00000000000E+00  0.56393645236E+03  0.56393645236E+03  0.25500000000E-02 0.  1.
         -2   -1    0    0    0  501 -0.00000000000E+00 -0.00000000000E+00 -0.77938642675E+02  0.77938642717E+02  0.25500000000E-02 0. -1.
    5000001    1    1    2    0    0 -0.11442898079E+03  0.58096281115E+02  0.21839705241E+03  0.30231017519E+03  0.16500000000E+03 0.  0.
   -5000001    1    1    2    0    0  0.11442898079E+03 -0.58096281115E+02  0.26760075728E+03  0.33956491989E+03  0.16500000000E+03 0.  0.
<mgrwt>
<rscale>  0 0.41929675E+03</rscale>
<asrwt>0</asrwt>
<pdfrwt beam="1">  1        2 0.80562352E-01 0.41929675E+03</pdfrwt>
<pdfrwt beam="2">  1       -2 0.11134092E-01 0.41929675E+03</pdfrwt>
<totfact> 0.33214097E+03</totfact>
</mgrwt>
</event>
<event>
 4    1  0.5531008E-005  0.4367212E+03  0.7818608E-02  0.1031758E+00
          2   -1    0    0  501    0  0.00000000000E+00  0.00000000000E+00  0.12429613135E+03  0.12429613138E+03  0.25500000000E-02 0.  1.
         -2   -1    0    0    0  501 -0.00000000000E+00 -0.00000000000E+00 -0.38361085382E+03  0.38361085383E+03  0.25500000000E-02 0. -1.
    5000001    1    1    2    0    0  0.92094674785E+02 -0.80265414265E+02 -0.21616130589E+03  0.29811856033E+03  0.16500000000E+03 0.  0.
   -5000001    1    1    2    0    0 -0.92094674785E+02  0.80265414265E+02 -0.43153416579E+02  0.20978842488E+03  0.16500000000E+03 0.  0.
<mgrwt>
<rscale>  0 0.43672117E+03</rscale>
<asrwt>0</asrwt>
<pdfrwt beam="1">  1        2 0.17756590E-01 0.43672117E+03</pdfrwt>
<pdfrwt beam="2">  1       -2 0.54801550E-01 0.43672117E+03</pdfrwt>
<totfact> 0.10257645E+03</totfact>
</mgrwt>
</event>
<event>
 4    1  0.5531008E-005  0.4307044E+03  0.7818608E-02  0.1033638E+00
         -2   -1    0    0    0  501 -0.00000000000E+00  0.00000000000E+00  0.43579187542E+02  0.43579187617E+02  0.25500000000E-02 0. -1.
          2   -1    0    0  501    0  0.00000000000E+00 -0.00000000000E+00 -0.10641908273E+04  0.10641908274E+04  0.25500000000E-02 0.  1.
    5000001    1    1    2    0    0 -0.10635283235E+03  0.78224758890E+02 -0.40359018046E+03  0.45556566115E+03  0.16500000000E+03 0.  0.
   -5000001    1    1    2    0    0  0.10635283235E+03 -0.78224758890E+02 -0.61702145934E+03  0.65220435382E+03  0.16500000000E+03 0.  0.
<mgrwt>
<rscale>  0 0.43070441E+03</rscale>
<asrwt>0</asrwt>
<pdfrwt beam="1">  1        2 0.15202725E+00 0.43070441E+03</pdfrwt>
<pdfrwt beam="2">  1       -2 0.62255989E-02 0.43070441E+03</pdfrwt>
<totfact> 0.37525493E+03</totfact>
</mgrwt>
</event>
<event>
 4    1  0.5531008E-005  0.4411283E+03  0.7818608E-02  0.1030401E+00
          2   -1    0    0  501    0  0.00000000000E+00  0.00000000000E+00  0.23197687141E+04  0.23197687141E+04  0.25500000000E-02 0.  1.
         -2   -1    0    0    0  501 -0.00000000000E+00 -0.00000000000E+00 -0.20971289516E+02  0.20971289671E+02  0.25500000000E-02 0. -1.
    5000001    1    1    2    0    0 -0.37041594999E+02  0.14156833147E+03  0.11327289051E+04  0.11539988929E+04  0.16500000000E+03 0.  0.
   -5000001    1    1    2    0    0  0.37041594999E+02 -0.14156833147E+03  0.11660685194E+04  0.11867411109E+04  0.16500000000E+03 0.  0.
<mgrwt>
<rscale>  0 0.44112829E+03</rscale>
<asrwt>0</asrwt>
<pdfrwt beam="1">  1        2 0.33139531E+00 0.44112829E+03</pdfrwt>
<pdfrwt beam="2">  1       -2 0.29959005E-02 0.44112829E+03</pdfrwt>
<totfact> 0.25907163E+03</totfact>
</mgrwt>
</event>
<event>
 4    1  0.5531008E-005  0.4960148E+03  0.7818608E-02  0.1014824E+00
          2   -1    0    0  501    0  0.00000000000E+00  0.00000000000E+00  0.50357852396E+03  0.50357852397E+03  0.25500000000E-02 0.  1.
         -2   -1    0    0    0  501 -0.00000000000E+00 -0.00000000000E+00 -0.12214118720E+03  0.12214118723E+03  0.25500000000E-02 0. -1.
    5000001    1    1    2    0    0  0.12105320277E+02  0.16035246858E+03  0.74941108121E+02  0.24228211376E+03  0.16500000000E+03 0.  0.
   -5000001    1    1    2    0    0 -0.12105320277E+02 -0.16035246858E+03  0.30649622864E+03  0.38343759744E+03  0.16500000000E+03 0.  0.
<mgrwt>
<rscale>  0 0.49601483E+03</rscale>
<asrwt>0</asrwt>
<pdfrwt beam="1">  1        2 0.71939790E-01 0.49601483E+03</pdfrwt>
<pdfrwt beam="2">  1       -2 0.17448741E-01 0.49601483E+03</pdfrwt>
<totfact> 0.17944636E+03</totfact>
</mgrwt>
</event>
<event>
 4    1  0.5531008E-005  0.3639371E+03  0.7818608E-02  0.1057036E+00
         -2   -1    0    0    0  501 -0.00000000000E+00  0.00000000000E+00  0.26747286505E+02  0.26747286627E+02  0.25500000000E-02 0. -1.
          2   -1    0    0  501    0  0.00000000000E+00 -0.00000000000E+00 -0.12379782819E+04  0.12379782819E+04  0.25500000000E-02 0.  1.
    5000001    1    1    2    0    0  0.31299270398E+01  0.66893100758E+02 -0.73578540624E+03  0.75702684722E+03  0.16500000000E+03 0.  0.
   -5000001    1    1    2    0    0 -0.31299270398E+01 -0.66893100758E+02 -0.47544558911E+03  0.50769872126E+03  0.16500000000E+03 0.  0.
<mgrwt>
<rscale>  0 0.36393714E+03</rscale>
<asrwt>0</asrwt>
<pdfrwt beam="1">  1        2 0.17685400E+00 0.36393714E+03</pdfrwt>
<pdfrwt beam="2">  1       -2 0.38210417E-02 0.36393714E+03</pdfrwt>
<totfact> 0.63259954E+03</totfact>
</mgrwt>
</event>
<event>
 4    1  0.5531008E-005  0.4326615E+03  0.7818608E-02  0.1033022E+00
          2   -1    0    0  501    0  0.00000000000E+00  0.00000000000E+00  0.16141813685E+03  0.16141813687E+03  0.25500000000E-02 0.  1.
         -2   -1    0    0    0  501 -0.00000000000E+00 -0.00000000000E+00 -0.28992406655E+03  0.28992406656E+03  0.25500000000E-02 0. -1.
    5000001    1    1    2    0    0 -0.81061033239E+02 -0.87056644862E+02  0.12576460417E+02  0.20379626562E+03  0.16500000000E+03 0.  0.
   -5000001    1    1    2    0    0  0.81061033239E+02  0.87056644862E+02 -0.14108239012E+03  0.24754593781E+03  0.16500000000E+03 0.  0.
<mgrwt>
<rscale>  0 0.43266154E+03</rscale>
<asrwt>0</asrwt>
<pdfrwt beam="1">  1        2 0.23059734E-01 0.43266154E+03</pdfrwt>
<pdfrwt beam="2">  1       -2 0.41417724E-01 0.43266154E+03</pdfrwt>
<totfact> 0.13244517E+03</totfact>
</mgrwt>
</event>
<event>
 4    1  0.5531008E-005  0.5376049E+03  0.7818608E-02  0.1004404E+00
         -2   -1    0    0    0  501 -0.00000000000E+00  0.00000000000E+00  0.58609617646E+02  0.58609617702E+02  0.25500000000E-02 0. -1.
          2   -1    0    0  501    0  0.00000000000E+00 -0.00000000000E+00 -0.12328140085E+04  0.12328140085E+04  0.25500000000E-02 0.  1.
    5000001    1    1    2    0    0  0.20130800837E+03  0.59965969590E+02 -0.51468032105E+03  0.57986348792E+03  0.16500000000E+03 0.  0.
   -5000001    1    1    2    0    0 -0.20130800837E+03 -0.59965969590E+02 -0.65952406976E+03  0.71156013824E+03  0.16500000000E+03 0.  0.
<mgrwt>
<rscale>  0 0.53760490E+03</rscale>
<asrwt>0</asrwt>
<pdfrwt beam="1">  1        2 0.17611627E+00 0.53760490E+03</pdfrwt>
<pdfrwt beam="2">  1       -2 0.83728032E-02 0.53760490E+03</pdfrwt>
<totfact> 0.18877441E+03</totfact>
</mgrwt>
</event>
<event>
 4    1  0.5531008E-005  0.1133579E+04  0.7818608E-02  0.9173068E-01
          2   -1    0    0  501    0  0.00000000000E+00  0.00000000000E+00  0.25427203867E+04  0.25427203867E+04  0.25500000000E-02 0.  1.
         -2   -1    0    0    0  501 -0.00000000000E+00 -0.00000000000E+00 -0.12634123482E+03  0.12634123485E+03  0.25500000000E-02 0. -1.
    5000001    1    1    2    0    0  0.45736747976E+03 -0.14142003382E+03  0.18077471761E+04  0.18773277525E+04  0.16500000000E+03 0.  0.
   -5000001    1    1    2    0    0 -0.45736747976E+03  0.14142003382E+03  0.60863197581E+03  0.79173386911E+03  0.16500000000E+03 0.  0.
<mgrwt>
<rscale>  0 0.11335792E+04</rscale>
<asrwt>0</asrwt>
<pdfrwt beam="1">  1        2 0.36324571E+00 0.11335792E+04</pdfrwt>
<pdfrwt beam="2">  1       -2 0.18048751E-01 0.11335792E+04</pdfrwt>
<totfact> 0.10671783E+02</totfact>
</mgrwt>
</event>
<event>
 4    1  0.5531008E-005  0.6107317E+03  0.7818608E-02  0.9883388E-01
         -2   -1    0    0    0  501 -0.00000000000E+00  0.00000000000E+00  0.47417562352E+03  0.47417562353E+03  0.25500000000E-02 0. -1.
          2   -1    0    0  501    0  0.00000000000E+00 -0.00000000000E+00 -0.19665348633E+03  0.19665348634E+03  0.25500000000E-02 0.  1.
    5000001    1    1    2    0    0  0.61326989594E+02 -0.19713620051E+03  0.30678291818E+03  0.40492522778E+03  0.16500000000E+03 0.  0.
   -5000001    1    1    2    0    0 -0.61326989594E+02  0.19713620051E+03 -0.29260780985E+02  0.26590388209E+03  0.16500000000E+03 0.  0.
<mgrwt>
<rscale>  0 0.61073166E+03</rscale>
<asrwt>0</asrwt>
<pdfrwt beam="1">  1        2 0.28093355E-01 0.61073166E+03</pdfrwt>
<pdfrwt beam="2">  1       -2 0.67739375E-01 0.61073166E+03</pdfrwt>
<totfact> 0.38648681E+02</totfact>
</mgrwt>
</event>
<event>
 4    1  0.5531008E-005  0.4952155E+03  0.7818608E-02  0.1015035E+00
          2   -1    0    0  501    0  0.00000000000E+00  0.00000000000E+00  0.46247148208E+03  0.46247148209E+03  0.25500000000E-02 0.  1.
         -2   -1    0    0    0  501 -0.00000000000E+00 -0.00000000000E+00 -0.13256948790E+03  0.13256948793E+03  0.25500000000E-02 0. -1.
    5000001    1    1    2    0    0  0.15449105596E+03 -0.91195918070E+02  0.11256948219E+03  0.26847918013E+03  0.16500000000E+03 0.  0.
   -5000001    1    1    2    0    0 -0.15449105596E+03  0.91195918070E+02  0.21733251199E+03  0.32656178988E+03  0.16500000000E+03 0.  0.
<mgrwt>
<rscale>  0 0.49521554E+03</rscale>
<asrwt>0</asrwt>
<pdfrwt beam="1">  1        2 0.66067354E-01 0.49521554E+03</pdfrwt>
<pdfrwt beam="2">  1       -2 0.18938498E-01 0.49521554E+03</pdfrwt>
<totfact> 0.17162907E+03</totfact>
</mgrwt>
</event>
<event>
 4    1  0.5531008E-005  0.6524313E+03  0.7818608E-02  0.9802228E-01
          2   -1    0    0  501    0  0.00000000000E+00  0.00000000000E+00  0.23783539513E+04  0.23783539513E+04  0.25500000000E-02 0.  1.
         -2   -1    0    0    0  501 -0.00000000000E+00 -0.00000000000E+00 -0.44743818946E+02  0.44743819018E+02  0.25500000000E-02 0. -1.
    5000001    1    1    2    0    0 -0.16871418899E+03  0.24961605013E+02  0.19981336576E+04  0.20121756068E+04  0.16500000000E+03 0.  0.
   -5000001    1    1    2    0    0  0.16871418899E+03 -0.24961605013E+02  0.33547647475E+03  0.41092216344E+03  0.16500000000E+03 0.  0.
<mgrwt>
<rscale>  0 0.65243126E+03</rscale>
<asrwt>0</asrwt>
<pdfrwt beam="1">  1        2 0.33976482E+00 0.65243126E+03</pdfrwt>
<pdfrwt beam="2">  1       -2 0.63919747E-02 0.65243126E+03</pdfrwt>
<totfact> 0.74387877E+02</totfact>
</mgrwt>
</event>
<event>
 4    1  0.5531008E-005  0.1638422E+04  0.7818608E-02  0.8797285E-01
          2   -1    0    0  501    0  0.00000000000E+00  0.00000000000E+00  0.13145980609E+04  0.13145980609E+04  0.25500000000E-02 0.  1.
         -2   -1    0    0    0  501 -0.00000000000E+00 -0.00000000000E+00 -0.51050354928E+03  0.51050354929E+03  0.25500000000E-02 0. -1.
    5000001    1    1    2    0    0 -0.20429679747E+02 -0.41063436412E+03  0.11696502568E+04  0.12507376528E+04  0.16500000000E+03 0.  0.
   -5000001    1    1    2    0    0  0.20429679747E+02  0.41063436412E+03 -0.36555574515E+03  0.57436395746E+03  0.16500000000E+03 0.  0.
<mgrwt>
<rscale>  0 0.16384224E+04</rscale>
<asrwt>0</asrwt>
<pdfrwt beam="1">  1        2 0.18779972E+00 0.16384224E+04</pdfrwt>
<pdfrwt beam="2">  1       -2 0.72929078E-01 0.16384224E+04</pdfrwt>
<totfact> 0.30002579E+01</totfact>
</mgrwt>
</event>
<event>
 4    1  0.5531008E-005  0.4899726E+03  0.7818608E-02  0.1016430E+00
          2   -1    0    0  501    0  0.00000000000E+00  0.00000000000E+00  0.38914422791E+03  0.38914422792E+03  0.25500000000E-02 0.  1.
         -2   -1    0    0    0  501 -0.00000000000E+00 -0.00000000000E+00 -0.15423149911E+03  0.15423149913E+03  0.25500000000E-02 0. -1.
    5000001    1    1    2    0    0 -0.64368683441E+02  0.16757659641E+03  0.91024765583E+02  0.26026092873E+03  0.16500000000E+03 0.  0.
   -5000001    1    1    2    0    0  0.64368683441E+02 -0.16757659641E+03  0.14388796322E+03  0.28311479833E+03  0.16500000000E+03 0.  0.
<mgrwt>
<rscale>  0 0.48997264E+03</rscale>
<asrwt>0</asrwt>
<pdfrwt beam="1">  1        2 0.55592032E-01 0.48997264E+03</pdfrwt>
<pdfrwt beam="2">  1       -2 0.22033071E-01 0.48997264E+03</pdfrwt>
<totfact> 0.15975749E+03</totfact>
</mgrwt>
</event>
<event>
 4    1  0.5531008E-005  0.4415912E+03  0.7818608E-02  0.1030260E+00
         -2   -1    0    0    0  501 -0.00000000000E+00  0.00000000000E+00  0.17721904039E+03  0.17721904041E+03  0.25500000000E-02 0. -1.
          2   -1    0    0  501    0  0.00000000000E+00 -0.00000000000E+00 -0.27508726079E+03  0.27508726080E+03  0.25500000000E-02 0.  1.
    5000001    1    1    2    0    0  0.12289462567E+03  0.39418790566E+02 -0.12040379330E+03  0.24161747352E+03  0.16500000000E+03 0.  0.
   -5000001    1    1    2    0    0 -0.12289462567E+03 -0.39418790566E+02  0.22535572896E+02  0.21068882769E+03  0.16500000000E+03 0.  0.
<mgrwt>
<rscale>  0 0.44159122E+03</rscale>
<asrwt>0</asrwt>
<pdfrwt beam="1">  1        2 0.39298180E-01 0.44159122E+03</pdfrwt>
<pdfrwt beam="2">  1       -2 0.25317006E-01 0.44159122E+03</pdfrwt>
<totfact> 0.18257308E+03</totfact>
</mgrwt>
</event>
<event>
 4    1  0.5531008E-005  0.4230194E+03  0.7818608E-02  0.1036088E+00
         -2   -1    0    0    0  501 -0.00000000000E+00  0.00000000000E+00  0.48708885291E+02  0.48708885357E+02  0.25500000000E-02 0. -1.
          2   -1    0    0  501    0  0.00000000000E+00 -0.00000000000E+00 -0.91844347212E+03  0.91844347212E+03  0.25500000000E-02 0.  1.
    5000001    1    1    2    0    0 -0.10665883413E+03  0.54909478323E+02 -0.56257755892E+03  0.59842264956E+03  0.16500000000E+03 0.  0.
   -5000001    1    1    2    0    0  0.10665883413E+03 -0.54909478323E+02 -0.30715702791E+03  0.36872970792E+03  0.16500000000E+03 0.  0.
<mgrwt>
<rscale>  0 0.42301942E+03</rscale>
<asrwt>0</asrwt>
<pdfrwt beam="1">  1        2 0.13120620E+00 0.42301942E+03</pdfrwt>
<pdfrwt beam="2">  1       -2 0.69584128E-02 0.42301942E+03</pdfrwt>
<totfact> 0.38633001E+03</totfact>
</mgrwt>
</event>
<event>
 4    1  0.5531008E-005  0.5353177E+03  0.7818608E-02  0.1004951E+00
         -2   -1    0    0    0  501 -0.00000000000E+00  0.00000000000E+00  0.55339314344E+02  0.55339314403E+02  0.25500000000E-02 0.  1.
          2   -1    0    0  501    0  0.00000000000E+00 -0.00000000000E+00 -0.12945814292E+04  0.12945814292E+04  0.25500000000E-02 0. -1.
    5000001    1    1    2    0    0 -0.18326621443E+03 -0.15072082508E+02 -0.87927946683E+03  0.91332965232E+03  0.16500000000E+03 0.  0.
   -5000001    1    1    2    0    0  0.18326621443E+03  0.15072082508E+02 -0.35996264808E+03  0.43659109133E+03  0.16500000000E+03 0.  0.
<mgrwt>
<rscale>  0 0.53531766E+03</rscale>
<asrwt>0</asrwt>
<pdfrwt beam="1">  1        2 0.18494019E+00 0.53531766E+03</pdfrwt>
<pdfrwt beam="2">  1       -2 0.79056171E-02 0.53531766E+03</pdfrwt>
<totfact> 0.19136123E+03</totfact>
</mgrwt>
</event>
<event>
 4    1  0.5531008E-005  0.4645911E+03  0.7818608E-02  0.1023458E+00
         -2   -1    0    0    0  501 -0.00000000000E+00  0.00000000000E+00  0.22204234435E+02  0.22204234582E+02  0.25500000000E-02 0. -1.
          2   -1    0    0  501    0  0.00000000000E+00 -0.00000000000E+00 -0.24302216636E+04  0.24302216636E+04  0.25500000000E-02 0.  1.
    5000001    1    1    2    0    0  0.11789202504E+03  0.58570864242E+02 -0.69202781014E+03  0.72350298252E+03  0.16500000000E+03 0.  0.
   -5000001    1    1    2    0    0 -0.11789202504E+03 -0.58570864242E+02 -0.17159896190E+04  0.17289229157E+04  0.16500000000E+03 0.  0.
<mgrwt>
<rscale>  0 0.46459105E+03</rscale>
<asrwt>0</asrwt>
<pdfrwt beam="1">  1        2 0.34717435E+00 0.46459105E+03</pdfrwt>
<pdfrwt beam="2">  1       -2 0.31720351E-02 0.46459105E+03</pdfrwt>
<totfact> 0.20882277E+03</totfact>
</mgrwt>
</event>
<event>
 4    1  0.5531008E-005  0.5211997E+03  0.7818608E-02  0.1008389E+00
          2   -1    0    0  501    0  0.00000000000E+00  0.00000000000E+00  0.12525120718E+04  0.12525120718E+04  0.25500000000E-02 0.  1.
         -2   -1    0    0    0  501 -0.00000000000E+00 -0.00000000000E+00 -0.54220869862E+02  0.54220869922E+02  0.25500000000E-02 0. -1.
    5000001    1    1    2    0    0  0.87443482506E+02 -0.13852163743E+03  0.89423231783E+03  0.92396485048E+03  0.16500000000E+03 0.  0.
   -5000001    1    1    2    0    0 -0.87443482506E+02  0.13852163743E+03  0.30405888409E+03  0.38276809123E+03  0.16500000000E+03 0.  0.
<mgrwt>
<rscale>  0 0.52119975E+03</rscale>
<asrwt>0</asrwt>
<pdfrwt beam="1">  1        2 0.17893027E+00 0.52119975E+03</pdfrwt>
<pdfrwt beam="2">  1       -2 0.77458398E-02 0.52119975E+03</pdfrwt>
<totfact> 0.20843547E+03</totfact>
</mgrwt>
</event>
<event>
 4    1  0.5531008E-005  0.3965116E+03  0.7818608E-02  0.1044994E+00
          2   -1    0    0  501    0  0.00000000000E+00  0.00000000000E+00  0.13269774295E+03  0.13269774298E+03  0.25500000000E-02 0.  1.
         -2   -1    0    0    0  501 -0.00000000000E+00 -0.00000000000E+00 -0.29620212192E+03  0.29620212193E+03  0.25500000000E-02 0. -1.
    5000001    1    1    2    0    0  0.34578574599E+02  0.96897496569E+02 -0.39920964075E+02  0.19850311341E+03  0.16500000000E+03 0.  0.
   -5000001    1    1    2    0    0 -0.34578574599E+02 -0.96897496569E+02 -0.12358341489E+03  0.23039675150E+03  0.16500000000E+03 0.  0.
<mgrwt>
<rscale>  0 0.39651155E+03</rscale>
<asrwt>0</asrwt>
<pdfrwt beam="1">  1        2 0.18956821E-01 0.39651155E+03</pdfrwt>
<pdfrwt beam="2">  1       -2 0.42314589E-01 0.39651155E+03</pdfrwt>
<totfact> 0.15912348E+03</totfact>
</mgrwt>
</event>
<event>
 4    1  0.5531008E-005  0.6991610E+03  0.7818608E-02  0.9718668E-01
         -2   -1    0    0    0  501 -0.00000000000E+00  0.00000000000E+00  0.43879236523E+02  0.43879236597E+02  0.25500000000E-02 0. -1.
          2   -1    0    0  501    0  0.00000000000E+00 -0.00000000000E+00 -0.27850652111E+04  0.27850652111E+04  0.25500000000E-02 0.  1.
    5000001    1    1    2    0    0 -0.25886026733E+03  0.16298685961E+03 -0.12187564041E+04  0.12673458592E+04  0.16500000000E+03 0.  0.
   -5000001    1    1    2    0    0  0.25886026733E+03 -0.16298685961E+03 -0.15224295705E+04  0.15615985885E+04  0.16500000000E+03 0.  0.
<mgrwt>
<rscale>  0 0.69916103E+03</rscale>
<asrwt>0</asrwt>
<pdfrwt beam="1">  1        2 0.39786635E+00 0.69916103E+03</pdfrwt>
<pdfrwt beam="2">  1       -2 0.62684641E-02 0.69916103E+03</pdfrwt>
<totfact> 0.46986095E+02</totfact>
</mgrwt>
</event>
<event>
 4    1  0.5531008E-005  0.6082714E+03  0.7818608E-02  0.9888393E-01
         -2   -1    0    0    0  501 -0.00000000000E+00  0.00000000000E+00  0.12063347792E+03  0.12063347794E+03  0.25500000000E-02 0. -1.
          2   -1    0    0  501    0  0.00000000000E+00 -0.00000000000E+00 -0.76677316885E+03  0.76677316886E+03  0.25500000000E-02 0.  1.
    5000001    1    1    2    0    0  0.19181340255E+03  0.16407695523E+03 -0.26545005625E+03  0.40174912694E+03  0.16500000000E+03 0.  0.
   -5000001    1    1    2    0    0 -0.19181340255E+03 -0.16407695523E+03 -0.38068963469E+03  0.48565751986E+03  0.16500000000E+03 0.  0.
<mgrwt>
<rscale>  0 0.60827137E+03</rscale>
<asrwt>0</asrwt>
<pdfrwt beam="1">  1        2 0.10953902E+00 0.60827137E+03</pdfrwt>
<pdfrwt beam="2">  1       -2 0.17233354E-01 0.60827137E+03</pdfrwt>
<totfact> 0.11121555E+03</totfact>
</mgrwt>
</event>
<event>
 4    1  0.5531008E-005  0.4633279E+03  0.7818608E-02  0.1023820E+00
          2   -1    0    0  501    0  0.00000000000E+00  0.00000000000E+00  0.27134387122E+04  0.27134387122E+04  0.25500000000E-02 0.  1.
         -2   -1    0    0    0  501 -0.00000000000E+00 -0.00000000000E+00 -0.19778662738E+02  0.19778662903E+02  0.25500000000E-02 0. -1.
    5000001    1    1    2    0    0 -0.11168552774E+03 -0.96759021926E+02  0.94641960834E+03  0.97199333356E+03  0.16500000000E+03 0.  0.
   -5000001    1    1    2    0    0  0.11168552774E+03  0.96759021926E+02  0.17472404411E+04  0.17612240416E+04  0.16500000000E+03 0.  0.
<mgrwt>
<rscale>  0 0.46332792E+03</rscale>
<asrwt>0</asrwt>
<pdfrwt beam="1">  1        2 0.38763433E+00 0.46332792E+03</pdfrwt>
<pdfrwt beam="2">  1       -2 0.28255216E-02 0.46332792E+03</pdfrwt>
<totfact> 0.17808373E+03</totfact>
</mgrwt>
</event>
<event>
 4    1  0.5531008E-005  0.4844466E+03  0.7818608E-02  0.1017920E+00
         -2   -1    0    0    0  501 -0.00000000000E+00  0.00000000000E+00  0.79017166937E+02  0.79017166978E+02  0.25500000000E-02 0. -1.
          2   -1    0    0  501    0  0.00000000000E+00 -0.00000000000E+00 -0.74252377037E+03  0.74252377038E+03  0.25500000000E-02 0.  1.
    5000001    1    1    2    0    0  0.11535328235E+03 -0.39850772028E+01 -0.56006106831E+03  0.59516019761E+03  0.16500000000E+03 0.  0.
   -5000001    1    1    2    0    0 -0.11535328235E+03  0.39850772028E+01 -0.10344553513E+03  0.22638073974E+03  0.16500000000E+03 0.  0.
<mgrwt>
<rscale>  0 0.48444659E+03</rscale>
<asrwt>0</asrwt>
<pdfrwt beam="1">  1        2 0.10607482E+00 0.48444659E+03</pdfrwt>
<pdfrwt beam="2">  1       -2 0.11288167E-01 0.48444659E+03</pdfrwt>
<totfact> 0.23460196E+03</totfact>
</mgrwt>
</event>
<event>
 4    1  0.5531008E-005  0.4746512E+03  0.7818608E-02  0.1020616E+00
         -2   -1    0    0    0  501 -0.00000000000E+00  0.00000000000E+00  0.12171466338E+03  0.12171466341E+03  0.25500000000E-02 0.  1.
          2   -1    0    0  501    0  0.00000000000E+00 -0.00000000000E+00 -0.46274990645E+03  0.46274990646E+03  0.25500000000E-02 0. -1.
    5000001    1    1    2    0    0  0.15574331673E+03 -0.60185568528E+02 -0.12750528987E+03  0.26713457715E+03  0.16500000000E+03 0.  0.
   -5000001    1    1    2    0    0 -0.15574331673E+03  0.60185568528E+02 -0.21352995320E+03  0.31732999272E+03  0.16500000000E+03 0.  0.
<mgrwt>
<rscale>  0 0.47465124E+03</rscale>
<asrwt>0</asrwt>
<pdfrwt beam="1">  1        2 0.66107129E-01 0.47465124E+03</pdfrwt>
<pdfrwt beam="2">  1       -2 0.17387809E-01 0.47465124E+03</pdfrwt>
<totfact> 0.19847147E+03</totfact>
</mgrwt>
</event>
<event>
 4    1  0.5531008E-005  0.4381599E+03  0.7818608E-02  0.1031313E+00
          2   -1    0    0  501    0  0.00000000000E+00  0.00000000000E+00  0.46235323637E+03  0.46235323638E+03  0.25500000000E-02 0.  1.
         -2   -1    0    0    0  501 -0.00000000000E+00 -0.00000000000E+00 -0.10380814890E+03  0.10380814893E+03  0.25500000000E-02 0. -1.
    5000001    1    1    2    0    0  0.95560882437E+02  0.10341401990E+03  0.21898736937E+03  0.30823174676E+03  0.16500000000E+03 0.  0.
   -5000001    1    1    2    0    0 -0.95560882437E+02 -0.10341401990E+03  0.13955771809E+03  0.25792963855E+03  0.16500000000E+03 0.  0.
<mgrwt>
<rscale>  0 0.43815994E+03</rscale>
<asrwt>0</asrwt>
<pdfrwt beam="1">  1        2 0.66050463E-01 0.43815994E+03</pdfrwt>
<pdfrwt beam="2">  1       -2 0.14829736E-01 0.43815994E+03</pdfrwt>
<totfact> 0.25957821E+03</totfact>
</mgrwt>
</event>
<event>
 4    1  0.5531008E-005  0.3904513E+03  0.7818608E-02  0.1047137E+00
         -2   -1    0    0    0  501 -0.00000000000E+00  0.00000000000E+00  0.22274533145E+02  0.22274533291E+02  0.25500000000E-02 0. -1.
          2   -1    0    0  501    0  0.00000000000E+00 -0.00000000000E+00 -0.17110593609E+04  0.17110593609E+04  0.25500000000E-02 0.  1.
    5000001    1    1    2    0    0 -0.53560230408E+02 -0.79044242623E+02 -0.10312318559E+04  0.10487043583E+04  0.16500000000E+03 0.  0.
   -5000001    1    1    2    0    0  0.53560230408E+02  0.79044242623E+02 -0.65755297190E+03  0.68462953590E+03  0.16500000000E+03 0.  0.
<mgrwt>
<rscale>  0 0.39045127E+03</rscale>
<asrwt>0</asrwt>
<pdfrwt beam="1">  1        2 0.24443697E+00 0.39045127E+03</pdfrwt>
<pdfrwt beam="2">  1       -2 0.31820772E-02 0.39045127E+03</pdfrwt>
<totfact> 0.47539980E+03</totfact>
</mgrwt>
</event>
<event>
 4    1  0.5531008E-005  0.8254747E+03  0.7818608E-02  0.9523858E-01
         -2   -1    0    0    0  501 -0.00000000000E+00  0.00000000000E+00  0.22312683566E+03  0.22312683567E+03  0.25500000000E-02 0. -1.
          2   -1    0    0  501    0  0.00000000000E+00 -0.00000000000E+00 -0.76347667877E+03  0.76347667877E+03  0.25500000000E-02 0.  1.
    5000001    1    1    2    0    0  0.24739885284E+03 -0.25648511173E+03 -0.42199921263E+03  0.57645393605E+03  0.16500000000E+03 0.  0.
   -5000001    1    1    2    0    0 -0.24739885284E+03  0.25648511173E+03 -0.11835063048E+03  0.41014957840E+03  0.16500000000E+03 0.  0.
<mgrwt>
<rscale>  0 0.82547474E+03</rscale>
<asrwt>0</asrwt>
<pdfrwt beam="1">  1        2 0.10906810E+00 0.82547474E+03</pdfrwt>
<pdfrwt beam="2">  1       -2 0.31875263E-01 0.82547474E+03</pdfrwt>
<totfact> 0.37020678E+02</totfact>
</mgrwt>
</event>
<event>
 4    1  0.5531008E-005  0.5588061E+03  0.7818608E-02  0.9994760E-01
         -2   -1    0    0    0  501 -0.00000000000E+00  0.00000000000E+00  0.71096911141E+02  0.71096911187E+02  0.25500000000E-02 0. -1.
          2   -1    0    0  501    0  0.00000000000E+00 -0.00000000000E+00 -0.10980232688E+04  0.10980232688E+04  0.25500000000E-02 0.  1.
    5000001    1    1    2    0    0  0.24256567925E+02 -0.22246981889E+03 -0.57113520537E+03  0.63521777701E+03  0.16500000000E+03 0.  0.
   -5000001    1    1    2    0    0 -0.24256567925E+02  0.22246981889E+03 -0.45579115225E+03  0.53390240295E+03  0.16500000000E+03 0.  0.
<mgrwt>
<rscale>  0 0.55880609E+03</rscale>
<asrwt>0</asrwt>
<pdfrwt beam="1">  1        2 0.15686046E+00 0.55880609E+03</pdfrwt>
<pdfrwt beam="2">  1       -2 0.10156702E-01 0.55880609E+03</pdfrwt>
<totfact> 0.16489148E+03</totfact>
</mgrwt>
</event>
<event>
 4    1  0.5531008E-005  0.4003986E+03  0.7818608E-02  0.1043642E+00
          2   -1    0    0  501    0  0.00000000000E+00  0.00000000000E+00  0.17457979178E+03  0.17457979180E+03  0.25500000000E-02 0.  1.
         -2   -1    0    0    0  501 -0.00000000000E+00 -0.00000000000E+00 -0.22957849563E+03  0.22957849564E+03  0.25500000000E-02 0. -1.
    5000001    1    1    2    0    0  0.62282753820E+02 -0.69758523294E+02  0.37206965622E+02  0.19327377289E+03  0.16500000000E+03 0.  0.
   -5000001    1    1    2    0    0 -0.62282753820E+02  0.69758523294E+02 -0.92205669473E+02  0.21088451455E+03  0.16500000000E+03 0.  0.
<mgrwt>
<rscale>  0 0.40039863E+03</rscale>
<asrwt>0</asrwt>
<pdfrwt beam="1">  1        2 0.24939970E-01 0.40039863E+03</pdfrwt>
<pdfrwt beam="2">  1       -2 0.32796928E-01 0.40039863E+03</pdfrwt>
<totfact> 0.18856410E+03</totfact>
</mgrwt>
</event>
<event>
 4    1  0.5531008E-005  0.5770175E+03  0.7818608E-02  0.9954269E-01
          2   -1    0    0  501    0  0.00000000000E+00  0.00000000000E+00  0.40552501463E+04  0.40552501463E+04  0.25500000000E-02 0.  1.
         -2   -1    0    0    0  501 -0.00000000000E+00 -0.00000000000E+00 -0.20525814338E+02  0.20525814496E+02  0.25500000000E-02 0. -1.
    5000001    1    1    2    0    0  0.17865525005E+03 -0.45027803784E+01  0.31133316604E+04  0.31228187589E+04  0.16500000000E+03 0.  0.
   -5000001    1    1    2    0    0 -0.17865525005E+03  0.45027803784E+01  0.92139267153E+03  0.95295720184E+03  0.16500000000E+03 0.  0.
<mgrwt>
<rscale>  0 0.57701755E+03</rscale>
<asrwt>0</asrwt>
<pdfrwt beam="1">  1        2 0.57932158E+00 0.57701755E+03</pdfrwt>
<pdfrwt beam="2">  1       -2 0.29322585E-02 0.57701755E+03</pdfrwt>
<totfact> 0.27308399E+02</totfact>
</mgrwt>
</event>
<event>
 4    1  0.5531008E-005  0.1467767E+04  0.7818608E-02  0.8906175E-01
         -2   -1    0    0    0  501 -0.00000000000E+00  0.00000000000E+00  0.33552293122E+03  0.33552293123E+03  0.25500000000E-02 0.  1.
          2   -1    0    0  501    0  0.00000000000E+00 -0.00000000000E+00 -0.16052110736E+04  0.16052110736E+04  0.25500000000E-02 0. -1.
    5000001    1    1    2    0    0 -0.44899742340E+03 -0.16922109203E+03  0.66222221978E+02  0.51170777490E+03  0.16500000000E+03 0.  0.
   -5000001    1    1    2    0    0  0.44899742340E+03  0.16922109203E+03 -0.13359103643E+04  0.14290262299E+04  0.16500000000E+03 0.  0.
<mgrwt>
<rscale>  0 0.14677672E+04</rscale>
<asrwt>0</asrwt>
<pdfrwt beam="1">  1        2 0.22931587E+00 0.14677672E+04</pdfrwt>
<pdfrwt beam="2">  1       -2 0.47931848E-01 0.14677672E+04</pdfrwt>
<totfact> 0.51413706E+01</totfact>
</mgrwt>
</event>
<event>
 4    1  0.5531008E-005  0.4512354E+03  0.7818608E-02  0.1027354E+00
          2   -1    0    0  501    0  0.00000000000E+00  0.00000000000E+00  0.42639976803E+03  0.42639976804E+03  0.25500000000E-02 0.  1.
         -2   -1    0    0    0  501 -0.00000000000E+00 -0.00000000000E+00 -0.11937940277E+03  0.11937940280E+03  0.25500000000E-02 0. -1.
    5000001    1    1    2    0    0 -0.60157212441E+02 -0.13767179178E+03  0.11328676079E+03  0.25026246748E+03  0.16500000000E+03 0.  0.
   -5000001    1    1    2    0    0  0.60157212441E+02  0.13767179178E+03  0.19373360447E+03  0.29551670335E+03  0.16500000000E+03 0.  0.
<mgrwt>
<rscale>  0 0.45123541E+03</rscale>
<asrwt>0</asrwt>
<pdfrwt beam="1">  1        2 0.60914251E-01 0.45123541E+03</pdfrwt>
<pdfrwt beam="2">  1       -2 0.17054201E-01 0.45123541E+03</pdfrwt>
<totfact> 0.22454218E+03</totfact>
</mgrwt>
</event>
<event>
 4    1  0.5531008E-005  0.6805306E+03  0.7818608E-02  0.9751119E-01
          2   -1    0    0  501    0  0.00000000000E+00  0.00000000000E+00  0.86707428630E+03  0.86707428630E+03  0.25500000000E-02 0.  1.
         -2   -1    0    0    0  501 -0.00000000000E+00 -0.00000000000E+00 -0.13353005529E+03  0.13353005531E+03  0.25500000000E-02 0. -1.
    5000001    1    1    2    0    0  0.23085592280E+03  0.15587146645E+03  0.52073680895E+03  0.61317387040E+03  0.16500000000E+03 0.  0.
   -5000001    1    1    2    0    0 -0.23085592280E+03 -0.15587146645E+03  0.21280742206E+03  0.38743047122E+03  0.16500000000E+03 0.  0.
<mgrwt>
<rscale>  0 0.68053061E+03</rscale>
<asrwt>0</asrwt>
<pdfrwt beam="1">  1        2 0.12386775E+00 0.68053061E+03</pdfrwt>
<pdfrwt beam="2">  1       -2 0.19075723E-01 0.68053061E+03</pdfrwt>
<totfact> 0.79543055E+02</totfact>
</mgrwt>
</event>
<event>
 4    1  0.5531008E-005  0.4672307E+03  0.7818608E-02  0.1022705E+00
          2   -1    0    0  501    0  0.00000000000E+00  0.00000000000E+00  0.25178485955E+03  0.25178485957E+03  0.25500000000E-02 0.  1.
         -2   -1    0    0    0  501 -0.00000000000E+00 -0.00000000000E+00 -0.21675701954E+03  0.21675701956E+03  0.25500000000E-02 0. -1.
    5000001    1    1    2    0    0  0.14285083613E+03  0.71813221217E+02 -0.24885169082E+02  0.23110121541E+03  0.16500000000E+03 0.  0.
   -5000001    1    1    2    0    0 -0.14285083613E+03 -0.71813221217E+02  0.59913009090E+02  0.23744066371E+03  0.16500000000E+03 0.  0.
<mgrwt>
<rscale>  0 0.46723072E+03</rscale>
<asrwt>0</asrwt>
<pdfrwt beam="1">  1        2 0.35969266E-01 0.46723072E+03</pdfrwt>
<pdfrwt beam="2">  1       -2 0.30965289E-01 0.46723072E+03</pdfrwt>
<totfact> 0.13964805E+03</totfact>
</mgrwt>
</event>
<event>
 4    1  0.5531008E-005  0.4772357E+03  0.7818608E-02  0.1019898E+00
         -2   -1    0    0    0  501 -0.00000000000E+00  0.00000000000E+00  0.22197189356E+03  0.22197189358E+03  0.25500000000E-02 0. -1.
          2   -1    0    0  501    0  0.00000000000E+00 -0.00000000000E+00 -0.25651208973E+03  0.25651208974E+03  0.25500000000E-02 0.  1.
    5000001    1    1    2    0    0  0.16929086145E+03  0.22912243513E+02  0.57924082071E+01  0.23757718465E+03  0.16500000000E+03 0.  0.
   -5000001    1    1    2    0    0 -0.16929086145E+03 -0.22912243513E+02 -0.40332604372E+02  0.24090679867E+03  0.16500000000E+03 0.  0.
<mgrwt>
<rscale>  0 0.47723568E+03</rscale>
<asrwt>0</asrwt>
<pdfrwt beam="1">  1        2 0.36644584E-01 0.47723568E+03</pdfrwt>
<pdfrwt beam="2">  1       -2 0.31710271E-01 0.47723568E+03</pdfrwt>
<totfact> 0.13093699E+03</totfact>
</mgrwt>
</event>
<event>
 4    1  0.5531008E-005  0.5219795E+03  0.7818608E-02  0.1008196E+00
         -2   -1    0    0    0  501 -0.00000000000E+00  0.00000000000E+00  0.36794710679E+03  0.36794710680E+03  0.25500000000E-02 0. -1.
          2   -1    0    0  501    0  0.00000000000E+00 -0.00000000000E+00 -0.18512344657E+03  0.18512344659E+03  0.25500000000E-02 0.  1.
    5000001    1    1    2    0    0  0.50278106826E+02 -0.19536810142E+03  0.76651778900E+02  0.27165617660E+03  0.16500000000E+03 0.  0.
   -5000001    1    1    2    0    0 -0.50278106826E+02  0.19536810142E+03  0.10617188132E+03  0.28141437678E+03  0.16500000000E+03 0.  0.
<mgrwt>
<rscale>  0 0.52197945E+03</rscale>
<asrwt>0</asrwt>
<pdfrwt beam="1">  1        2 0.26446207E-01 0.52197945E+03</pdfrwt>
<pdfrwt beam="2">  1       -2 0.52563872E-01 0.52197945E+03</pdfrwt>
<totfact> 0.70554167E+02</totfact>
</mgrwt>
</event>
<event>
 4    1  0.5531008E-005  0.3987564E+03  0.7818608E-02  0.1044211E+00
         -2   -1    0    0    0  501 -0.00000000000E+00  0.00000000000E+00  0.71587589916E+02  0.71587589961E+02  0.25500000000E-02 0. -1.
          2   -1    0    0  501    0  0.00000000000E+00 -0.00000000000E+00 -0.55528719012E+03  0.55528719013E+03  0.25500000000E-02 0.  1.
    5000001    1    1    2    0    0 -0.13945874980E+02  0.89021926040E+02 -0.34621566364E+03  0.39396659312E+03  0.16500000000E+03 0.  0.
   -5000001    1    1    2    0    0  0.13945874980E+02 -0.89021926040E+02 -0.13748393657E+03  0.23290818698E+03  0.16500000000E+03 0.  0.
<mgrwt>
<rscale>  0 0.39875643E+03</rscale>
<asrwt>0</asrwt>
<pdfrwt beam="1">  1        2 0.79326739E-01 0.39875643E+03</pdfrwt>
<pdfrwt beam="2">  1       -2 0.10226799E-01 0.39875643E+03</pdfrwt>
<totfact> 0.38748329E+03</totfact>
</mgrwt>
</event>
<event>
 4    1  0.5531008E-005  0.4523639E+03  0.7818608E-02  0.1027019E+00
         -2   -1    0    0    0  501 -0.00000000000E+00  0.00000000000E+00  0.13877378761E+02  0.13877378995E+02  0.25500000000E-02 0. -1.
          2   -1    0    0  501    0  0.00000000000E+00 -0.00000000000E+00 -0.36864513269E+04  0.36864513269E+04  0.25500000000E-02 0.  1.
    5000001    1    1    2    0    0  0.40328366768E+02 -0.14247688459E+03 -0.22027685949E+04  0.22138971346E+04  0.16500000000E+03 0.  0.
   -5000001    1    1    2    0    0 -0.40328366768E+02  0.14247688459E+03 -0.14698053532E+04  0.14864315713E+04  0.16500000000E+03 0.  0.
<mgrwt>
<rscale>  0 0.45236393E+03</rscale>
<asrwt>0</asrwt>
<pdfrwt beam="1">  1        2 0.52663528E+00 0.45236393E+03</pdfrwt>
<pdfrwt beam="2">  1       -2 0.19824851E-02 0.45236393E+03</pdfrwt>
<totfact> 0.86503463E+02</totfact>
</mgrwt>
</event>
<event>
 4    1  0.5531008E-005  0.9350121E+03  0.7818608E-02  0.9382843E-01
          2   -1    0    0  501    0  0.00000000000E+00  0.00000000000E+00  0.50489309355E+03  0.50489309356E+03  0.25500000000E-02 0.  1.
         -2   -1    0    0    0  501 -0.00000000000E+00 -0.00000000000E+00 -0.43288746582E+03  0.43288746583E+03  0.25500000000E-02 0. -1.
    5000001    1    1    2    0    0 -0.29510894966E+03  0.31110941439E+03 -0.50615691334E+02  0.46223944888E+03  0.16500000000E+03 0.  0.
   -5000001    1    1    2    0    0  0.29510894966E+03 -0.31110941439E+03  0.12262131906E+03  0.47554111051E+03  0.16500000000E+03 0.  0.
<mgrwt>
<rscale>  0 0.93501207E+03</rscale>
<asrwt>0</asrwt>
<pdfrwt beam="1">  1        2 0.72127585E-01 0.93501207E+03</pdfrwt>
<pdfrwt beam="2">  1       -2 0.61841067E-01 0.93501207E+03</pdfrwt>
<totfact> 0.16161306E+02</totfact>
</mgrwt>
</event>
<event>
 4    1  0.5531008E-005  0.3882276E+03  0.7818608E-02  0.1047934E+00
         -2   -1    0    0    0  501 -0.00000000000E+00  0.00000000000E+00  0.31297270560E+02  0.31297270664E+02  0.25500000000E-02 0. -1.
          2   -1    0    0  501    0  0.00000000000E+00 -0.00000000000E+00 -0.12039445010E+04  0.12039445010E+04  0.25500000000E-02 0.  1.
    5000001    1    1    2    0    0 -0.61882112093E+02 -0.52549688973E+02 -0.78411235206E+03  0.80538689229E+03  0.16500000000E+03 0.  0.
   -5000001    1    1    2    0    0  0.61882112093E+02  0.52549688973E+02 -0.38853487833E+03  0.42985487933E+03  0.16500000000E+03 0.  0.
<mgrwt>
<rscale>  0 0.38822765E+03</rscale>
<asrwt>0</asrwt>
<pdfrwt beam="1">  1        2 0.17199204E+00 0.38822765E+03</pdfrwt>
<pdfrwt beam="2">  1       -2 0.44710394E-02 0.38822765E+03</pdfrwt>
<totfact> 0.52046138E+03</totfact>
</mgrwt>
</event>
<event>
 4    1  0.5531008E-005  0.4976951E+03  0.7818608E-02  0.1014382E+00
         -2   -1    0    0    0  501 -0.00000000000E+00  0.00000000000E+00  0.70849406352E+02  0.70849406397E+02  0.25500000000E-02 0. -1.
          2   -1    0    0  501    0  0.00000000000E+00 -0.00000000000E+00 -0.87403853705E+03  0.87403853706E+03  0.25500000000E-02 0.  1.
    5000001    1    1    2    0    0  0.16008244882E+03  0.94667161356E+02 -0.42167320159E+03  0.48951154307E+03  0.16500000000E+03 0.  0.
   -5000001    1    1    2    0    0 -0.16008244882E+03 -0.94667161356E+02 -0.38151592911E+03  0.45537640039E+03  0.16500000000E+03 0.  0.
<mgrwt>
<rscale>  0 0.49769513E+03</rscale>
<asrwt>0</asrwt>
<pdfrwt beam="1">  1        2 0.12486264E+00 0.49769513E+03</pdfrwt>
<pdfrwt beam="2">  1       -2 0.10121344E-01 0.49769513E+03</pdfrwt>
<totfact> 0.22757569E+03</totfact>
</mgrwt>
</event>
<event>
 4    1  0.5531008E-005  0.1071563E+04  0.7818608E-02  0.9233361E-01
          2   -1    0    0  501    0  0.00000000000E+00  0.00000000000E+00  0.19063279790E+04  0.19063279790E+04  0.25500000000E-02 0.  1.
         -2   -1    0    0    0  501 -0.00000000000E+00 -0.00000000000E+00 -0.15058353293E+03  0.15058353295E+03  0.25500000000E-02 0. -1.
    5000001    1    1    2    0    0  0.32634869617E+03  0.36500288728E+03  0.60568912903E+03  0.79612492753E+03  0.16500000000E+03 0.  0.
   -5000001    1    1    2    0    0 -0.32634869617E+03 -0.36500288728E+03  0.11500553171E+04  0.12607865844E+04  0.16500000000E+03 0.  0.
<mgrwt>
<rscale>  0 0.10715626E+04</rscale>
<asrwt>0</asrwt>
<pdfrwt beam="1">  1        2 0.27233259E+00 0.10715626E+04</pdfrwt>
<pdfrwt beam="2">  1       -2 0.21511932E-01 0.10715626E+04</pdfrwt>
<totfact> 0.16759879E+02</totfact>
</mgrwt>
</event>
<event>
 4    1  0.5531008E-005  0.3598056E+03  0.7818608E-02  0.1058661E+00
          2   -1    0    0  501    0  0.00000000000E+00  0.00000000000E+00  0.47317177818E+03  0.47317177819E+03  0.25500000000E-02 0.  1.
         -2   -1    0    0    0  501 -0.00000000000E+00 -0.00000000000E+00 -0.68400133566E+02  0.68400133613E+02  0.25500000000E-02 0. -1.
    5000001    1    1    2    0    0 -0.23270108165E+02 -0.51337371859E+02  0.13569789878E+03  0.22094330363E+03  0.16500000000E+03 0.  0.
   -5000001    1    1    2    0    0  0.23270108165E+02  0.51337371859E+02  0.26907374584E+03  0.32062860818E+03  0.16500000000E+03 0.  0.
<mgrwt>
<rscale>  0 0.35980557E+03</rscale>
<asrwt>0</asrwt>
<pdfrwt beam="1">  1        2 0.67595968E-01 0.35980557E+03</pdfrwt>
<pdfrwt beam="2">  1       -2 0.97714477E-02 0.35980557E+03</pdfrwt>
<totfact> 0.49791413E+03</totfact>
</mgrwt>
</event>
<event>
 4    1  0.5531008E-005  0.3728438E+03  0.7818608E-02  0.1053611E+00
         -2   -1    0    0    0  501 -0.00000000000E+00  0.00000000000E+00  0.12561903562E+02  0.12561903821E+02  0.25500000000E-02 0. -1.
          2   -1    0    0  501    0  0.00000000000E+00 -0.00000000000E+00 -0.27665497036E+04  0.27665497036E+04  0.25500000000E-02 0.  1.
    5000001    1    1    2    0    0  0.35945521291E+02  0.56079829115E+02 -0.17914091960E+04  0.18002246902E+04  0.16500000000E+03 0.  0.
   -5000001    1    1    2    0    0 -0.35945521291E+02 -0.56079829115E+02 -0.96257860404E+03  0.97888691721E+03  0.16500000000E+03 0.  0.
<mgrwt>
<rscale>  0 0.37284383E+03</rscale>
<asrwt>0</asrwt>
<pdfrwt beam="1">  1        2 0.39522100E+00 0.37284383E+03</pdfrwt>
<pdfrwt beam="2">  1       -2 0.17945594E-02 0.37284383E+03</pdfrwt>
<totfact> 0.33126561E+03</totfact>
</mgrwt>
</event>
<event>
 4    1  0.5531008E-005  0.5277886E+03  0.7818608E-02  0.1006770E+00
         -2   -1    0    0    0  501 -0.00000000000E+00  0.00000000000E+00  0.87444399502E+03  0.87444399503E+03  0.25500000000E-02 0. -1.
          2   -1    0    0  501    0  0.00000000000E+00 -0.00000000000E+00 -0.79639397040E+02  0.79639397081E+02  0.25500000000E-02 0.  1.
    5000001    1    1    2    0    0 -0.73259676390E+02  0.16419274441E+03  0.21583005875E+03  0.32578190828E+03  0.16500000000E+03 0.  0.
   -5000001    1    1    2    0    0  0.73259676390E+02 -0.16419274441E+03  0.57897453923E+03  0.62830148383E+03  0.16500000000E+03 0.  0.
<mgrwt>
<rscale>  0 0.52778857E+03</rscale>
<asrwt>0</asrwt>
<pdfrwt beam="1">  1        2 0.11377057E-01 0.52778857E+03</pdfrwt>
<pdfrwt beam="2">  1       -2 0.12492056E+00 0.52778857E+03</pdfrwt>
<totfact> 0.27480621E+02</totfact>
</mgrwt>
</event>
<event>
 4    1  0.5531008E-005  0.6040994E+03  0.7818608E-02  0.9896937E-01
          2   -1    0    0  501    0  0.00000000000E+00  0.00000000000E+00  0.64948790677E+03  0.64948790677E+03  0.25500000000E-02 0.  1.
         -2   -1    0    0    0  501 -0.00000000000E+00 -0.00000000000E+00 -0.14047070755E+03  0.14047070758E+03  0.25500000000E-02 0. -1.
    5000001    1    1    2    0    0 -0.20430804674E+03 -0.14878752083E+03  0.23962640893E+03  0.38538982884E+03  0.16500000000E+03 0.  0.
   -5000001    1    1    2    0    0  0.20430804674E+03  0.14878752083E+03  0.26939079028E+03  0.40456878551E+03  0.16500000000E+03 0.  0.
<mgrwt>
<rscale>  0 0.60409942E+03</rscale>
<asrwt>0</asrwt>
<pdfrwt beam="1">  1        2 0.92783985E-01 0.60409942E+03</pdfrwt>
<pdfrwt beam="2">  1       -2 0.20067244E-01 0.60409942E+03</pdfrwt>
<totfact> 0.10485964E+03</totfact>
</mgrwt>
</event>
<event>
 4    1  0.5531008E-005  0.5151587E+03  0.7818608E-02  0.1009896E+00
         -2   -1    0    0    0  501 -0.00000000000E+00  0.00000000000E+00  0.44668998650E+03  0.44668998651E+03  0.25500000000E-02 0. -1.
          2   -1    0    0  501    0  0.00000000000E+00 -0.00000000000E+00 -0.14853056085E+03  0.14853056087E+03  0.25500000000E-02 0.  1.
    5000001    1    1    2    0    0  0.13319842901E+02  0.18496181603E+03  0.69584149582E+02  0.25778914926E+03  0.16500000000E+03 0.  0.
   -5000001    1    1    2    0    0 -0.13319842901E+02 -0.18496181603E+03  0.22857527607E+03  0.33743139812E+03  0.16500000000E+03 0.  0.
<mgrwt>
<rscale>  0 0.51515867E+03</rscale>
<asrwt>0</asrwt>
<pdfrwt beam="1">  1        2 0.21218651E-01 0.51515867E+03</pdfrwt>
<pdfrwt beam="2">  1       -2 0.63812856E-01 0.51515867E+03</pdfrwt>
<totfact> 0.60638113E+02</totfact>
</mgrwt>
</event>
<event>
 4    1  0.5531008E-005  0.2413435E+04  0.7818608E-02  0.8434491E-01
          2   -1    0    0  501    0  0.00000000000E+00  0.00000000000E+00  0.13177848410E+04  0.13177848410E+04  0.25500000000E-02 0.  1.
         -2   -1    0    0    0  501 -0.00000000000E+00 -0.00000000000E+00 -0.11050110743E+04  0.11050110743E+04  0.25500000000E-02 0. -1.
    5000001    1    1    2    0    0 -0.80735190749E+03 -0.85499547435E+03 -0.10917251255E+03  0.11924671908E+04  0.16500000000E+03 0.  0.
   -5000001    1    1    2    0    0  0.80735190749E+03  0.85499547435E+03  0.32194627926E+03  0.12303287245E+04  0.16500000000E+03 0.  0.
<mgrwt>
<rscale>  0 0.24134348E+04</rscale>
<asrwt>0</asrwt>
<pdfrwt beam="1">  1        2 0.18825498E+00 0.24134348E+04</pdfrwt>
<pdfrwt beam="2">  1       -2 0.15785872E+00 0.24134348E+04</pdfrwt>
<totfact> 0.43317465E+00</totfact>
</mgrwt>
</event>
<event>
 4    1  0.5531008E-005  0.4778897E+03  0.7818608E-02  0.1019717E+00
         -2   -1    0    0    0  501 -0.00000000000E+00  0.00000000000E+00  0.55079817696E+02  0.55079817755E+02  0.25500000000E-02 0. -1.
          2   -1    0    0  501    0  0.00000000000E+00 -0.00000000000E+00 -0.10365798820E+04  0.10365798820E+04  0.25500000000E-02 0.  1.
    5000001    1    1    2    0    0  0.16155230287E+03  0.39764995778E+02 -0.59763220993E+03  0.64192652212E+03  0.16500000000E+03 0.  0.
   -5000001    1    1    2    0    0 -0.16155230287E+03 -0.39764995778E+02 -0.38386785439E+03  0.44973317766E+03  0.16500000000E+03 0.  0.
<mgrwt>
<rscale>  0 0.47788966E+03</rscale>
<asrwt>0</asrwt>
<pdfrwt beam="1">  1        2 0.14808283E+00 0.47788966E+03</pdfrwt>
<pdfrwt beam="2">  1       -2 0.78685460E-02 0.47788966E+03</pdfrwt>
<totfact> 0.26982406E+03</totfact>
</mgrwt>
</event>
<event>
 4    1  0.5531008E-005  0.4594827E+03  0.7818608E-02  0.1024931E+00
          2   -1    0    0  501    0  0.00000000000E+00  0.00000000000E+00  0.48891881705E+03  0.48891881706E+03  0.25500000000E-02 0.  1.
         -2   -1    0    0    0  501 -0.00000000000E+00 -0.00000000000E+00 -0.10795468879E+03  0.10795468882E+03  0.25500000000E-02 0. -1.
    5000001    1    1    2    0    0 -0.10614697857E+03  0.88648693975E+01  0.35630720397E+02  0.19960038879E+03  0.16500000000E+03 0.  0.
   -5000001    1    1    2    0    0  0.10614697857E+03 -0.88648693975E+01  0.34533340787E+03  0.39727311709E+03  0.16500000000E+03 0.  0.
<mgrwt>
<rscale>  0 0.45948266E+03</rscale>
<asrwt>0</asrwt>
<pdfrwt beam="1">  1        2 0.69845546E-01 0.45948266E+03</pdfrwt>
<pdfrwt beam="2">  1       -2 0.15422098E-01 0.45948266E+03</pdfrwt>
<totfact> 0.22848647E+03</totfact>
</mgrwt>
</event>
<event>
 4    1  0.5531008E-005  0.6685085E+03  0.7818608E-02  0.9772656E-01
          2   -1    0    0  501    0  0.00000000000E+00  0.00000000000E+00  0.33291874533E+03  0.33291874534E+03  0.25500000000E-02 0.  1.
         -2   -1    0    0    0  501 -0.00000000000E+00 -0.00000000000E+00 -0.33559513637E+03  0.33559513638E+03  0.25500000000E-02 0. -1.
    5000001    1    1    2    0    0  0.22525385568E+02  0.27501303491E+03 -0.92779342687E+02  0.33462302490E+03  0.16500000000E+03 0.  0.
   -5000001    1    1    2    0    0 -0.22525385568E+02 -0.27501303491E+03  0.90102951645E+02  0.33389085681E+03  0.16500000000E+03 0.  0.
<mgrwt>
<rscale>  0 0.66850852E+03</rscale>
<asrwt>0</asrwt>
<pdfrwt beam="1">  1        2 0.47559821E-01 0.66850852E+03</pdfrwt>
<pdfrwt beam="2">  1       -2 0.47942162E-01 0.66850852E+03</pdfrwt>
<totfact> 0.44122455E+02</totfact>
</mgrwt>
</event>
<event>
 4    1  0.5531008E-005  0.4095299E+03  0.7818608E-02  0.1040529E+00
          2   -1    0    0  501    0  0.00000000000E+00  0.00000000000E+00  0.12339765585E+04  0.12339765585E+04  0.25500000000E-02 0.  1.
         -2   -1    0    0    0  501 -0.00000000000E+00 -0.00000000000E+00 -0.33978510221E+02  0.33978510317E+02  0.25500000000E-02 0. -1.
    5000001    1    1    2    0    0 -0.80724840413E+02 -0.54769940383E+02  0.82299382910E+03  0.84502076245E+03  0.16500000000E+03 0.  0.
   -5000001    1    1    2    0    0  0.80724840413E+02  0.54769940383E+02  0.37700421919E+03  0.42293430639E+03  0.16500000000E+03 0.  0.
<mgrwt>
<rscale>  0 0.40952990E+03</rscale>
<asrwt>0</asrwt>
<pdfrwt beam="1">  1        2 0.17628235E+00 0.40952990E+03</pdfrwt>
<pdfrwt beam="2">  1       -2 0.48540733E-02 0.40952990E+03</pdfrwt>
<totfact> 0.44209469E+03</totfact>
</mgrwt>
</event>
<event>
 4    1  0.5531008E-005  0.6414947E+03  0.7818608E-02  0.9822871E-01
          2   -1    0    0  501    0  0.00000000000E+00  0.00000000000E+00  0.87749198629E+02  0.87749198667E+02  0.25500000000E-02 0.  1.
         -2   -1    0    0    0  501 -0.00000000000E+00 -0.00000000000E+00 -0.11724193666E+04  0.11724193666E+04  0.25500000000E-02 0. -1.
    5000001    1    1    2    0    0 -0.15435143229E+03  0.22435753294E+03 -0.46642604404E+03  0.56474677670E+03  0.16500000000E+03 0.  0.
   -5000001    1    1    2    0    0  0.15435143229E+03 -0.22435753294E+03 -0.61824412395E+03  0.69542178858E+03  0.16500000000E+03 0.  0.
<mgrwt>
<rscale>  0 0.64149469E+03</rscale>
<asrwt>0</asrwt>
<pdfrwt beam="1">  1        2 0.12535601E-01 0.64149469E+03</pdfrwt>
<pdfrwt beam="2">  1       -2 0.16748847E+00 0.64149469E+03</pdfrwt>
<totfact> 0.11304956E+02</totfact>
</mgrwt>
</event>
<event>
 4    1  0.5531008E-005  0.1105388E+04  0.7818608E-02  0.9199956E-01
          2   -1    0    0  501    0  0.00000000000E+00  0.00000000000E+00  0.19976705333E+04  0.19976705333E+04  0.25500000000E-02 0.  1.
         -2   -1    0    0    0  501 -0.00000000000E+00 -0.00000000000E+00 -0.15291344358E+03  0.15291344360E+03  0.25500000000E-02 0. -1.
    5000001    1    1    2    0    0  0.48267920420E+03 -0.98054117139E+02  0.12897308065E+04  0.13904043935E+04  0.16500000000E+03 0.  0.
   -5000001    1    1    2    0    0 -0.48267920420E+03  0.98054117139E+02  0.55502628324E+03  0.76017958348E+03  0.16500000000E+03 0.  0.
<mgrwt>
<rscale>  0 0.11053880E+04</rscale>
<asrwt>0</asrwt>
<pdfrwt beam="1">  1        2 0.28538150E+00 0.11053880E+04</pdfrwt>
<pdfrwt beam="2">  1       -2 0.21844778E-01 0.11053880E+04</pdfrwt>
<totfact> 0.14611403E+02</totfact>
</mgrwt>
</event>
<event>
 4    1  0.5531008E-005  0.6569504E+03  0.7818608E-02  0.9793824E-01
          2   -1    0    0  501    0  0.00000000000E+00  0.00000000000E+00  0.12813078977E+03  0.12813078980E+03  0.25500000000E-02 0.  1.
         -2   -1    0    0    0  501 -0.00000000000E+00 -0.00000000000E+00 -0.84207660920E+03  0.84207660921E+03  0.25500000000E-02 0. -1.
    5000001    1    1    2    0    0  0.46321460344E+01  0.22346422018E+03 -0.98154744240E+02  0.29464736261E+03  0.16500000000E+03 0.  0.
   -5000001    1    1    2    0    0 -0.46321460344E+01 -0.22346422018E+03 -0.61579107519E+03  0.67556003639E+03  0.16500000000E+03 0.  0.
<mgrwt>
<rscale>  0 0.65695035E+03</rscale>
<asrwt>0</asrwt>
<pdfrwt beam="1">  1        2 0.18304399E-01 0.65695035E+03</pdfrwt>
<pdfrwt beam="2">  1       -2 0.12029665E+00 0.65695035E+03</pdfrwt>
<totfact> 0.16855213E+02</totfact>
</mgrwt>
</event>
<event>
 4    1  0.5531008E-005  0.6386968E+03  0.7818608E-02  0.9828223E-01
          2   -1    0    0  501    0  0.00000000000E+00  0.00000000000E+00  0.12804635513E+04  0.12804635513E+04  0.25500000000E-02 0.  1.
         -2   -1    0    0    0  501 -0.00000000000E+00 -0.00000000000E+00 -0.79645694449E+02  0.79645694490E+02  0.25500000000E-02 0. -1.
    5000001    1    1    2    0    0  0.23693797034E+03  0.10629975267E+03  0.41822505142E+03  0.51920750461E+03  0.16500000000E+03 0.  0.
   -5000001    1    1    2    0    0 -0.23693797034E+03 -0.10629975267E+03  0.78259280539E+03  0.84090174114E+03  0.16500000000E+03 0.  0.
<mgrwt>
<rscale>  0 0.63869683E+03</rscale>
<asrwt>0</asrwt>
<pdfrwt beam="1">  1        2 0.18292336E+00 0.63869683E+03</pdfrwt>
<pdfrwt beam="2">  1       -2 0.11377957E-01 0.63869683E+03</pdfrwt>
<totfact> 0.10794041E+03</totfact>
</mgrwt>
</event>
<event>
 4    1  0.5531008E-005  0.4959784E+03  0.7818608E-02  0.1014834E+00
         -2   -1    0    0    0  501 -0.00000000000E+00  0.00000000000E+00  0.53764574542E+02  0.53764574603E+02  0.25500000000E-02 0. -1.
          2   -1    0    0  501    0  0.00000000000E+00 -0.00000000000E+00 -0.11438506398E+04  0.11438506398E+04  0.25500000000E-02 0.  1.
    5000001    1    1    2    0    0  0.14378367111E+03 -0.28622430069E+02 -0.81802320631E+03  0.84727796716E+03  0.16500000000E+03 0.  0.
   -5000001    1    1    2    0    0 -0.14378367111E+03  0.28622430069E+02 -0.27206285892E+03  0.35033724721E+03  0.16500000000E+03 0.  0.
<mgrwt>
<rscale>  0 0.49597840E+03</rscale>
<asrwt>0</asrwt>
<pdfrwt beam="1">  1        2 0.16340722E+00 0.49597840E+03</pdfrwt>
<pdfrwt beam="2">  1       -2 0.76806542E-02 0.49597840E+03</pdfrwt>
<totfact> 0.24293349E+03</totfact>
</mgrwt>
</event>
<event>
 4    1  0.5531008E-005  0.4361788E+03  0.7818608E-02  0.1031926E+00
          2   -1    0    0  501    0  0.00000000000E+00  0.00000000000E+00  0.38106656948E+03  0.38106656948E+03  0.25500000000E-02 0.  1.
         -2   -1    0    0    0  501 -0.00000000000E+00 -0.00000000000E+00 -0.12481545269E+03  0.12481545271E+03  0.25500000000E-02 0. -1.
    5000001    1    1    2    0    0  0.10610149622E+03 -0.69224662816E+02  0.52174636948E+02  0.21446858554E+03  0.16500000000E+03 0.  0.
   -5000001    1    1    2    0    0 -0.10610149622E+03  0.69224662816E+02  0.20407647984E+03  0.29141343666E+03  0.16500000000E+03 0.  0.
<mgrwt>
<rscale>  0 0.43617885E+03</rscale>
<asrwt>0</asrwt>
<pdfrwt beam="1">  1        2 0.54438082E-01 0.43617885E+03</pdfrwt>
<pdfrwt beam="2">  1       -2 0.17830779E-01 0.43617885E+03</pdfrwt>
<totfact> 0.23552429E+03</totfact>
</mgrwt>
</event>
<event>
 4    1  0.5531008E-005  0.8957672E+03  0.7818608E-02  0.9430888E-01
          2   -1    0    0  501    0  0.00000000000E+00  0.00000000000E+00  0.17123559254E+04  0.17123559254E+04  0.25500000000E-02 0.  1.
         -2   -1    0    0    0  501 -0.00000000000E+00 -0.00000000000E+00 -0.11714838295E+03  0.11714838297E+03  0.25500000000E-02 0. -1.
    5000001    1    1    2    0    0  0.28425010111E+03 -0.18186957395E+02  0.14179178980E+04  0.14556253126E+04  0.16500000000E+03 0.  0.
   -5000001    1    1    2    0    0 -0.28425010111E+03  0.18186957395E+02  0.17728964446E+03  0.37387899571E+03  0.16500000000E+03 0.  0.
<mgrwt>
<rscale>  0 0.89576722E+03</rscale>
<asrwt>0</asrwt>
<pdfrwt beam="1">  1        2 0.24462228E+00 0.89576722E+03</pdfrwt>
<pdfrwt beam="2">  1       -2 0.16735483E-01 0.89576722E+03</pdfrwt>
<totfact> 0.33023600E+02</totfact>
</mgrwt>
</event>
<event>
 4    1  0.5531008E-005  0.9556867E+03  0.7818608E-02  0.9358528E-01
         -2   -1    0    0    0  501 -0.00000000000E+00  0.00000000000E+00  0.10561608295E+03  0.10561608298E+03  0.25500000000E-02 0. -1.
          2   -1    0    0  501    0  0.00000000000E+00 -0.00000000000E+00 -0.21619270328E+04  0.21619270328E+04  0.25500000000E-02 0.  1.
    5000001    1    1    2    0    0 -0.37419779003E+03  0.60775818361E+02 -0.45974234753E+03  0.61830875157E+03  0.16500000000E+03 0.  0.
   -5000001    1    1    2    0    0  0.37419779003E+03 -0.60775818361E+02 -0.15965686023E+04  0.16492343642E+04  0.16500000000E+03 0.  0.
<mgrwt>
<rscale>  0 0.95568670E+03</rscale>
<asrwt>0</asrwt>
<pdfrwt beam="1">  1        2 0.30884669E+00 0.95568670E+03</pdfrwt>
<pdfrwt beam="2">  1       -2 0.15088013E-01 0.95568670E+03</pdfrwt>
<totfact> 0.23141083E+02</totfact>
</mgrwt>
</event>
<event>
 4    1  0.5531008E-005  0.4283151E+03  0.7818608E-02  0.1034394E+00
         -2   -1    0    0    0  501 -0.00000000000E+00  0.00000000000E+00  0.31327310314E+02  0.31327310418E+02  0.25500000000E-02 0. -1.
          2   -1    0    0  501    0  0.00000000000E+00 -0.00000000000E+00 -0.14640088301E+04  0.14640088301E+04  0.25500000000E-02 0.  1.
    5000001    1    1    2    0    0 -0.95008074599E+02  0.11395745833E+02 -0.10562999771E+04  0.10733829880E+04  0.16500000000E+03 0.  0.
   -5000001    1    1    2    0    0  0.95008074599E+02 -0.11395745833E+02 -0.37638154266E+03  0.42195315252E+03  0.16500000000E+03 0.  0.
<mgrwt>
<rscale>  0 0.42831511E+03</rscale>
<asrwt>0</asrwt>
<pdfrwt beam="1">  1        2 0.20914408E+00 0.42831511E+03</pdfrwt>
<pdfrwt beam="2">  1       -2 0.44753310E-02 0.42831511E+03</pdfrwt>
<totfact> 0.37812969E+03</totfact>
</mgrwt>
</event>
<event>
 4    1  0.5531008E-005  0.4413580E+03  0.7818608E-02  0.1030331E+00
          2   -1    0    0  501    0  0.00000000000E+00  0.00000000000E+00  0.20442038118E+03  0.20442038119E+03  0.25500000000E-02 0.  1.
         -2   -1    0    0    0  501 -0.00000000000E+00 -0.00000000000E+00 -0.23823071995E+03  0.23823071996E+03  0.25500000000E-02 0. -1.
    5000001    1    1    2    0    0  0.28596950230E+02 -0.14267932654E+03  0.43823492076E+00  0.22000083598E+03  0.16500000000E+03 0.  0.
   -5000001    1    1    2    0    0 -0.28596950230E+02  0.14267932654E+03 -0.34248573694E+02  0.22265026518E+03  0.16500000000E+03 0.  0.
<mgrwt>
<rscale>  0 0.44135797E+03</rscale>
<asrwt>0</asrwt>
<pdfrwt beam="1">  1        2 0.29202912E-01 0.44135797E+03</pdfrwt>
<pdfrwt beam="2">  1       -2 0.34032960E-01 0.44135797E+03</pdfrwt>
<totfact> 0.14754200E+03</totfact>
</mgrwt>
</event>
<event>
 4    1  0.5531008E-005  0.4794808E+03  0.7818608E-02  0.1019278E+00
          2   -1    0    0  501    0  0.00000000000E+00  0.00000000000E+00  0.86810696478E+03  0.86810696478E+03  0.25500000000E-02 0.  1.
         -2   -1    0    0    0  501 -0.00000000000E+00 -0.00000000000E+00 -0.66207803185E+02  0.66207803234E+02  0.25500000000E-02 0. -1.
    5000001    1    1    2    0    0  0.15648868615E+03  0.75489740320E+02  0.38547751225E+03  0.45387809182E+03  0.16500000000E+03 0.  0.
   -5000001    1    1    2    0    0 -0.15648868615E+03 -0.75489740320E+02  0.41642164935E+03  0.48043667619E+03  0.16500000000E+03 0.  0.
<mgrwt>
<rscale>  0 0.47948078E+03</rscale>
<asrwt>0</asrwt>
<pdfrwt beam="1">  1        2 0.12401527E+00 0.47948078E+03</pdfrwt>
<pdfrwt beam="2">  1       -2 0.94582581E-02 0.47948078E+03</pdfrwt>
<totfact> 0.25606358E+03</totfact>
</mgrwt>
</event>
<event>
 4    1  0.5531008E-005  0.4782123E+03  0.7818608E-02  0.1019628E+00
         -2   -1    0    0    0  501 -0.00000000000E+00  0.00000000000E+00  0.38394682703E+02  0.38394682788E+02  0.25500000000E-02 0.  1.
          2   -1    0    0  501    0  0.00000000000E+00 -0.00000000000E+00 -0.14890537036E+04  0.14890537036E+04  0.25500000000E-02 0. -1.
    5000001    1    1    2    0    0  0.96159838495E+02 -0.10332357825E+03 -0.10451248751E+04  0.10674424954E+04  0.16500000000E+03 0.  0.
   -5000001    1    1    2    0    0 -0.96159838495E+02  0.10332357825E+03 -0.40553414573E+03  0.46000589096E+03  0.16500000000E+03 0.  0.
<mgrwt>
<rscale>  0 0.47821227E+03</rscale>
<asrwt>0</asrwt>
<pdfrwt beam="1">  1        2 0.21272192E+00 0.47821227E+03</pdfrwt>
<pdfrwt beam="2">  1       -2 0.54849556E-02 0.47821227E+03</pdfrwt>
<totfact> 0.26818129E+03</totfact>
</mgrwt>
</event>
<event>
 4    1  0.5531008E-005  0.4735624E+03  0.7818608E-02  0.1020920E+00
          2   -1    0    0  501    0  0.00000000000E+00  0.00000000000E+00  0.16414557199E+04  0.16414557199E+04  0.25500000000E-02 0. -1.
         -2   -1    0    0    0  501 -0.00000000000E+00 -0.00000000000E+00 -0.34155857254E+02  0.34155857350E+02  0.25500000000E-02 0.  1.
    5000001    1    1    2    0    0  0.12202669091E+03  0.11210344379E+03  0.93521768732E+03  0.96400976036E+03  0.16500000000E+03 0.  0.
   -5000001    1    1    2    0    0 -0.12202669091E+03 -0.11210344379E+03  0.67208217531E+03  0.71160181687E+03  0.16500000000E+03 0.  0.
<mgrwt>
<rscale>  0 0.47356236E+03</rscale>
<asrwt>0</asrwt>
<pdfrwt beam="1">  1        2 0.23449378E+00 0.47356236E+03</pdfrwt>
<pdfrwt beam="2">  1       -2 0.48794059E-02 0.47356236E+03</pdfrwt>
<totfact> 0.26850924E+03</totfact>
</mgrwt>
</event>
<event>
 4    1  0.5531008E-005  0.6839590E+03  0.7818608E-02  0.9745065E-01
         -2   -1    0    0    0  501 -0.00000000000E+00  0.00000000000E+00  0.62300346433E+03  0.62300346434E+03  0.25500000000E-02 0. -1.
          2   -1    0    0  501    0  0.00000000000E+00 -0.00000000000E+00 -0.18771965125E+03  0.18771965127E+03  0.25500000000E-02 0.  1.
    5000001    1    1    2    0    0  0.12669230713E+03 -0.24980362128E+03  0.91793748323E+02  0.33779266144E+03  0.16500000000E+03 0.  0.
   -5000001    1    1    2    0    0 -0.12669230713E+03  0.24980362128E+03  0.34349006476E+03  0.47293045417E+03  0.16500000000E+03 0.  0.
<mgrwt>
<rscale>  0 0.68395904E+03</rscale>
<asrwt>0</asrwt>
<pdfrwt beam="1">  1        2 0.26817093E-01 0.68395904E+03</pdfrwt>
<pdfrwt beam="2">  1       -2 0.89000495E-01 0.68395904E+03</pdfrwt>
<totfact> 0.22145692E+02</totfact>
</mgrwt>
</event>
<event>
 4    1  0.5531008E-005  0.3939963E+03  0.7818608E-02  0.1045879E+00
          2   -1    0    0  501    0  0.00000000000E+00  0.00000000000E+00  0.17902710182E+04  0.17902710182E+04  0.25500000000E-02 0.  1.
         -2   -1    0    0    0  501 -0.00000000000E+00 -0.00000000000E+00 -0.21677311829E+02  0.21677311979E+02  0.25500000000E-02 0. -1.
    5000001    1    1    2    0    0 -0.48873266732E+02  0.94116399394E+02  0.79990108327E+03  0.82359773910E+03  0.16500000000E+03 0.  0.
   -5000001    1    1    2    0    0  0.48873266732E+02 -0.94116399394E+02  0.96869262310E+03  0.98835059108E+03  0.16500000000E+03 0.  0.
<mgrwt>
<rscale>  0 0.39399626E+03</rscale>
<asrwt>0</asrwt>
<pdfrwt beam="1">  1        2 0.25575301E+00 0.39399626E+03</pdfrwt>
<pdfrwt beam="2">  1       -2 0.30967587E-02 0.39399626E+03</pdfrwt>
<totfact> 0.45221758E+03</totfact>
</mgrwt>
</event>
<event>
 4    1  0.5531008E-005  0.7907446E+03  0.7818608E-02  0.9573511E-01
         -2   -1    0    0    0  501 -0.00000000000E+00  0.00000000000E+00  0.47491141841E+03  0.47491141842E+03  0.25500000000E-02 0. -1.
          2   -1    0    0  501    0  0.00000000000E+00 -0.00000000000E+00 -0.32915457232E+03  0.32915457233E+03  0.25500000000E-02 0.  1.
    5000001    1    1    2    0    0  0.12490655998E+03  0.31439953772E+03  0.19593596642E+03  0.42434021843E+03  0.16500000000E+03 0.  0.
   -5000001    1    1    2    0    0 -0.12490655998E+03 -0.31439953772E+03 -0.50179120330E+02  0.37972577231E+03  0.16500000000E+03 0.  0.
<mgrwt>
<rscale>  0 0.79074462E+03</rscale>
<asrwt>0</asrwt>
<pdfrwt beam="1">  1        2 0.47022082E-01 0.79074462E+03</pdfrwt>
<pdfrwt beam="2">  1       -2 0.67844488E-01 0.79074462E+03</pdfrwt>
<totfact> 0.21563082E+02</totfact>
</mgrwt>
</event>
<event>
 4    1  0.5531008E-005  0.4923548E+03  0.7818608E-02  0.1015794E+00
          2   -1    0    0  501    0  0.00000000000E+00  0.00000000000E+00  0.14750939964E+04  0.14750939964E+04  0.25500000000E-02 0.  1.
         -2   -1    0    0    0  501 -0.00000000000E+00 -0.00000000000E+00 -0.41084374493E+02  0.41084374572E+02  0.25500000000E-02 0. -1.
    5000001    1    1    2    0    0 -0.14903800870E+03  0.49808619709E+02  0.43001979961E+03  0.48665722504E+03  0.16500000000E+03 0.  0.
   -5000001    1    1    2    0    0  0.14903800870E+03 -0.49808619709E+02  0.10039898223E+04  0.10295211459E+04  0.16500000000E+03 0.  0.
<mgrwt>
<rscale>  0 0.49235481E+03</rscale>
<asrwt>0</asrwt>
<pdfrwt beam="1">  1        2 0.21072767E+00 0.49235481E+03</pdfrwt>
<pdfrwt beam="2">  1       -2 0.58691976E-02 0.49235481E+03</pdfrwt>
<totfact> 0.24541010E+03</totfact>
</mgrwt>
</event>
<event>
 4    1  0.5531008E-005  0.5092578E+03  0.7818608E-02  0.1011390E+00
          2   -1    0    0  501    0  0.00000000000E+00  0.00000000000E+00  0.10675705597E+04  0.10675705597E+04  0.25500000000E-02 0.  1.
         -2   -1    0    0    0  501 -0.00000000000E+00 -0.00000000000E+00 -0.60732176289E+02  0.60732176343E+02  0.25500000000E-02 0. -1.
    5000001    1    1    2    0    0 -0.20840420733E+02 -0.19062161950E+03  0.43920709587E+03  0.50685185017E+03  0.16500000000E+03 0.  0.
   -5000001    1    1    2    0    0  0.20840420733E+02  0.19062161950E+03  0.56763128752E+03  0.62145088585E+03  0.16500000000E+03 0.  0.
<mgrwt>
<rscale>  0 0.50925783E+03</rscale>
<asrwt>0</asrwt>
<pdfrwt beam="1">  1        2 0.15251007E+00 0.50925783E+03</pdfrwt>
<pdfrwt beam="2">  1       -2 0.86760258E-02 0.50925783E+03</pdfrwt>
<totfact> 0.22146755E+03</totfact>
</mgrwt>
</event>
<event>
 4    1  0.5531008E-005  0.4495403E+03  0.7818608E-02  0.1027859E+00
         -2   -1    0    0    0  501 -0.00000000000E+00  0.00000000000E+00  0.41041438370E+02  0.41041438449E+02  0.25500000000E-02 0. -1.
          2   -1    0    0  501    0  0.00000000000E+00 -0.00000000000E+00 -0.12309905618E+04  0.12309905618E+04  0.25500000000E-02 0.  1.
    5000001    1    1    2    0    0  0.11288616929E+03 -0.58576233725E+01 -0.30476138748E+03  0.36452997444E+03  0.16500000000E+03 0.  0.
   -5000001    1    1    2    0    0 -0.11288616929E+03  0.58576233725E+01 -0.88518773598E+03  0.90750202584E+03  0.16500000000E+03 0.  0.
<mgrwt>
<rscale>  0 0.44954031E+03</rscale>
<asrwt>0</asrwt>
<pdfrwt beam="1">  1        2 0.17585577E+00 0.44954031E+03</pdfrwt>
<pdfrwt beam="2">  1       -2 0.58630634E-02 0.44954031E+03</pdfrwt>
<totfact> 0.33168088E+03</totfact>
</mgrwt>
</event>
<event>
 4    1  0.5531008E-005  0.6942242E+03  0.7818608E-02  0.9727161E-01
         -2   -1    0    0    0  501 -0.00000000000E+00  0.00000000000E+00  0.16848924627E+03  0.16848924629E+03  0.25500000000E-02 0. -1.
          2   -1    0    0  501    0  0.00000000000E+00 -0.00000000000E+00 -0.71510090068E+03  0.71510090068E+03  0.25500000000E-02 0.  1.
    5000001    1    1    2    0    0  0.12119454755E+03 -0.27744624690E+03 -0.22243828491E+03  0.41032709985E+03  0.16500000000E+03 0.  0.
   -5000001    1    1    2    0    0 -0.12119454755E+03  0.27744624690E+03 -0.32417336950E+03  0.47326304712E+03  0.16500000000E+03 0.  0.
<mgrwt>
<rscale>  0 0.69422421E+03</rscale>
<asrwt>0</asrwt>
<pdfrwt beam="1">  1        2 0.10215727E+00 0.69422421E+03</pdfrwt>
<pdfrwt beam="2">  1       -2 0.24069893E-01 0.69422421E+03</pdfrwt>
<totfact> 0.67512010E+02</totfact>
</mgrwt>
</event>
<event>
 4    1  0.5531008E-005  0.4292340E+03  0.7818608E-02  0.1034102E+00
          2   -1    0    0  501    0  0.00000000000E+00  0.00000000000E+00  0.17389617512E+04  0.17389617512E+04  0.25500000000E-02 0.  1.
         -2   -1    0    0    0  501 -0.00000000000E+00 -0.00000000000E+00 -0.26487332895E+02  0.26487333018E+02  0.25500000000E-02 0. -1.
    5000001    1    1    2    0    0  0.82421043109E+02 -0.40228405420E+02  0.12761666400E+04  0.12900534276E+04  0.16500000000E+03 0.  0.
   -5000001    1    1    2    0    0 -0.82421043109E+02  0.40228405420E+02  0.43630777834E+03  0.47539565668E+03  0.16500000000E+03 0.  0.
<mgrwt>
<rscale>  0 0.42923401E+03</rscale>
<asrwt>0</asrwt>
<pdfrwt beam="1">  1        2 0.24842315E+00 0.42923401E+03</pdfrwt>
<pdfrwt beam="2">  1       -2 0.37839041E-02 0.42923401E+03</pdfrwt>
<totfact> 0.35412312E+03</totfact>
</mgrwt>
</event>
<event>
 4    1  0.5531008E-005  0.4187604E+03  0.7818608E-02  0.1037470E+00
         -2   -1    0    0    0  501 -0.00000000000E+00  0.00000000000E+00  0.28169741496E+02  0.28169741611E+02  0.25500000000E-02 0. -1.
          2   -1    0    0  501    0  0.00000000000E+00 -0.00000000000E+00 -0.15562824328E+04  0.15562824328E+04  0.25500000000E-02 0.  1.
    5000001    1    1    2    0    0  0.10605624638E+03 -0.38235762934E+02 -0.52760943885E+03  0.56418668978E+03  0.16500000000E+03 0.  0.
   -5000001    1    1    2    0    0 -0.10605624638E+03  0.38235762934E+02 -0.10005032525E+04  0.10202654847E+04  0.16500000000E+03 0.  0.
<mgrwt>
<rscale>  0 0.41876043E+03</rscale>
<asrwt>0</asrwt>
<pdfrwt beam="1">  1        2 0.22232601E+00 0.41876043E+03</pdfrwt>
<pdfrwt beam="2">  1       -2 0.40242498E-02 0.41876043E+03</pdfrwt>
<totfact> 0.39874869E+03</totfact>
</mgrwt>
</event>
<event>
 4    1  0.5531008E-005  0.5260302E+03  0.7818608E-02  0.1007199E+00
         -2   -1    0    0    0  501 -0.00000000000E+00  0.00000000000E+00  0.14147217131E+03  0.14147217133E+03  0.25500000000E-02 0. -1.
          2   -1    0    0  501    0  0.00000000000E+00 -0.00000000000E+00 -0.48897908634E+03  0.48897908635E+03  0.25500000000E-02 0.  1.
    5000001    1    1    2    0    0 -0.66983322463E+02  0.17313206786E+03 -0.27748120758E+03  0.37240072364E+03  0.16500000000E+03 0.  0.
   -5000001    1    1    2    0    0  0.66983322463E+02 -0.17313206786E+03 -0.70025707454E+02  0.25805053403E+03  0.16500000000E+03 0.  0.
<mgrwt>
<rscale>  0 0.52603016E+03</rscale>
<asrwt>0</asrwt>
<pdfrwt beam="1">  1        2 0.69854155E-01 0.52603016E+03</pdfrwt>
<pdfrwt beam="2">  1       -2 0.20210310E-01 0.52603016E+03</pdfrwt>
<totfact> 0.14406997E+03</totfact>
</mgrwt>
</event>
<event>
 4    1  0.5531008E-005  0.7913354E+03  0.7818608E-02  0.9572644E-01
         -2   -1    0    0    0  501 -0.00000000000E+00  0.00000000000E+00  0.14428732452E+03  0.14428732454E+03  0.25500000000E-02 0. -1.
          2   -1    0    0  501    0  0.00000000000E+00 -0.00000000000E+00 -0.10850080759E+04  0.10850080759E+04  0.25500000000E-02 0.  1.
    5000001    1    1    2    0    0  0.26185603735E+03  0.24605092117E+03 -0.44740972694E+03  0.59708467060E+03  0.16500000000E+03 0.  0.
   -5000001    1    1    2    0    0 -0.26185603735E+03 -0.24605092117E+03 -0.49331102448E+03  0.63221072988E+03  0.16500000000E+03 0.  0.
<mgrwt>
<rscale>  0 0.79133536E+03</rscale>
<asrwt>0</asrwt>
<pdfrwt beam="1">  1        2 0.15500115E+00 0.79133536E+03</pdfrwt>
<pdfrwt beam="2">  1       -2 0.20612475E-01 0.79133536E+03</pdfrwt>
<totfact> 0.50621771E+02</totfact>
</mgrwt>
</event>
<event>
 4    1  0.5531008E-005  0.5158364E+03  0.7818608E-02  0.1009726E+00
          2   -1    0    0  501    0  0.00000000000E+00  0.00000000000E+00  0.19571058006E+03  0.19571058007E+03  0.25500000000E-02 0.  1.
         -2   -1    0    0    0  501 -0.00000000000E+00 -0.00000000000E+00 -0.33989883468E+03  0.33989883469E+03  0.25500000000E-02 0. -1.
    5000001    1    1    2    0    0  0.70141069837E+02  0.17261637639E+03 -0.18195708093E+01  0.24888650810E+03  0.16500000000E+03 0.  0.
   -5000001    1    1    2    0    0 -0.70141069837E+02 -0.17261637639E+03 -0.14236868382E+03  0.28672290667E+03  0.16500000000E+03 0.  0.
<mgrwt>
<rscale>  0 0.51583640E+03</rscale>
<asrwt>0</asrwt>
<pdfrwt beam="1">  1        2 0.27958654E-01 0.51583640E+03</pdfrwt>
<pdfrwt beam="2">  1       -2 0.48556976E-01 0.51583640E+03</pdfrwt>
<totfact> 0.77801946E+02</totfact>
</mgrwt>
</event>
<event>
 4    1  0.5531008E-005  0.3786750E+03  0.7818608E-02  0.1051425E+00
         -2   -1    0    0    0  501 -0.00000000000E+00  0.00000000000E+00  0.16771211719E+03  0.16771211721E+03  0.25500000000E-02 0. -1.
          2   -1    0    0  501    0  0.00000000000E+00 -0.00000000000E+00 -0.21375134504E+03  0.21375134506E+03  0.25500000000E-02 0.  1.
    5000001    1    1    2    0    0  0.72807853276E+02  0.24699550157E+02  0.29446914755E+02  0.18439949041E+03  0.16500000000E+03 0.  0.
   -5000001    1    1    2    0    0 -0.72807853276E+02 -0.24699550157E+02 -0.75486142605E+02  0.19706397185E+03  0.16500000000E+03 0.  0.
<mgrwt>
<rscale>  0 0.37867501E+03</rscale>
<asrwt>0</asrwt>
<pdfrwt beam="1">  1        2 0.30535906E-01 0.37867501E+03</pdfrwt>
<pdfrwt beam="2">  1       -2 0.23958874E-01 0.37867501E+03</pdfrwt>
<totfact> 0.26528164E+03</totfact>
</mgrwt>
</event>
<event>
 4    1  0.5531008E-005  0.4642857E+03  0.7818608E-02  0.1023546E+00
         -2   -1    0    0    0  501 -0.00000000000E+00  0.00000000000E+00  0.11350561741E+03  0.11350561744E+03  0.25500000000E-02 0. -1.
          2   -1    0    0  501    0  0.00000000000E+00 -0.00000000000E+00 -0.47478092993E+03  0.47478092994E+03  0.25500000000E-02 0.  1.
    5000001    1    1    2    0    0 -0.13804201383E+03  0.87231902965E+02 -0.17994351140E+03  0.29371698924E+03  0.16500000000E+03 0.  0.
   -5000001    1    1    2    0    0  0.13804201383E+03 -0.87231902965E+02 -0.18133180113E+03  0.29456955813E+03  0.16500000000E+03 0.  0.
<mgrwt>
<rscale>  0 0.46428570E+03</rscale>
<asrwt>0</asrwt>
<pdfrwt beam="1">  1        2 0.67825846E-01 0.46428570E+03</pdfrwt>
<pdfrwt beam="2">  1       -2 0.16215088E-01 0.46428570E+03</pdfrwt>
<totfact> 0.21704605E+03</totfact>
</mgrwt>
</event>
<event>
 4    1  0.5531008E-005  0.8489908E+03  0.7818608E-02  0.9491693E-01
          2   -1    0    0  501    0  0.00000000000E+00  0.00000000000E+00  0.14711164279E+04  0.14711164279E+04  0.25500000000E-02 0.  1.
         -2   -1    0    0    0  501 -0.00000000000E+00 -0.00000000000E+00 -0.12248951193E+03  0.12248951195E+03  0.25500000000E-02 0. -1.
    5000001    1    1    2    0    0  0.35766970124E+03  0.16638025609E+02  0.37891124551E+03  0.54681182417E+03  0.16500000000E+03 0.  0.
   -5000001    1    1    2    0    0 -0.35766970124E+03 -0.16638025609E+02  0.96971567048E+03  0.10467941157E+04  0.16500000000E+03 0.  0.
<mgrwt>
<rscale>  0 0.84899077E+03</rscale>
<asrwt>0</asrwt>
<pdfrwt beam="1">  1        2 0.21015948E+00 0.84899077E+03</pdfrwt>
<pdfrwt beam="2">  1       -2 0.17498502E-01 0.84899077E+03</pdfrwt>
<totfact> 0.40969148E+02</totfact>
</mgrwt>
</event>
<event>
 4    1  0.5531008E-005  0.5324776E+03  0.7818608E-02  0.1005633E+00
         -2   -1    0    0    0  501 -0.00000000000E+00  0.00000000000E+00  0.24449087099E+02  0.24449087232E+02  0.25500000000E-02 0. -1.
          2   -1    0    0  501    0  0.00000000000E+00 -0.00000000000E+00 -0.28992125022E+04  0.28992125022E+04  0.25500000000E-02 0.  1.
    5000001    1    1    2    0    0  0.17356231016E+03 -0.19814949718E+02 -0.20668150405E+04  0.20807368693E+04  0.16500000000E+03 0.  0.
   -5000001    1    1    2    0    0 -0.17356231016E+03  0.19814949718E+02 -0.80794837456E+03  0.84292472006E+03  0.16500000000E+03 0.  0.
<mgrwt>
<rscale>  0 0.53247760E+03</rscale>
<asrwt>0</asrwt>
<pdfrwt beam="1">  1        2 0.41417300E+00 0.53247760E+03</pdfrwt>
<pdfrwt beam="2">  1       -2 0.34927286E-02 0.53247760E+03</pdfrwt>
<totfact> 0.10250751E+03</totfact>
</mgrwt>
</event>
<event>
 4    1  0.5531008E-005  0.3847802E+03  0.7818608E-02  0.1049181E+00
         -2   -1    0    0    0  501 -0.00000000000E+00  0.00000000000E+00  0.46158879691E+02  0.46158879761E+02  0.25500000000E-02 0. -1.
          2   -1    0    0  501    0  0.00000000000E+00 -0.00000000000E+00 -0.80188131593E+03  0.80188131594E+03  0.25500000000E-02 0.  1.
    5000001    1    1    2    0    0  0.56034199311E+02 -0.60826921212E+02 -0.25817181956E+03  0.31736010185E+03  0.16500000000E+03 0.  0.
   -5000001    1    1    2    0    0 -0.56034199311E+02  0.60826921212E+02 -0.49755061669E+03  0.53068009384E+03  0.16500000000E+03 0.  0.
<mgrwt>
<rscale>  0 0.38478016E+03</rscale>
<asrwt>0</asrwt>
<pdfrwt beam="1">  1        2 0.11455447E+00 0.38478016E+03</pdfrwt>
<pdfrwt beam="2">  1       -2 0.65941261E-02 0.38478016E+03</pdfrwt>
<totfact> 0.50007685E+03</totfact>
</mgrwt>
</event>
<event>
 4    1  0.5531008E-005  0.4712569E+03  0.7818608E-02  0.1021566E+00
          2   -1    0    0  501    0  0.00000000000E+00  0.00000000000E+00  0.17820170192E+04  0.17820170192E+04  0.25500000000E-02 0.  1.
         -2   -1    0    0    0  501 -0.00000000000E+00 -0.00000000000E+00 -0.31156133264E+02  0.31156133368E+02  0.25500000000E-02 0. -1.
    5000001    1    1    2    0    0 -0.59616003673E+00 -0.15800408181E+03  0.10974601930E+04  0.11209859591E+04  0.16500000000E+03 0.  0.
   -5000001    1    1    2    0    0  0.59616003673E+00  0.15800408181E+03  0.65340069294E+03  0.69218719347E+03  0.16500000000E+03 0.  0.
<mgrwt>
<rscale>  0 0.47125687E+03</rscale>
<asrwt>0</asrwt>
<pdfrwt beam="1">  1        2 0.25457393E+00 0.47125687E+03</pdfrwt>
<pdfrwt beam="2">  1       -2 0.44508749E-02 0.47125687E+03</pdfrwt>
<totfact> 0.26275848E+03</totfact>
</mgrwt>
</event>
<event>
 4    1  0.5531008E-005  0.5149888E+03  0.7818608E-02  0.1009939E+00
         -2   -1    0    0    0  501 -0.00000000000E+00  0.00000000000E+00  0.99574655895E+02  0.99574655927E+02  0.25500000000E-02 0. -1.
          2   -1    0    0  501    0  0.00000000000E+00 -0.00000000000E+00 -0.66586600838E+03  0.66586600838E+03  0.25500000000E-02 0.  1.
    5000001    1    1    2    0    0 -0.12206525952E+03 -0.15549177200E+03 -0.28184998787E+03  0.38176175084E+03  0.16500000000E+03 0.  0.
   -5000001    1    1    2    0    0  0.12206525952E+03  0.15549177200E+03 -0.28444136461E+03  0.38367891347E+03  0.16500000000E+03 0.  0.
<mgrwt>
<rscale>  0 0.51498885E+03</rscale>
<asrwt>0</asrwt>
<pdfrwt beam="1">  1        2 0.95123713E-01 0.51498885E+03</pdfrwt>
<pdfrwt beam="2">  1       -2 0.14224951E-01 0.51498885E+03</pdfrwt>
<totfact> 0.18301946E+03</totfact>
</mgrwt>
</event>
<event>
 4    1  0.5531008E-005  0.4310680E+03  0.7818608E-02  0.1033523E+00
          2   -1    0    0  501    0  0.00000000000E+00  0.00000000000E+00  0.77634590106E+03  0.77634590107E+03  0.25500000000E-02 0.  1.
         -2   -1    0    0    0  501 -0.00000000000E+00 -0.00000000000E+00 -0.59837901084E+02  0.59837901138E+02  0.25500000000E-02 0. -1.
    5000001    1    1    2    0    0 -0.42244795301E+02 -0.45316600199E+02  0.11759664852E+03  0.21187776836E+03  0.16500000000E+03 0.  0.
   -5000001    1    1    2    0    0  0.42244795301E+02  0.45316600199E+02  0.59891135146E+03  0.62430603385E+03  0.16500000000E+03 0.  0.
<mgrwt>
<rscale>  0 0.43106802E+03</rscale>
<asrwt>0</asrwt>
<pdfrwt beam="1">  1        2 0.11090655E+00 0.43106802E+03</pdfrwt>
<pdfrwt beam="2">  1       -2 0.85482719E-02 0.43106802E+03</pdfrwt>
<totfact> 0.34682944E+03</totfact>
</mgrwt>
</event>
<event>
 4    1  0.5531008E-005  0.4962178E+03  0.7818608E-02  0.1014771E+00
          2   -1    0    0  501    0  0.00000000000E+00  0.00000000000E+00  0.16713439773E+04  0.16713439773E+04  0.25500000000E-02 0.  1.
         -2   -1    0    0    0  501 -0.00000000000E+00 -0.00000000000E+00 -0.36831451903E+02  0.36831451991E+02  0.25500000000E-02 0. -1.
    5000001    1    1    2    0    0  0.16220826824E+00  0.18498683852E+03  0.85382810179E+03  0.88908243946E+03  0.16500000000E+03 0.  0.
   -5000001    1    1    2    0    0 -0.16220826824E+00 -0.18498683852E+03  0.78068442357E+03  0.81909298980E+03  0.16500000000E+03 0.  0.
<mgrwt>
<rscale>  0 0.49621780E+03</rscale>
<asrwt>0</asrwt>
<pdfrwt beam="1">  1        2 0.23876351E+00 0.49621780E+03</pdfrwt>
<pdfrwt beam="2">  1       -2 0.52616340E-02 0.49621780E+03</pdfrwt>
<totfact> 0.23067021E+03</totfact>
</mgrwt>
</event>
<event>
 4    1  0.5531008E-005  0.4762481E+03  0.7818608E-02  0.1020171E+00
         -2   -1    0    0    0  501 -0.00000000000E+00  0.00000000000E+00  0.10309091236E+04  0.10309091236E+04  0.25500000000E-02 0. -1.
          2   -1    0    0  501    0  0.00000000000E+00 -0.00000000000E+00 -0.55002965856E+02  0.55002965915E+02  0.25500000000E-02 0.  1.
    5000001    1    1    2    0    0  0.14902827094E+03 -0.70515095274E+02  0.59721567100E+03  0.64115003072E+03  0.16500000000E+03 0.  0.
   -5000001    1    1    2    0    0 -0.14902827094E+03  0.70515095274E+02  0.37869048676E+03  0.44476205882E+03  0.16500000000E+03 0.  0.
<mgrwt>
<rscale>  0 0.47624808E+03</rscale>
<asrwt>0</asrwt>
<pdfrwt beam="1">  1        2 0.78575671E-02 0.47624808E+03</pdfrwt>
<pdfrwt beam="2">  1       -2 0.14727272E+00 0.47624808E+03</pdfrwt>
<totfact> 0.28982826E+02</totfact>
</mgrwt>
</event>
<event>
 4    1  0.5531008E-005  0.5249131E+03  0.7818608E-02  0.1007473E+00
         -2   -1    0    0    0  501 -0.00000000000E+00  0.00000000000E+00  0.40278807711E+02  0.40278807791E+02  0.25500000000E-02 0. -1.
          2   -1    0    0  501    0  0.00000000000E+00 -0.00000000000E+00 -0.17101658650E+04  0.17101658650E+04  0.25500000000E-02 0.  1.
    5000001    1    1    2    0    0  0.98657668321E+02 -0.17578378005E+03 -0.94171586832E+03  0.97708088175E+03  0.16500000000E+03 0.  0.
   -5000001    1    1    2    0    0 -0.98657668321E+02  0.17578378005E+03 -0.72817118901E+03  0.77336379108E+03  0.16500000000E+03 0.  0.
<mgrwt>
<rscale>  0 0.52491311E+03</rscale>
<asrwt>0</asrwt>
<pdfrwt beam="1">  1        2 0.24430936E+00 0.52491311E+03</pdfrwt>
<pdfrwt beam="2">  1       -2 0.57541165E-02 0.52491311E+03</pdfrwt>
<totfact> 0.19170304E+03</totfact>
</mgrwt>
</event>
<event>
 4    1  0.5531008E-005  0.5002727E+03  0.7818608E-02  0.1013708E+00
         -2   -1    0    0    0  501 -0.00000000000E+00  0.00000000000E+00  0.56494670917E+02  0.56494670974E+02  0.25500000000E-02 0. -1.
          2   -1    0    0  501    0  0.00000000000E+00 -0.00000000000E+00 -0.11075062147E+04  0.11075062147E+04  0.25500000000E-02 0.  1.
    5000001    1    1    2    0    0  0.17562178062E+03  0.66568483001E+02 -0.50620280466E+03  0.56457121092E+03  0.16500000000E+03 0.  0.
   -5000001    1    1    2    0    0 -0.17562178062E+03 -0.66568483001E+02 -0.54480873915E+03  0.59942967478E+03  0.16500000000E+03 0.  0.
<mgrwt>
<rscale>  0 0.50027272E+03</rscale>
<asrwt>0</asrwt>
<pdfrwt beam="1">  1        2 0.15821516E+00 0.50027272E+03</pdfrwt>
<pdfrwt beam="2">  1       -2 0.80706680E-02 0.50027272E+03</pdfrwt>
<totfact> 0.23558768E+03</totfact>
</mgrwt>
</event>
<event>
 4    1  0.5531008E-005  0.5386796E+03  0.7818608E-02  0.1004149E+00
         -2   -1    0    0    0  501 -0.00000000000E+00  0.00000000000E+00  0.11918359283E+04  0.11918359283E+04  0.25500000000E-02 0. -1.
          2   -1    0    0  501    0  0.00000000000E+00 -0.00000000000E+00 -0.60867368068E+02  0.60867368121E+02  0.25500000000E-02 0.  1.
    5000001    1    1    2    0    0 -0.10917997452E+03  0.82131708639E+02  0.94514095057E+03  0.96911418360E+03  0.16500000000E+03 0.  0.
   -5000001    1    1    2    0    0  0.10917997452E+03 -0.82131708639E+02  0.18582760965E+03  0.28358911282E+03  0.16500000000E+03 0.  0.
<mgrwt>
<rscale>  0 0.53867956E+03</rscale>
<asrwt>0</asrwt>
<pdfrwt beam="1">  1        2 0.86953375E-02 0.53867956E+03</pdfrwt>
<pdfrwt beam="2">  1       -2 0.17026229E+00 0.53867956E+03</pdfrwt>
<totfact> 0.17225253E+02</totfact>
</mgrwt>
</event>
<event>
 4    1  0.5531008E-005  0.4851073E+03  0.7818608E-02  0.1017741E+00
         -2   -1    0    0    0  501 -0.00000000000E+00  0.00000000000E+00  0.23205664629E+03  0.23205664630E+03  0.25500000000E-02 0. -1.
          2   -1    0    0  501    0  0.00000000000E+00 -0.00000000000E+00 -0.25352544484E+03  0.25352544485E+03  0.25500000000E-02 0.  1.
    5000001    1    1    2    0    0  0.17442035618E+03 -0.13019380882E+02 -0.42629353324E+02  0.24420120125E+03  0.16500000000E+03 0.  0.
   -5000001    1    1    2    0    0 -0.17442035618E+03  0.13019380882E+02  0.21160554776E+02  0.24138088990E+03  0.16500000000E+03 0.  0.
<mgrwt>
<rscale>  0 0.48510726E+03</rscale>
<asrwt>0</asrwt>
<pdfrwt beam="1">  1        2 0.36217921E-01 0.48510726E+03</pdfrwt>
<pdfrwt beam="2">  1       -2 0.33150950E-01 0.48510726E+03</pdfrwt>
<totfact> 0.12211494E+03</totfact>
</mgrwt>
</event>
<event>
 4    1  0.5531008E-005  0.5562733E+03  0.7818608E-02  0.1000052E+00
         -2   -1    0    0    0  501 -0.00000000000E+00  0.00000000000E+00  0.30325014937E+02  0.30325015045E+02  0.25500000000E-02 0. -1.
          2   -1    0    0  501    0  0.00000000000E+00 -0.00000000000E+00 -0.25510294276E+04  0.25510294276E+04  0.25500000000E-02 0.  1.
    5000001    1    1    2    0    0  0.46499836132E+02 -0.21333604549E+03 -0.10301702321E+04  0.10659034713E+04  0.16500000000E+03 0.  0.
   -5000001    1    1    2    0    0 -0.46499836132E+02  0.21333604549E+03 -0.14905341805E+04  0.15154509713E+04  0.16500000000E+03 0.  0.
<mgrwt>
<rscale>  0 0.55627333E+03</rscale>
<asrwt>0</asrwt>
<pdfrwt beam="1">  1        2 0.36443264E+00 0.55627333E+03</pdfrwt>
<pdfrwt beam="2">  1       -2 0.43321466E-02 0.55627333E+03</pdfrwt>
<totfact> 0.11194003E+03</totfact>
</mgrwt>
</event>
<event>
 4    1  0.5531008E-005  0.3671676E+03  0.7818608E-02  0.1055781E+00
          2   -1    0    0  501    0  0.00000000000E+00  0.00000000000E+00  0.25468011720E+03  0.25468011721E+03  0.25500000000E-02 0.  1.
         -2   -1    0    0    0  501 -0.00000000000E+00 -0.00000000000E+00 -0.13233469481E+03  0.13233469484E+03  0.25500000000E-02 0. -1.
    5000001    1    1    2    0    0 -0.63264921775E+02  0.41346430149E+02  0.31999222879E+02  0.18428490952E+03  0.16500000000E+03 0.  0.
   -5000001    1    1    2    0    0  0.63264921775E+02 -0.41346430149E+02  0.90346199506E+02  0.20272990253E+03  0.16500000000E+03 0.  0.
<mgrwt>
<rscale>  0 0.36716762E+03</rscale>
<asrwt>0</asrwt>
<pdfrwt beam="1">  1        2 0.36382874E-01 0.36716762E+03</pdfrwt>
<pdfrwt beam="2">  1       -2 0.18904956E-01 0.36716762E+03</pdfrwt>
<totfact> 0.32999224E+03</totfact>
</mgrwt>
</event>
<event>
 4    1  0.5531008E-005  0.4366652E+03  0.7818608E-02  0.1031775E+00
         -2   -1    0    0    0  501 -0.00000000000E+00  0.00000000000E+00  0.22243976002E+02  0.22243976148E+02  0.25500000000E-02 0. -1.
          2   -1    0    0  501    0  0.00000000000E+00 -0.00000000000E+00 -0.21430123230E+04  0.21430123230E+04  0.25500000000E-02 0.  1.
    5000001    1    1    2    0    0 -0.13817490486E+03  0.34555781464E+02 -0.99811282162E+03  0.10216362420E+04  0.16500000000E+03 0.  0.
   -5000001    1    1    2    0    0  0.13817490486E+03 -0.34555781464E+02 -0.11226555254E+04  0.11436200571E+04  0.16500000000E+03 0.  0.
<mgrwt>
<rscale>  0 0.43666516E+03</rscale>
<asrwt>0</asrwt>
<pdfrwt beam="1">  1        2 0.30614449E+00 0.43666516E+03</pdfrwt>
<pdfrwt beam="2">  1       -2 0.31777122E-02 0.43666516E+03</pdfrwt>
<totfact> 0.29044271E+03</totfact>
</mgrwt>
</event>
<event>
 4    1  0.5531008E-005  0.7098001E+03  0.7818608E-02  0.9700618E-01
         -2   -1    0    0    0  501 -0.00000000000E+00  0.00000000000E+00  0.94336635824E+02  0.94336635858E+02  0.25500000000E-02 0. -1.
          2   -1    0    0  501    0  0.00000000000E+00 -0.00000000000E+00 -0.13351550659E+04  0.13351550659E+04  0.25500000000E-02 0.  1.
    5000001    1    1    2    0    0 -0.28916597361E+02 -0.15179783489E+03 -0.11713974501E+04  0.11930112063E+04  0.16500000000E+03 0.  0.
   -5000001    1    1    2    0    0  0.28916597361E+02  0.15179783489E+03 -0.69420980011E+02  0.23648049549E+03  0.16500000000E+03 0.  0.
<mgrwt>
<rscale>  0 0.70980008E+03</rscale>
<asrwt>0</asrwt>
<pdfrwt beam="1">  1        2 0.19073643E+00 0.70980008E+03</pdfrwt>
<pdfrwt beam="2">  1       -2 0.13476663E-01 0.70980008E+03</pdfrwt>
<totfact> 0.75951303E+02</totfact>
</mgrwt>
</event>
<event>
 4    1  0.5531008E-005  0.4278063E+03  0.7818608E-02  0.1034555E+00
          2   -1    0    0  501    0  0.00000000000E+00  0.00000000000E+00  0.89037791307E+03  0.89037791307E+03  0.25500000000E-02 0.  1.
         -2   -1    0    0    0  501 -0.00000000000E+00 -0.00000000000E+00 -0.51387784469E+02  0.51387784532E+02  0.25500000000E-02 0. -1.
    5000001    1    1    2    0    0  0.10139383276E+03 -0.78279135002E+02  0.31810668389E+03  0.38055905539E+03  0.16500000000E+03 0.  0.
   -5000001    1    1    2    0    0 -0.10139383276E+03  0.78279135002E+02  0.52088344470E+03  0.56120664222E+03  0.16500000000E+03 0.  0.
<mgrwt>
<rscale>  0 0.42780626E+03</rscale>
<asrwt>0</asrwt>
<pdfrwt beam="1">  1        2 0.12719684E+00 0.42780626E+03</pdfrwt>
<pdfrwt beam="2">  1       -2 0.73411125E-02 0.42780626E+03</pdfrwt>
<totfact> 0.37012863E+03</totfact>
</mgrwt>
</event>
<event>
 4    1  0.5531008E-005  0.4699561E+03  0.7818608E-02  0.1021933E+00
          2   -1    0    0  501    0  0.00000000000E+00  0.00000000000E+00  0.12865687730E+03  0.12865687732E+03  0.25500000000E-02 0.  1.
         -2   -1    0    0    0  501 -0.00000000000E+00 -0.00000000000E+00 -0.42916238079E+03  0.42916238080E+03  0.25500000000E-02 0. -1.
    5000001    1    1    2    0    0  0.13807117886E+03 -0.50831601853E+02 -0.24477973380E+03  0.32983271556E+03  0.16500000000E+03 0.  0.
   -5000001    1    1    2    0    0 -0.13807117886E+03  0.50831601853E+02 -0.55725769699E+02  0.22798654256E+03  0.16500000000E+03 0.  0.
<mgrwt>
<rscale>  0 0.46995613E+03</rscale>
<asrwt>0</asrwt>
<pdfrwt beam="1">  1        2 0.18379554E-01 0.46995613E+03</pdfrwt>
<pdfrwt beam="2">  1       -2 0.61308911E-01 0.46995613E+03</pdfrwt>
<totfact> 0.78040841E+02</totfact>
</mgrwt>
</event>
<event>
 4    1  0.5531008E-005  0.4589348E+03  0.7818608E-02  0.1025091E+00
          2   -1    0    0  501    0  0.00000000000E+00  0.00000000000E+00  0.10625613105E+04  0.10625613105E+04  0.25500000000E-02 0.  1.
         -2   -1    0    0    0  501 -0.00000000000E+00 -0.00000000000E+00 -0.49555065566E+02  0.49555065631E+02  0.25500000000E-02 0. -1.
    5000001    1    1    2    0    0  0.26202450140E+02  0.75806648256E+02  0.84050017112E+03  0.86028992437E+03  0.16500000000E+03 0.  0.
   -5000001    1    1    2    0    0 -0.26202450140E+02 -0.75806648256E+02  0.17250607385E+03  0.25182645180E+03  0.16500000000E+03 0.  0.
<mgrwt>
<rscale>  0 0.45893483E+03</rscale>
<asrwt>0</asrwt>
<pdfrwt beam="1">  1        2 0.15179446E+00 0.45893483E+03</pdfrwt>
<pdfrwt beam="2">  1       -2 0.70792957E-02 0.45893483E+03</pdfrwt>
<totfact> 0.30770722E+03</totfact>
</mgrwt>
</event>
<event>
 4    1  0.5531008E-005  0.1081487E+04  0.7818608E-02  0.9223426E-01
          2   -1    0    0  501    0  0.00000000000E+00  0.00000000000E+00  0.11339994363E+04  0.11339994363E+04  0.25500000000E-02 0.  1.
         -2   -1    0    0    0  501 -0.00000000000E+00 -0.00000000000E+00 -0.25785154917E+03  0.25785154918E+03  0.25500000000E-02 0. -1.
    5000001    1    1    2    0    0 -0.85751663446E+02 -0.47743776219E+03  0.66053281833E+03  0.83595978889E+03  0.16500000000E+03 0.  0.
   -5000001    1    1    2    0    0  0.85751663446E+02  0.47743776219E+03  0.21561506880E+03  0.55589119659E+03  0.16500000000E+03 0.  0.
<mgrwt>
<rscale>  0 0.10814870E+04</rscale>
<asrwt>0</asrwt>
<pdfrwt beam="1">  1        2 0.16199992E+00 0.10814870E+04</pdfrwt>
<pdfrwt beam="2">  1       -2 0.36835936E-01 0.10814870E+04</pdfrwt>
<totfact> 0.16075190E+02</totfact>
</mgrwt>
</event>
<event>
 4    1  0.5531008E-005  0.5591752E+03  0.7818608E-02  0.9993923E-01
          2   -1    0    0  501    0  0.00000000000E+00  0.00000000000E+00  0.29880472328E+04  0.29880472328E+04  0.25500000000E-02 0.  1.
         -2   -1    0    0    0  501 -0.00000000000E+00 -0.00000000000E+00 -0.26160640143E+02  0.26160640267E+02  0.25500000000E-02 0. -1.
    5000001    1    1    2    0    0 -0.12432007513E+03 -0.18021599257E+03  0.11851579902E+04  0.12164529365E+04  0.16500000000E+03 0.  0.
   -5000001    1    1    2    0    0  0.12432007513E+03  0.18021599257E+03  0.17767286025E+04  0.17977549366E+04  0.16500000000E+03 0.  0.
<mgrwt>
<rscale>  0 0.55917521E+03</rscale>
<asrwt>0</asrwt>
<pdfrwt beam="1">  1        2 0.42686380E+00 0.55917521E+03</pdfrwt>
<pdfrwt beam="2">  1       -2 0.37372351E-02 0.55917521E+03</pdfrwt>
<totfact> 0.82609502E+02</totfact>
</mgrwt>
</event>
<event>
 4    1  0.5531008E-005  0.5182429E+03  0.7818608E-02  0.1009124E+00
         -2   -1    0    0    0  501 -0.00000000000E+00  0.00000000000E+00  0.68662682153E+02  0.68662682200E+02  0.25500000000E-02 0. -1.
          2   -1    0    0  501    0  0.00000000000E+00 -0.00000000000E+00 -0.97788079773E+03  0.97788079774E+03  0.25500000000E-02 0.  1.
    5000001    1    1    2    0    0  0.10595123925E+03 -0.16938665598E+03 -0.45701045691E+03  0.52535803225E+03  0.16500000000E+03 0.  0.
   -5000001    1    1    2    0    0 -0.10595123925E+03  0.16938665598E+03 -0.45220765867E+03  0.52118544769E+03  0.16500000000E+03 0.  0.
<mgrwt>
<rscale>  0 0.51824287E+03</rscale>
<asrwt>0</asrwt>
<pdfrwt beam="1">  1        2 0.13969725E+00 0.51824287E+03</pdfrwt>
<pdfrwt beam="2">  1       -2 0.98089552E-02 0.51824287E+03</pdfrwt>
<totfact> 0.20581635E+03</totfact>
</mgrwt>
</event>
<event>
 4    1  0.5531008E-005  0.7273214E+03  0.7818608E-02  0.9671617E-01
          2   -1    0    0  501    0  0.00000000000E+00  0.00000000000E+00  0.15439272943E+04  0.15439272943E+04  0.25500000000E-02 0.  1.
         -2   -1    0    0    0  501 -0.00000000000E+00 -0.00000000000E+00 -0.85657590606E+02  0.85657590644E+02  0.25500000000E-02 0. -1.
    5000001    1    1    2    0    0  0.13264513499E+03  0.29078752142E+03  0.84920669380E+03  0.92224135845E+03  0.16500000000E+03 0.  0.
   -5000001    1    1    2    0    0 -0.13264513499E+03 -0.29078752142E+03  0.60906300990E+03  0.70734352650E+03  0.16500000000E+03 0.  0.
<mgrwt>
<rscale>  0 0.72732137E+03</rscale>
<asrwt>0</asrwt>
<pdfrwt beam="1">  1        2 0.22056104E+00 0.72732137E+03</pdfrwt>
<pdfrwt beam="2">  1       -2 0.12236799E-01 0.72732137E+03</pdfrwt>
<totfact> 0.69038817E+02</totfact>
</mgrwt>
</event>
<event>
 4    1  0.5531008E-005  0.3776882E+03  0.7818608E-02  0.1051792E+00
         -2   -1    0    0    0  501 -0.00000000000E+00  0.00000000000E+00  0.20277322635E+03  0.20277322637E+03  0.25500000000E-02 0. -1.
          2   -1    0    0  501    0  0.00000000000E+00 -0.00000000000E+00 -0.17587178618E+03  0.17587178620E+03  0.25500000000E-02 0.  1.
    5000001    1    1    2    0    0  0.27618814590E+02 -0.84609937760E+02 -0.93102996167E+01  0.18770541326E+03  0.16500000000E+03 0.  0.
   -5000001    1    1    2    0    0 -0.27618814590E+02  0.84609937760E+02  0.36211739790E+02  0.19093959931E+03  0.16500000000E+03 0.  0.
<mgrwt>
<rscale>  0 0.37768818E+03</rscale>
<asrwt>0</asrwt>
<pdfrwt beam="1">  1        2 0.25124541E-01 0.37768818E+03</pdfrwt>
<pdfrwt beam="2">  1       -2 0.28967604E-01 0.37768818E+03</pdfrwt>
<totfact> 0.23473681E+03</totfact>
</mgrwt>
</event>
<event>
 4    1  0.5531008E-005  0.5823868E+03  0.7818608E-02  0.9942637E-01
          2   -1    0    0  501    0  0.00000000000E+00  0.00000000000E+00  0.30390285776E+04  0.30390285776E+04  0.25500000000E-02 0.  1.
         -2   -1    0    0    0  501 -0.00000000000E+00 -0.00000000000E+00 -0.27901543397E+02  0.27901543514E+02  0.25500000000E-02 0. -1.
    5000001    1    1    2    0    0 -0.47158112564E+02  0.17349500460E+03  0.23422698289E+04  0.23549474210E+04  0.16500000000E+03 0.  0.
   -5000001    1    1    2    0    0  0.47158112564E+02 -0.17349500460E+03  0.66885720522E+03  0.71198270006E+03  0.16500000000E+03 0.  0.
<mgrwt>
<rscale>  0 0.58238677E+03</rscale>
<asrwt>0</asrwt>
<pdfrwt beam="1">  1        2 0.43414689E+00 0.58238677E+03</pdfrwt>
<pdfrwt beam="2">  1       -2 0.39859352E-02 0.58238677E+03</pdfrwt>
<totfact> 0.70054025E+02</totfact>
</mgrwt>
</event>
<event>
 4    1  0.5531008E-005  0.4219271E+03  0.7818608E-02  0.1036441E+00
          2   -1    0    0  501    0  0.00000000000E+00  0.00000000000E+00  0.15180434578E+04  0.15180434578E+04  0.25500000000E-02 0.  1.
         -2   -1    0    0    0  501 -0.00000000000E+00 -0.00000000000E+00 -0.29317755133E+02  0.29317755244E+02  0.25500000000E-02 0. -1.
    5000001    1    1    2    0    0 -0.85210679573E+02  0.56052239347E+02  0.10485091888E+04  0.10663016611E+04  0.16500000000E+03 0.  0.
   -5000001    1    1    2    0    0  0.85210679573E+02 -0.56052239347E+02  0.44021651391E+03  0.48105955200E+03  0.16500000000E+03 0.  0.
<mgrwt>
<rscale>  0 0.42192713E+03</rscale>
<asrwt>0</asrwt>
<pdfrwt beam="1">  1        2 0.21686337E+00 0.42192713E+03</pdfrwt>
<pdfrwt beam="2">  1       -2 0.41882503E-02 0.42192713E+03</pdfrwt>
<totfact> 0.39247091E+03</totfact>
</mgrwt>
</event>
<event>
 4    1  0.5531008E-005  0.3935694E+03  0.7818608E-02  0.1046029E+00
          2   -1    0    0  501    0  0.00000000000E+00  0.00000000000E+00  0.11518298695E+04  0.11518298695E+04  0.25500000000E-02 0.  1.
         -2   -1    0    0    0  501 -0.00000000000E+00 -0.00000000000E+00 -0.33619729168E+02  0.33619729265E+02  0.25500000000E-02 0. -1.
    5000001    1    1    2    0    0  0.66134904329E+02  0.54428296427E+02  0.75344501374E+03  0.77604165723E+03  0.16500000000E+03 0.  0.
   -5000001    1    1    2    0    0 -0.66134904329E+02 -0.54428296427E+02  0.36476512664E+03  0.40940794158E+03  0.16500000000E+03 0.  0.
<mgrwt>
<rscale>  0 0.39356935E+03</rscale>
<asrwt>0</asrwt>
<pdfrwt beam="1">  1        2 0.16454707E+00 0.39356935E+03</pdfrwt>
<pdfrwt beam="2">  1       -2 0.48028199E-02 0.39356935E+03</pdfrwt>
<totfact> 0.49871287E+03</totfact>
</mgrwt>
</event>
<event>
 4    1  0.5531008E-005  0.4796454E+03  0.7818608E-02  0.1019233E+00
         -2   -1    0    0    0  501 -0.00000000000E+00  0.00000000000E+00  0.23835292995E+03  0.23835292996E+03  0.25500000000E-02 0. -1.
          2   -1    0    0  501    0  0.00000000000E+00 -0.00000000000E+00 -0.24130151603E+03  0.24130151605E+03  0.25500000000E-02 0.  1.
    5000001    1    1    2    0    0  0.75954564230E+02 -0.15365928963E+03 -0.31635271355E+02  0.24001263198E+03  0.16500000000E+03 0.  0.
   -5000001    1    1    2    0    0 -0.75954564230E+02  0.15365928963E+03  0.28686685273E+02  0.23964181403E+03  0.16500000000E+03 0.  0.
<mgrwt>
<rscale>  0 0.47964538E+03</rscale>
<asrwt>0</asrwt>
<pdfrwt beam="1">  1        2 0.34471645E-01 0.47964538E+03</pdfrwt>
<pdfrwt beam="2">  1       -2 0.34050419E-01 0.47964538E+03</pdfrwt>
<totfact> 0.12265389E+03</totfact>
</mgrwt>
</event>
<event>
 4    1  0.5531008E-005  0.5696202E+03  0.7818608E-02  0.9970519E-01
         -2   -1    0    0    0  501 -0.00000000000E+00  0.00000000000E+00  0.83649503975E+02  0.83649504014E+02  0.25500000000E-02 0. -1.
          2   -1    0    0  501    0  0.00000000000E+00 -0.00000000000E+00 -0.96972227889E+03  0.96972227889E+03  0.25500000000E-02 0.  1.
    5000001    1    1    2    0    0  0.10129658236E+03  0.16259086529E+02 -0.82813606923E+03  0.85062312728E+03  0.16500000000E+03 0.  0.
   -5000001    1    1    2    0    0 -0.10129658236E+03 -0.16259086529E+02 -0.57936705678E+02  0.20274865563E+03  0.16500000000E+03 0.  0.
<mgrwt>
<rscale>  0 0.56962018E+03</rscale>
<asrwt>0</asrwt>
<pdfrwt beam="1">  1        2 0.13853175E+00 0.56962018E+03</pdfrwt>
<pdfrwt beam="2">  1       -2 0.11949930E-01 0.56962018E+03</pdfrwt>
<totfact> 0.15089481E+03</totfact>
</mgrwt>
</event>
<event>
 4    1  0.5531008E-005  0.5135177E+03  0.7818608E-02  0.1010310E+00
         -2   -1    0    0    0  501 -0.00000000000E+00  0.00000000000E+00  0.28880263386E+02  0.28880263498E+02  0.25500000000E-02 0. -1.
          2   -1    0    0  501    0  0.00000000000E+00 -0.00000000000E+00 -0.22827043546E+04  0.22827043546E+04  0.25500000000E-02 0.  1.
    5000001    1    1    2    0    0  0.17910428798E+02  0.16831467903E+03 -0.15781715581E+04  0.15957760123E+04  0.16500000000E+03 0.  0.
   -5000001    1    1    2    0    0 -0.17910428798E+02 -0.16831467903E+03 -0.67565253319E+03  0.71580860587E+03  0.16500000000E+03 0.  0.
<mgrwt>
<rscale>  0 0.51351768E+03</rscale>
<asrwt>0</asrwt>
<pdfrwt beam="1">  1        2 0.32610051E+00 0.51351768E+03</pdfrwt>
<pdfrwt beam="2">  1       -2 0.41257534E-02 0.51351768E+03</pdfrwt>
<totfact> 0.16560987E+03</totfact>
</mgrwt>
</event>
<event>
 4    1  0.5531008E-005  0.4794106E+03  0.7818608E-02  0.1019297E+00
          2   -1    0    0  501    0  0.00000000000E+00  0.00000000000E+00  0.13746913714E+04  0.13746913714E+04  0.25500000000E-02 0.  1.
         -2   -1    0    0    0  501 -0.00000000000E+00 -0.00000000000E+00 -0.41797477152E+02  0.41797477229E+02  0.25500000000E-02 0. -1.
    5000001    1    1    2    0    0  0.11200365224E+03 -0.10044345251E+03  0.40886809275E+03  0.46586674333E+03  0.16500000000E+03 0.  0.
   -5000001    1    1    2    0    0 -0.11200365224E+03  0.10044345251E+03  0.92402580146E+03  0.95062210527E+03  0.16500000000E+03 0.  0.
<mgrwt>
<rscale>  0 0.47941060E+03</rscale>
<asrwt>0</asrwt>
<pdfrwt beam="1">  1        2 0.19638444E+00 0.47941060E+03</pdfrwt>
<pdfrwt beam="2">  1       -2 0.59710694E-02 0.47941060E+03</pdfrwt>
<totfact> 0.26975788E+03</totfact>
</mgrwt>
</event>
<event>
 4    1  0.5531008E-005  0.5524233E+03  0.7818608E-02  0.1000935E+00
          2   -1    0    0  501    0  0.00000000000E+00  0.00000000000E+00  0.13721493490E+04  0.13721493491E+04  0.25500000000E-02 0.  1.
         -2   -1    0    0    0  501 -0.00000000000E+00 -0.00000000000E+00 -0.55601000288E+02  0.55601000346E+02  0.25500000000E-02 0. -1.
    5000001    1    1    2    0    0  0.60024443218E+02 -0.20464980978E+03  0.81298753023E+03  0.85653850044E+03  0.16500000000E+03 0.  0.
   -5000001    1    1    2    0    0 -0.60024443218E+02  0.20464980978E+03  0.50356081853E+03  0.57121184896E+03  0.16500000000E+03 0.  0.
<mgrwt>
<rscale>  0 0.55242330E+03</rscale>
<asrwt>0</asrwt>
<pdfrwt beam="1">  1        2 0.19602136E+00 0.55242330E+03</pdfrwt>
<pdfrwt beam="2">  1       -2 0.79429990E-02 0.55242330E+03</pdfrwt>
<totfact> 0.17248552E+03</totfact>
</mgrwt>
</event>
<event>
 4    1  0.5531008E-005  0.4630962E+03  0.7818608E-02  0.1023887E+00
         -2   -1    0    0    0  501 -0.00000000000E+00  0.00000000000E+00  0.10000608978E+03  0.10000608981E+03  0.25500000000E-02 0. -1.
          2   -1    0    0  501    0  0.00000000000E+00 -0.00000000000E+00 -0.53611251092E+03  0.53611251092E+03  0.25500000000E-02 0.  1.
    5000001    1    1    2    0    0 -0.14854739340E+03  0.41784043679E+02 -0.14831868758E+03  0.27025111929E+03  0.16500000000E+03 0.  0.
   -5000001    1    1    2    0    0  0.14854739340E+03 -0.41784043679E+02 -0.28778773356E+03  0.36586748145E+03  0.16500000000E+03 0.  0.
<mgrwt>
<rscale>  0 0.46309617E+03</rscale>
<asrwt>0</asrwt>
<pdfrwt beam="1">  1        2 0.76587500E-01 0.46309617E+03</pdfrwt>
<pdfrwt beam="2">  1       -2 0.14286585E-01 0.46309617E+03</pdfrwt>
<totfact> 0.23393987E+03</totfact>
</mgrwt>
</event>
<event>
 4    1  0.5531008E-005  0.5374361E+03  0.7818608E-02  0.1004445E+00
          2   -1    0    0  501    0  0.00000000000E+00  0.00000000000E+00  0.59608601067E+03  0.59608601068E+03  0.25500000000E-02 0.  1.
         -2   -1    0    0    0  501 -0.00000000000E+00 -0.00000000000E+00 -0.12113920185E+03  0.12113920188E+03  0.25500000000E-02 0. -1.
    5000001    1    1    2    0    0  0.10802289821E+03 -0.59847114329E+02  0.73537840774E+01  0.20622730608E+03  0.16500000000E+03 0.  0.
   -5000001    1    1    2    0    0 -0.10802289821E+03  0.59847114329E+02  0.46759302474E+03  0.51099790647E+03  0.16500000000E+03 0.  0.
<mgrwt>
<rscale>  0 0.53743607E+03</rscale>
<asrwt>0</asrwt>
<pdfrwt beam="1">  1        2 0.85155143E-01 0.53743607E+03</pdfrwt>
<pdfrwt beam="2">  1       -2 0.17305601E-01 0.53743607E+03</pdfrwt>
<totfact> 0.14991299E+03</totfact>
</mgrwt>
</event>
<event>
 4    1  0.5531008E-005  0.4146337E+03  0.7818608E-02  0.1038827E+00
          2   -1    0    0  501    0  0.00000000000E+00  0.00000000000E+00  0.12684084002E+04  0.12684084002E+04  0.25500000000E-02 0.  1.
         -2   -1    0    0    0  501 -0.00000000000E+00 -0.00000000000E+00 -0.33885204264E+02  0.33885204360E+02  0.25500000000E-02 0. -1.
    5000001    1    1    2    0    0 -0.59888098832E+02  0.10932497308E+03  0.57102163077E+03  0.60731312922E+03  0.16500000000E+03 0.  0.
   -5000001    1    1    2    0    0  0.59888098832E+02 -0.10932497308E+03  0.66350156515E+03  0.69498047532E+03  0.16500000000E+03 0.  0.
<mgrwt>
<rscale>  0 0.41463371E+03</rscale>
<asrwt>0</asrwt>
<pdfrwt beam="1">  1        2 0.18120116E+00 0.41463371E+03</pdfrwt>
<pdfrwt beam="2">  1       -2 0.48407444E-02 0.41463371E+03</pdfrwt>
<totfact> 0.42527731E+03</totfact>
</mgrwt>
</event>
<event>
 4    1  0.5531008E-005  0.9015165E+03  0.7818608E-02  0.9423688E-01
          2   -1    0    0  501    0  0.00000000000E+00  0.00000000000E+00  0.13160298916E+04  0.13160298916E+04  0.25500000000E-02 0.  1.
         -2   -1    0    0    0  501 -0.00000000000E+00 -0.00000000000E+00 -0.15439087286E+03  0.15439087288E+03  0.25500000000E-02 0. -1.
    5000001    1    1    2    0    0  0.38124814117E+03 -0.10964527070E+02  0.86561285037E+03  0.96019840279E+03  0.16500000000E+03 0.  0.
   -5000001    1    1    2    0    0 -0.38124814117E+03  0.10964527070E+02  0.29602616835E+03  0.51022236167E+03  0.16500000000E+03 0.  0.
<mgrwt>
<rscale>  0 0.90151651E+03</rscale>
<asrwt>0</asrwt>
<pdfrwt beam="1">  1        2 0.18800428E+00 0.90151651E+03</pdfrwt>
<pdfrwt beam="2">  1       -2 0.22055837E-01 0.90151651E+03</pdfrwt>
<totfact> 0.33037254E+02</totfact>
</mgrwt>
</event>
<event>
 4    1  0.5531008E-005  0.5399116E+03  0.7818608E-02  0.1003856E+00
         -2   -1    0    0    0  501 -0.00000000000E+00  0.00000000000E+00  0.46138302643E+02  0.46138302713E+02  0.25500000000E-02 0. -1.
          2   -1    0    0  501    0  0.00000000000E+00 -0.00000000000E+00 -0.15795145716E+04  0.15795145716E+04  0.25500000000E-02 0.  1.
    5000001    1    1    2    0    0 -0.25652373384E+02  0.20639972167E+03 -0.91395561099E+03  0.95173459968E+03  0.16500000000E+03 0.  0.
   -5000001    1    1    2    0    0  0.25652373384E+02 -0.20639972167E+03 -0.61942065792E+03  0.67391827459E+03  0.16500000000E+03 0.  0.
<mgrwt>
<rscale>  0 0.53991155E+03</rscale>
<asrwt>0</asrwt>
<pdfrwt beam="1">  1        2 0.22564491E+00 0.53991155E+03</pdfrwt>
<pdfrwt beam="2">  1       -2 0.65911871E-02 0.53991155E+03</pdfrwt>
<totfact> 0.18058904E+03</totfact>
</mgrwt>
</event>
<event>
 4    1  0.5531008E-005  0.4713446E+03  0.7818608E-02  0.1021541E+00
          2   -1    0    0  501    0  0.00000000000E+00  0.00000000000E+00  0.64032654510E+03  0.64032654511E+03  0.25500000000E-02 0.  1.
         -2   -1    0    0    0  501 -0.00000000000E+00 -0.00000000000E+00 -0.86739249414E+02  0.86739249452E+02  0.25500000000E-02 0. -1.
    5000001    1    1    2    0    0 -0.74356608112E+02  0.72615136411E+02  0.48093688971E+03  0.51896739309E+03  0.16500000000E+03 0.  0.
   -5000001    1    1    2    0    0  0.74356608112E+02 -0.72615136411E+02  0.72650405979E+02  0.20809840147E+03  0.16500000000E+03 0.  0.
<mgrwt>
<rscale>  0 0.47134465E+03</rscale>
<asrwt>0</asrwt>
<pdfrwt beam="1">  1        2 0.91475221E-01 0.47134465E+03</pdfrwt>
<pdfrwt beam="2">  1       -2 0.12391321E-01 0.47134465E+03</pdfrwt>
<totfact> 0.24087392E+03</totfact>
</mgrwt>
</event>
<event>
 4    1  0.5531008E-005  0.5483287E+03  0.7818608E-02  0.1001882E+00
          2   -1    0    0  501    0  0.00000000000E+00  0.00000000000E+00  0.13085808901E+04  0.13085808901E+04  0.25500000000E-02 0.  1.
         -2   -1    0    0    0  501 -0.00000000000E+00 -0.00000000000E+00 -0.57440923332E+02  0.57440923388E+02  0.25500000000E-02 0. -1.
    5000001    1    1    2    0    0 -0.92599327602E+02 -0.23775773407E+02  0.13484398628E+03  0.23355475484E+03  0.16500000000E+03 0.  0.
   -5000001    1    1    2    0    0  0.92599327602E+02  0.23775773407E+02  0.11162959805E+04  0.11324670587E+04  0.16500000000E+03 0.  0.
<mgrwt>
<rscale>  0 0.54832871E+03</rscale>
<asrwt>0</asrwt>
<pdfrwt beam="1">  1        2 0.18694015E+00 0.54832871E+03</pdfrwt>
<pdfrwt beam="2">  1       -2 0.82058453E-02 0.54832871E+03</pdfrwt>
<totfact> 0.17717433E+03</totfact>
</mgrwt>
</event>
<event>
 4    1  0.5531008E-005  0.5373446E+03  0.7818608E-02  0.1004466E+00
         -2   -1    0    0    0  501 -0.00000000000E+00  0.00000000000E+00  0.66618028795E+02  0.66618028844E+02  0.25500000000E-02 0. -1.
          2   -1    0    0  501    0  0.00000000000E+00 -0.00000000000E+00 -0.10835627505E+04  0.10835627505E+04  0.25500000000E-02 0.  1.
    5000001    1    1    2    0    0  0.18650141546E+03  0.64295434244E+02 -0.34207582161E+03  0.42796909768E+03  0.16500000000E+03 0.  0.
   -5000001    1    1    2    0    0 -0.18650141546E+03 -0.64295434244E+02 -0.67486890013E+03  0.72221168171E+03  0.16500000000E+03 0.  0.
<mgrwt>
<rscale>  0 0.53734464E+03</rscale>
<asrwt>0</asrwt>
<pdfrwt beam="1">  1        2 0.15479467E+00 0.53734464E+03</pdfrwt>
<pdfrwt beam="2">  1       -2 0.95168619E-02 0.53734464E+03</pdfrwt>
<totfact> 0.18681199E+03</totfact>
</mgrwt>
</event>
<event>
 4    1  0.5531008E-005  0.4530396E+03  0.7818608E-02  0.1026819E+00
         -2   -1    0    0    0  501 -0.00000000000E+00  0.00000000000E+00  0.11314119559E+03  0.11314119562E+03  0.25500000000E-02 0. -1.
          2   -1    0    0  501    0  0.00000000000E+00 -0.00000000000E+00 -0.45351488942E+03  0.45351488942E+03  0.25500000000E-02 0.  1.
    5000001    1    1    2    0    0 -0.11879375285E+03  0.98643602669E+02 -0.15066091185E+03  0.27159938590E+03  0.16500000000E+03 0.  0.
   -5000001    1    1    2    0    0  0.11879375285E+03 -0.98643602669E+02 -0.18971278197E+03  0.29505669914E+03  0.16500000000E+03 0.  0.
<mgrwt>
<rscale>  0 0.45303959E+03</rscale>
<asrwt>0</asrwt>
<pdfrwt beam="1">  1        2 0.64787840E-01 0.45303959E+03</pdfrwt>
<pdfrwt beam="2">  1       -2 0.16163028E-01 0.45303959E+03</pdfrwt>
<totfact> 0.22963144E+03</totfact>
</mgrwt>
</event>
<event>
 4    1  0.5531008E-005  0.4312271E+03  0.7818608E-02  0.1033473E+00
          2   -1    0    0  501    0  0.00000000000E+00  0.00000000000E+00  0.53636209557E+03  0.53636209558E+03  0.25500000000E-02 0.  1.
         -2   -1    0    0    0  501 -0.00000000000E+00 -0.00000000000E+00 -0.86675017457E+02  0.86675017495E+02  0.25500000000E-02 0. -1.
    5000001    1    1    2    0    0  0.12366624376E+03 -0.37351031190E+02  0.15151717370E+03  0.25859407051E+03  0.16500000000E+03 0.  0.
   -5000001    1    1    2    0    0 -0.12366624376E+03  0.37351031190E+02  0.29816990441E+03  0.36444304256E+03  0.16500000000E+03 0.  0.
<mgrwt>
<rscale>  0 0.43122706E+03</rscale>
<asrwt>0</asrwt>
<pdfrwt beam="1">  1        2 0.76623159E-01 0.43122706E+03</pdfrwt>
<pdfrwt beam="2">  1       -2 0.12382145E-01 0.43122706E+03</pdfrwt>
<totfact> 0.29590988E+03</totfact>
</mgrwt>
</event>
<event>
 4    1  0.5531008E-005  0.4720733E+03  0.7818608E-02  0.1021337E+00
          2   -1    0    0  501    0  0.00000000000E+00  0.00000000000E+00  0.11674881559E+03  0.11674881561E+03  0.25500000000E-02 0.  1.
         -2   -1    0    0    0  501 -0.00000000000E+00 -0.00000000000E+00 -0.47720664845E+03  0.47720664845E+03  0.25500000000E-02 0. -1.
    5000001    1    1    2    0    0 -0.68207738139E+02  0.66653661150E+02 -0.50143070794E+01  0.19064403836E+03  0.16500000000E+03 0.  0.
   -5000001    1    1    2    0    0  0.68207738139E+02 -0.66653661150E+02 -0.35544352578E+03  0.40331142571E+03  0.16500000000E+03 0.  0.
<mgrwt>
<rscale>  0 0.47207335E+03</rscale>
<asrwt>0</asrwt>
<pdfrwt beam="1">  1        2 0.16678402E-01 0.47207335E+03</pdfrwt>
<pdfrwt beam="2">  1       -2 0.68172378E-01 0.47207335E+03</pdfrwt>
<totfact> 0.69853143E+02</totfact>
</mgrwt>
</event>
<event>
 4    1  0.5531008E-005  0.4314848E+03  0.7818608E-02  0.1033392E+00
          2   -1    0    0  501    0  0.00000000000E+00  0.00000000000E+00  0.26034557396E+03  0.26034557397E+03  0.25500000000E-02 0.  1.
         -2   -1    0    0    0  501 -0.00000000000E+00 -0.00000000000E+00 -0.17878074088E+03  0.17878074090E+03  0.25500000000E-02 0. -1.
    5000001    1    1    2    0    0  0.28083496005E+02  0.12448948361E+03  0.96834680898E+02  0.22997449794E+03  0.16500000000E+03 0.  0.
   -5000001    1    1    2    0    0 -0.28083496005E+02 -0.12448948361E+03 -0.15269847822E+02  0.20915181694E+03  0.16500000000E+03 0.  0.
<mgrwt>
<rscale>  0 0.43148476E+03</rscale>
<asrwt>0</asrwt>
<pdfrwt beam="1">  1        2 0.37192225E-01 0.43148476E+03</pdfrwt>
<pdfrwt beam="2">  1       -2 0.25540106E-01 0.43148476E+03</pdfrwt>
<totfact> 0.19089183E+03</totfact>
</mgrwt>
</event>
<event>
 4    1  0.5531008E-005  0.4388163E+03  0.7818608E-02  0.1031111E+00
          2   -1    0    0  501    0  0.00000000000E+00  0.00000000000E+00  0.73302679862E+02  0.73302679907E+02  0.25500000000E-02 0.  1.
         -2   -1    0    0    0  501 -0.00000000000E+00 -0.00000000000E+00 -0.65672831683E+03  0.65672831683E+03  0.25500000000E-02 0. -1.
    5000001    1    1    2    0    0  0.67533014472E+02  0.11868082023E+03 -0.37096028156E+03  0.42834842783E+03  0.16500000000E+03 0.  0.
   -5000001    1    1    2    0    0 -0.67533014472E+02 -0.11868082023E+03 -0.21246535540E+03  0.30168256890E+03  0.16500000000E+03 0.  0.
<mgrwt>
<rscale>  0 0.43881634E+03</rscale>
<asrwt>0</asrwt>
<pdfrwt beam="1">  1        2 0.10471812E-01 0.43881634E+03</pdfrwt>
<pdfrwt beam="2">  1       -2 0.93818327E-01 0.43881634E+03</pdfrwt>
<totfact> 0.60553983E+02</totfact>
</mgrwt>
</event>
<event>
 4    1  0.5531008E-005  0.4103019E+03  0.7818608E-02  0.1040270E+00
          2   -1    0    0  501    0  0.00000000000E+00  0.00000000000E+00  0.33811701170E+04  0.33811701170E+04  0.25500000000E-02 0.  1.
         -2   -1    0    0    0  501 -0.00000000000E+00 -0.00000000000E+00 -0.12447437342E+02  0.12447437603E+02  0.25500000000E-02 0. -1.
    5000001    1    1    2    0    0  0.86521582800E+02  0.37410779994E+02  0.23237685518E+04  0.23315254305E+04  0.16500000000E+03 0.  0.
   -5000001    1    1    2    0    0 -0.86521582800E+02 -0.37410779994E+02  0.10449541279E+04  0.10620921242E+04  0.16500000000E+03 0.  0.
<mgrwt>
<rscale>  0 0.41030186E+03</rscale>
<asrwt>0</asrwt>
<pdfrwt beam="1">  1        2 0.48302375E+00 0.41030186E+03</pdfrwt>
<pdfrwt beam="2">  1       -2 0.17782074E-02 0.41030186E+03</pdfrwt>
<totfact> 0.15501146E+03</totfact>
</mgrwt>
</event>
<event>
 4    1  0.5531008E-005  0.5914857E+03  0.7818608E-02  0.9923230E-01
         -2   -1    0    0    0  501 -0.00000000000E+00  0.00000000000E+00  0.57616024038E+02  0.57616024095E+02  0.25500000000E-02 0. -1.
          2   -1    0    0  501    0  0.00000000000E+00 -0.00000000000E+00 -0.15180470013E+04  0.15180470013E+04  0.25500000000E-02 0.  1.
    5000001    1    1    2    0    0  0.79954617289E+02  0.13395571199E+02 -0.11309304485E+03  0.21584072588E+03  0.16500000000E+03 0.  0.
   -5000001    1    1    2    0    0 -0.79954617289E+02 -0.13395571199E+02 -0.13473379324E+04  0.13598222995E+04  0.16500000000E+03 0.  0.
<mgrwt>
<rscale>  0 0.59148570E+03</rscale>
<asrwt>0</asrwt>
<pdfrwt beam="1">  1        2 0.21686383E+00 0.59148570E+03</pdfrwt>
<pdfrwt beam="2">  1       -2 0.82308615E-02 0.59148570E+03</pdfrwt>
<totfact> 0.13643228E+03</totfact>
</mgrwt>
</event>
<event>
 4    1  0.5531008E-005  0.3790491E+03  0.7818608E-02  0.1051286E+00
          2   -1    0    0  501    0  0.00000000000E+00  0.00000000000E+00  0.20709926196E+04  0.20709926196E+04  0.25500000000E-02 0.  1.
         -2   -1    0    0    0  501 -0.00000000000E+00 -0.00000000000E+00 -0.17344120425E+02  0.17344120613E+02  0.25500000000E-02 0. -1.
    5000001    1    1    2    0    0 -0.72135097383E+02  0.55882711091E+02  0.11325411937E+04  0.11481293068E+04  0.16500000000E+03 0.  0.
   -5000001    1    1    2    0    0  0.72135097383E+02 -0.55882711091E+02  0.92110730543E+03  0.94020743338E+03  0.16500000000E+03 0.  0.
<mgrwt>
<rscale>  0 0.37904905E+03</rscale>
<asrwt>0</asrwt>
<pdfrwt beam="1">  1        2 0.29585619E+00 0.37904905E+03</pdfrwt>
<pdfrwt beam="2">  1       -2 0.24777306E-02 0.37904905E+03</pdfrwt>
<totfact> 0.45892388E+03</totfact>
</mgrwt>
</event>
<event>
 4    1  0.5531008E-005  0.3972168E+03  0.7818608E-02  0.1044748E+00
         -2   -1    0    0    0  501 -0.00000000000E+00  0.00000000000E+00  0.62090094089E+02  0.62090094141E+02  0.25500000000E-02 0. -1.
          2   -1    0    0  501    0  0.00000000000E+00 -0.00000000000E+00 -0.63529139822E+03  0.63529139823E+03  0.25500000000E-02 0.  1.
    5000001    1    1    2    0    0 -0.54790211492E+02 -0.95867593449E+02 -0.29584754211E+03  0.35629107612E+03  0.16500000000E+03 0.  0.
   -5000001    1    1    2    0    0  0.54790211492E+02  0.95867593449E+02 -0.27735376202E+03  0.34109041625E+03  0.16500000000E+03 0.  0.
<mgrwt>
<rscale>  0 0.39721683E+03</rscale>
<asrwt>0</asrwt>
<pdfrwt beam="1">  1        2 0.90755910E-01 0.39721683E+03</pdfrwt>
<pdfrwt beam="2">  1       -2 0.88700138E-02 0.39721683E+03</pdfrwt>
<totfact> 0.41630780E+03</totfact>
</mgrwt>
</event>
<event>
 4    1  0.5531008E-005  0.4148176E+03  0.7818608E-02  0.1038766E+00
          2   -1    0    0  501    0  0.00000000000E+00  0.00000000000E+00  0.11985488088E+04  0.11985488088E+04  0.25500000000E-02 0.  1.
         -2   -1    0    0    0  501 -0.00000000000E+00 -0.00000000000E+00 -0.35892085054E+02  0.35892085145E+02  0.25500000000E-02 0. -1.
    5000001    1    1    2    0    0 -0.50853718804E+02 -0.10791967299E+03  0.46376631152E+03  0.50649476625E+03  0.16500000000E+03 0.  0.
   -5000001    1    1    2    0    0  0.50853718804E+02  0.10791967299E+03  0.69889041221E+03  0.72794612769E+03  0.16500000000E+03 0.  0.
<mgrwt>
<rscale>  0 0.41481763E+03</rscale>
<asrwt>0</asrwt>
<pdfrwt beam="1">  1        2 0.17122126E+00 0.41481763E+03</pdfrwt>
<pdfrwt beam="2">  1       -2 0.51274407E-02 0.41481763E+03</pdfrwt>
<totfact> 0.42505691E+03</totfact>
</mgrwt>
</event>
<event>
 4    1  0.5531008E-005  0.4034365E+03  0.7818608E-02  0.1042596E+00
         -2   -1    0    0    0  501 -0.00000000000E+00  0.00000000000E+00  0.22020772826E+03  0.22020772827E+03  0.25500000000E-02 0. -1.
          2   -1    0    0  501    0  0.00000000000E+00 -0.00000000000E+00 -0.18478121186E+03  0.18478121187E+03  0.25500000000E-02 0.  1.
    5000001    1    1    2    0    0 -0.11132250032E+02 -0.43565047076E+02  0.12509877803E+03  0.21188804728E+03  0.16500000000E+03 0.  0.
   -5000001    1    1    2    0    0  0.11132250032E+02  0.43565047076E+02 -0.89672261630E+02  0.19310089286E+03  0.16500000000E+03 0.  0.
<mgrwt>
<rscale>  0 0.40343649E+03</rscale>
<asrwt>0</asrwt>
<pdfrwt beam="1">  1        2 0.26397316E-01 0.40343649E+03</pdfrwt>
<pdfrwt beam="2">  1       -2 0.31458247E-01 0.40343649E+03</pdfrwt>
<totfact> 0.19108044E+03</totfact>
</mgrwt>
</event>
<event>
 4    1  0.5531008E-005  0.7596090E+03  0.7818608E-02  0.9620395E-01
         -2   -1    0    0    0  501 -0.00000000000E+00  0.00000000000E+00  0.13294679094E+03  0.13294679096E+03  0.25500000000E-02 0. -1.
          2   -1    0    0  501    0  0.00000000000E+00 -0.00000000000E+00 -0.10850315423E+04  0.10850315423E+04  0.25500000000E-02 0.  1.
    5000001    1    1    2    0    0 -0.15107923217E+03 -0.30264960740E+03 -0.39420874036E+03  0.54502041267E+03  0.16500000000E+03 0.  0.
   -5000001    1    1    2    0    0  0.15107923217E+03  0.30264960740E+03 -0.55787601102E+03  0.67295792062E+03  0.16500000000E+03 0.  0.
<mgrwt>
<rscale>  0 0.75960901E+03</rscale>
<asrwt>0</asrwt>
<pdfrwt beam="1">  1        2 0.15500450E+00 0.75960901E+03</pdfrwt>
<pdfrwt beam="2">  1       -2 0.18992399E-01 0.75960901E+03</pdfrwt>
<totfact> 0.58479152E+02</totfact>
</mgrwt>
</event>
<event>
 4    1  0.5531008E-005  0.3761144E+03  0.7818608E-02  0.1052379E+00
          2   -1    0    0  501    0  0.00000000000E+00  0.00000000000E+00  0.90115763059E+03  0.90115763060E+03  0.25500000000E-02 0.  1.
         -2   -1    0    0    0  501 -0.00000000000E+00 -0.00000000000E+00 -0.39244527238E+02  0.39244527321E+02  0.25500000000E-02 0. -1.
    5000001    1    1    2    0    0 -0.54710276577E+02 -0.55044604762E+02  0.54600832890E+03  0.57565025676E+03  0.16500000000E+03 0.  0.
   -5000001    1    1    2    0    0  0.54710276577E+02  0.55044604762E+02  0.31590477445E+03  0.36475190116E+03  0.16500000000E+03 0.  0.
<mgrwt>
<rscale>  0 0.37611437E+03</rscale>
<asrwt>0</asrwt>
<pdfrwt beam="1">  1        2 0.12873682E+00 0.37611437E+03</pdfrwt>
<pdfrwt beam="2">  1       -2 0.56063603E-02 0.37611437E+03</pdfrwt>
<totfact> 0.55326210E+03</totfact>
</mgrwt>
</event>
<event>
 4    1  0.5531008E-005  0.4800220E+03  0.7818608E-02  0.1019129E+00
          2   -1    0    0  501    0  0.00000000000E+00  0.00000000000E+00  0.14645476502E+03  0.14645476504E+03  0.25500000000E-02 0.  1.
         -2   -1    0    0    0  501 -0.00000000000E+00 -0.00000000000E+00 -0.39333150719E+03  0.39333150720E+03  0.25500000000E-02 0. -1.
    5000001    1    1    2    0    0 -0.94714114737E+02 -0.22120031494E+02  0.39207776589E+02  0.19550526609E+03  0.16500000000E+03 0.  0.
   -5000001    1    1    2    0    0  0.94714114737E+02  0.22120031494E+02 -0.28608451876E+03  0.34428100615E+03  0.16500000000E+03 0.  0.
<mgrwt>
<rscale>  0 0.48002197E+03</rscale>
<asrwt>0</asrwt>
<pdfrwt beam="1">  1        2 0.20922109E-01 0.48002197E+03</pdfrwt>
<pdfrwt beam="2">  1       -2 0.56190215E-01 0.48002197E+03</pdfrwt>
<totfact> 0.80463599E+02</totfact>
</mgrwt>
</event>
<event>
 4    1  0.5531008E-005  0.1046258E+04  0.7818608E-02  0.9259216E-01
          2   -1    0    0  501    0  0.00000000000E+00  0.00000000000E+00  0.91260971319E+03  0.91260971319E+03  0.25500000000E-02 0.  1.
         -2   -1    0    0    0  501 -0.00000000000E+00 -0.00000000000E+00 -0.29986982646E+03  0.29986982648E+03  0.25500000000E-02 0. -1.
    5000001    1    1    2    0    0 -0.18040033406E+03 -0.42157291156E+03  0.52677240964E+03  0.71762258315E+03  0.16500000000E+03 0.  0.
   -5000001    1    1    2    0    0  0.18040033406E+03  0.42157291156E+03  0.85967477077E+02  0.49485695651E+03  0.16500000000E+03 0.  0.
<mgrwt>
<rscale>  0 0.10462583E+04</rscale>
<asrwt>0</asrwt>
<pdfrwt beam="1">  1        2 0.13037282E+00 0.10462583E+04</pdfrwt>
<pdfrwt beam="2">  1       -2 0.42838547E-01 0.10462583E+04</pdfrwt>
<totfact> 0.16399336E+02</totfact>
</mgrwt>
</event>
<event>
 4    1  0.5531008E-005  0.4569618E+03  0.7818608E-02  0.1025666E+00
          2   -1    0    0  501    0  0.00000000000E+00  0.00000000000E+00  0.57465856541E+03  0.57465856542E+03  0.25500000000E-02 0.  1.
         -2   -1    0    0    0  501 -0.00000000000E+00 -0.00000000000E+00 -0.90842665702E+02  0.90842665738E+02  0.25500000000E-02 0. -1.
    5000001    1    1    2    0    0 -0.13337415705E+03 -0.57489279798E+02  0.15113526896E+03  0.26675935332E+03  0.16500000000E+03 0.  0.
   -5000001    1    1    2    0    0  0.13337415705E+03  0.57489279798E+02  0.33268063075E+03  0.39874187783E+03  0.16500000000E+03 0.  0.
<mgrwt>
<rscale>  0 0.45696178E+03</rscale>
<asrwt>0</asrwt>
<pdfrwt beam="1">  1        2 0.82094081E-01 0.45696178E+03</pdfrwt>
<pdfrwt beam="2">  1       -2 0.12977524E-01 0.45696178E+03</pdfrwt>
<totfact> 0.25327318E+03</totfact>
</mgrwt>
</event>
<event>
 4    1  0.5531008E-005  0.7119084E+03  0.7818608E-02  0.9697081E-01
         -2   -1    0    0    0  501 -0.00000000000E+00  0.00000000000E+00  0.10299035292E+03  0.10299035295E+03  0.25500000000E-02 0. -1.
          2   -1    0    0  501    0  0.00000000000E+00 -0.00000000000E+00 -0.12302452105E+04  0.12302452105E+04  0.25500000000E-02 0.  1.
    5000001    1    1    2    0    0  0.26883591207E+03  0.11410885745E+03 -0.34058138081E+03  0.47803164740E+03  0.16500000000E+03 0.  0.
   -5000001    1    1    2    0    0 -0.26883591207E+03 -0.11410885745E+03 -0.78667347673E+03  0.85520391601E+03  0.16500000000E+03 0.  0.
<mgrwt>
<rscale>  0 0.71190839E+03</rscale>
<asrwt>0</asrwt>
<pdfrwt beam="1">  1        2 0.17574931E+00 0.71190839E+03</pdfrwt>
<pdfrwt beam="2">  1       -2 0.14712908E-01 0.71190839E+03</pdfrwt>
<totfact> 0.74855981E+02</totfact>
</mgrwt>
</event>
<event>
 4    1  0.5531008E-005  0.6937574E+03  0.7818608E-02  0.9727968E-01
          2   -1    0    0  501    0  0.00000000000E+00  0.00000000000E+00  0.67982783095E+03  0.67982783095E+03  0.25500000000E-02 0.  1.
         -2   -1    0    0    0  501 -0.00000000000E+00 -0.00000000000E+00 -0.17699308309E+03  0.17699308311E+03  0.25500000000E-02 0. -1.
    5000001    1    1    2    0    0  0.20716166169E+03 -0.20767798690E+03  0.14769041140E+03  0.36753715178E+03  0.16500000000E+03 0.  0.
   -5000001    1    1    2    0    0 -0.20716166169E+03  0.20767798690E+03  0.35514433646E+03  0.48928376229E+03  0.16500000000E+03 0.  0.
<mgrwt>
<rscale>  0 0.69375737E+03</rscale>
<asrwt>0</asrwt>
<pdfrwt beam="1">  1        2 0.97118263E-01 0.69375737E+03</pdfrwt>
<pdfrwt beam="2">  1       -2 0.25284726E-01 0.69375737E+03</pdfrwt>
<totfact> 0.65757486E+02</totfact>
</mgrwt>
</event>
<event>
 4    1  0.5531008E-005  0.5048415E+03  0.7818608E-02  0.1012523E+00
         -2   -1    0    0    0  501 -0.00000000000E+00  0.00000000000E+00  0.30445398650E+02  0.30445398757E+02  0.25500000000E-02 0. -1.
          2   -1    0    0  501    0  0.00000000000E+00 -0.00000000000E+00 -0.20928036931E+04  0.20928036931E+04  0.25500000000E-02 0.  1.
    5000001    1    1    2    0    0  0.10809604977E+03 -0.15676554612E+03 -0.96724994917E+03  0.99952871724E+03  0.16500000000E+03 0.  0.
   -5000001    1    1    2    0    0 -0.10809604977E+03  0.15676554612E+03 -0.10951083453E+04  0.11237203747E+04  0.16500000000E+03 0.  0.
<mgrwt>
<rscale>  0 0.50484153E+03</rscale>
<asrwt>0</asrwt>
<pdfrwt beam="1">  1        2 0.29897187E+00 0.50484153E+03</pdfrwt>
<pdfrwt beam="2">  1       -2 0.43493440E-02 0.50484153E+03</pdfrwt>
<totfact> 0.19021032E+03</totfact>
</mgrwt>
</event>
<event>
 4    1  0.5531008E-005  0.4465111E+03  0.7818608E-02  0.1028768E+00
         -2   -1    0    0    0  501 -0.00000000000E+00  0.00000000000E+00  0.10532247051E+03  0.10532247054E+03  0.25500000000E-02 0. -1.
          2   -1    0    0  501    0  0.00000000000E+00 -0.00000000000E+00 -0.47324230005E+03  0.47324230006E+03  0.25500000000E-02 0.  1.
    5000001    1    1    2    0    0 -0.12670982863E+03  0.64606981547E+02 -0.12063247889E+03  0.24901132042E+03  0.16500000000E+03 0.  0.
   -5000001    1    1    2    0    0  0.12670982863E+03 -0.64606981547E+02 -0.24728735065E+03  0.32955345018E+03  0.16500000000E+03 0.  0.
<mgrwt>
<rscale>  0 0.44651113E+03</rscale>
<asrwt>0</asrwt>
<pdfrwt beam="1">  1        2 0.67606042E-01 0.44651113E+03</pdfrwt>
<pdfrwt beam="2">  1       -2 0.15046067E-01 0.44651113E+03</pdfrwt>
<totfact> 0.24692537E+03</totfact>
</mgrwt>
</event>
<event>
 4    1  0.5531008E-005  0.3597739E+03  0.7818608E-02  0.1058673E+00
         -2   -1    0    0    0  501 -0.00000000000E+00  0.00000000000E+00  0.76192279161E+02  0.76192279203E+02  0.25500000000E-02 0. -1.
          2   -1    0    0  501    0  0.00000000000E+00 -0.00000000000E+00 -0.42470600003E+03  0.42470600004E+03  0.25500000000E-02 0.  1.
    5000001    1    1    2    0    0  0.23227568321E+01 -0.69504937654E+02 -0.15022329471E+03  0.23372712686E+03  0.16500000000E+03 0.  0.
   -5000001    1    1    2    0    0 -0.23227568321E+01  0.69504937654E+02 -0.19829042616E+03  0.26717115238E+03  0.16500000000E+03 0.  0.
<mgrwt>
<rscale>  0 0.35977392E+03</rscale>
<asrwt>0</asrwt>
<pdfrwt beam="1">  1        2 0.60672285E-01 0.35977392E+03</pdfrwt>
<pdfrwt beam="2">  1       -2 0.10884612E-01 0.35977392E+03</pdfrwt>
<totfact> 0.47175379E+03</totfact>
</mgrwt>
</event>
<event>
 4    1  0.5531008E-005  0.5074477E+03  0.7818608E-02  0.1011853E+00
         -2   -1    0    0    0  501 -0.00000000000E+00  0.00000000000E+00  0.23689001268E+02  0.23689001405E+02  0.25500000000E-02 0. -1.
          2   -1    0    0  501    0  0.00000000000E+00 -0.00000000000E+00 -0.27175388116E+04  0.27175388116E+04  0.25500000000E-02 0.  1.
    5000001    1    1    2    0    0  0.77321667395E+02  0.14425077640E+03 -0.79698590590E+03  0.83017977628E+03  0.16500000000E+03 0.  0.
   -5000001    1    1    2    0    0 -0.77321667395E+02 -0.14425077640E+03 -0.18968639045E+04  0.19110480368E+04  0.16500000000E+03 0.  0.
<mgrwt>
<rscale>  0 0.50744765E+03</rscale>
<asrwt>0</asrwt>
<pdfrwt beam="1">  1        2 0.38821963E+00 0.50744765E+03</pdfrwt>
<pdfrwt beam="2">  1       -2 0.33841448E-02 0.50744765E+03</pdfrwt>
<totfact> 0.13440102E+03</totfact>
</mgrwt>
</event>
<event>
 4    1  0.5531008E-005  0.4804306E+03  0.7818608E-02  0.1019017E+00
         -2   -1    0    0    0  501 -0.00000000000E+00  0.00000000000E+00  0.14755861394E+03  0.14755861396E+03  0.25500000000E-02 0. -1.
          2   -1    0    0  501    0  0.00000000000E+00 -0.00000000000E+00 -0.39105396914E+03  0.39105396915E+03  0.25500000000E-02 0.  1.
    5000001    1    1    2    0    0  0.11421659608E+03 -0.82230070437E+02 -0.23755921107E+03  0.32166223600E+03  0.16500000000E+03 0.  0.
   -5000001    1    1    2    0    0 -0.11421659608E+03  0.82230070437E+02 -0.59361441292E+01  0.21695034711E+03  0.16500000000E+03 0.  0.
<mgrwt>
<rscale>  0 0.48043056E+03</rscale>
<asrwt>0</asrwt>
<pdfrwt beam="1">  1        2 0.55864852E-01 0.48043056E+03</pdfrwt>
<pdfrwt beam="2">  1       -2 0.21079802E-01 0.48043056E+03</pdfrwt>
<totfact> 0.17166921E+03</totfact>
</mgrwt>
</event>
<event>
 4    1  0.5531008E-005  0.4200232E+03  0.7818608E-02  0.1037059E+00
          2   -1    0    0  501    0  0.00000000000E+00  0.00000000000E+00  0.12399284103E+04  0.12399284104E+04  0.25500000000E-02 0.  1.
         -2   -1    0    0    0  501 -0.00000000000E+00 -0.00000000000E+00 -0.35570507104E+02  0.35570507196E+02  0.25500000000E-02 0. -1.
    5000001    1    1    2    0    0  0.12216743337E+03  0.43949849956E+02  0.61687225838E+03  0.65162324563E+03  0.16500000000E+03 0.  0.
   -5000001    1    1    2    0    0 -0.12216743337E+03 -0.43949849956E+02  0.58748564486E+03  0.62387567191E+03  0.16500000000E+03 0.  0.
<mgrwt>
<rscale>  0 0.42002325E+03</rscale>
<asrwt>0</asrwt>
<pdfrwt beam="1">  1        2 0.17713264E+00 0.42002325E+03</pdfrwt>
<pdfrwt beam="2">  1       -2 0.50815007E-02 0.42002325E+03</pdfrwt>
<totfact> 0.40904830E+03</totfact>
</mgrwt>
</event>
<event>
 4    1  0.5531008E-005  0.9109066E+03  0.7818608E-02  0.9412049E-01
          2   -1    0    0  501    0  0.00000000000E+00  0.00000000000E+00  0.40478673199E+03  0.40478673199E+03  0.25500000000E-02 0.  1.
         -2   -1    0    0    0  501 -0.00000000000E+00 -0.00000000000E+00 -0.51246172940E+03  0.51246172940E+03  0.25500000000E-02 0. -1.
    5000001    1    1    2    0    0  0.28985864269E+03  0.29814685182E+03  0.32215831171E+02  0.44852250531E+03  0.16500000000E+03 0.  0.
   -5000001    1    1    2    0    0 -0.28985864269E+03 -0.29814685182E+03 -0.13989082858E+03  0.46872595609E+03  0.16500000000E+03 0.  0.
<mgrwt>
<rscale>  0 0.91090660E+03</rscale>
<asrwt>0</asrwt>
<pdfrwt beam="1">  1        2 0.57826676E-01 0.91090660E+03</pdfrwt>
<pdfrwt beam="2">  1       -2 0.73208819E-01 0.91090660E+03</pdfrwt>
<totfact> 0.14424583E+02</totfact>
</mgrwt>
</event>
<event>
 4    1  0.5531008E-005  0.4871844E+03  0.7818608E-02  0.1017179E+00
         -2   -1    0    0    0  501 -0.00000000000E+00  0.00000000000E+00  0.64941077186E+03  0.64941077187E+03  0.25500000000E-02 0. -1.
          2   -1    0    0  501    0  0.00000000000E+00 -0.00000000000E+00 -0.91370776692E+02  0.91370776728E+02  0.25500000000E-02 0.  1.
    5000001    1    1    2    0    0 -0.17706637946E+03 -0.27137313263E+02  0.28634862323E+03  0.37591151956E+03  0.16500000000E+03 0.  0.
   -5000001    1    1    2    0    0  0.17706637946E+03  0.27137313263E+02  0.27169137194E+03  0.36487002904E+03  0.16500000000E+03 0.  0.
<mgrwt>
<rscale>  0 0.48718443E+03</rscale>
<asrwt>0</asrwt>
<pdfrwt beam="1">  1        2 0.13052968E-01 0.48718443E+03</pdfrwt>
<pdfrwt beam="2">  1       -2 0.92772970E-01 0.48718443E+03</pdfrwt>
<totfact> 0.47283903E+02</totfact>
</mgrwt>
</event>
<event>
 4    1  0.5531008E-005  0.8206958E+03  0.7818608E-02  0.9530535E-01
          2   -1    0    0  501    0  0.00000000000E+00  0.00000000000E+00  0.31595856067E+03  0.31595856068E+03  0.25500000000E-02 0.  1.
         -2   -1    0    0    0  501 -0.00000000000E+00 -0.00000000000E+00 -0.53293512492E+03  0.53293512493E+03  0.25500000000E-02 0. -1.
    5000001    1    1    2    0    0 -0.24526180591E+03  0.17901965684E+03  0.12038096848E+03  0.36594804078E+03  0.16500000000E+03 0.  0.
   -5000001    1    1    2    0    0  0.24526180591E+03 -0.17901965684E+03 -0.33735753273E+03  0.48294564484E+03  0.16500000000E+03 0.  0.
<mgrwt>
<rscale>  0 0.82069584E+03</rscale>
<asrwt>0</asrwt>
<pdfrwt beam="1">  1        2 0.45136938E-01 0.82069584E+03</pdfrwt>
<pdfrwt beam="2">  1       -2 0.76133589E-01 0.82069584E+03</pdfrwt>
<totfact> 0.17501928E+02</totfact>
</mgrwt>
</event>
<event>
 4    1  0.5531008E-005  0.4784330E+03  0.7818608E-02  0.1019567E+00
          2   -1    0    0  501    0  0.00000000000E+00  0.00000000000E+00  0.51042013207E+03  0.51042013207E+03  0.25500000000E-02 0.  1.
         -2   -1    0    0    0  501 -0.00000000000E+00 -0.00000000000E+00 -0.11211259258E+03  0.11211259260E+03  0.25500000000E-02 0. -1.
    5000001    1    1    2    0    0  0.16325954057E+03 -0.22351595444E+02  0.12973485200E+03  0.26685090075E+03  0.16500000000E+03 0.  0.
   -5000001    1    1    2    0    0 -0.16325954057E+03  0.22351595444E+02  0.26857268749E+03  0.35568182393E+03  0.16500000000E+03 0.  0.
<mgrwt>
<rscale>  0 0.47843296E+03</rscale>
<asrwt>0</asrwt>
<pdfrwt beam="1">  1        2 0.72917162E-01 0.47843296E+03</pdfrwt>
<pdfrwt beam="2">  1       -2 0.16016085E-01 0.47843296E+03</pdfrwt>
<totfact> 0.20431326E+03</totfact>
</mgrwt>
</event>
<event>
 4    1  0.5531008E-005  0.8044711E+03  0.7818608E-02  0.9553568E-01
          2   -1    0    0  501    0  0.00000000000E+00  0.00000000000E+00  0.30114526498E+03  0.30114526500E+03  0.25500000000E-02 0.  1.
         -2   -1    0    0    0  501 -0.00000000000E+00 -0.00000000000E+00 -0.53726042943E+03  0.53726042944E+03  0.25500000000E-02 0. -1.
    5000001    1    1    2    0    0  0.32534779224E+03 -0.13499509241E+03 -0.22481682414E+03  0.44926881185E+03  0.16500000000E+03 0.  0.
   -5000001    1    1    2    0    0 -0.32534779224E+03  0.13499509241E+03 -0.11298340302E+02  0.38913688258E+03  0.16500000000E+03 0.  0.
<mgrwt>
<rscale>  0 0.80447109E+03</rscale>
<asrwt>0</asrwt>
<pdfrwt beam="1">  1        2 0.43020752E-01 0.80447109E+03</pdfrwt>
<pdfrwt beam="2">  1       -2 0.76751490E-01 0.80447109E+03</pdfrwt>
<totfact> 0.18143020E+02</totfact>
</mgrwt>
</event>
<event>
 4    1  0.5531008E-005  0.5086127E+03  0.7818608E-02  0.1011555E+00
          2   -1    0    0  501    0  0.00000000000E+00  0.00000000000E+00  0.14285268601E+03  0.14285268603E+03  0.25500000000E-02 0.  1.
         -2   -1    0    0    0  501 -0.00000000000E+00 -0.00000000000E+00 -0.45271620865E+03  0.45271620866E+03  0.25500000000E-02 0. -1.
    5000001    1    1    2    0    0  0.82443116162E+02  0.12661360107E+03 -0.13351905996E+02  0.22412305721E+03  0.16500000000E+03 0.  0.
   -5000001    1    1    2    0    0 -0.82443116162E+02 -0.12661360107E+03 -0.29651161665E+03  0.37144583749E+03  0.16500000000E+03 0.  0.
<mgrwt>
<rscale>  0 0.50861273E+03</rscale>
<asrwt>0</asrwt>
<pdfrwt beam="1">  1        2 0.20407527E-01 0.50861273E+03</pdfrwt>
<pdfrwt beam="2">  1       -2 0.64673743E-01 0.50861273E+03</pdfrwt>
<totfact> 0.61665344E+02</totfact>
</mgrwt>
</event>
<event>
 4    1  0.5531008E-005  0.4655391E+03  0.7818608E-02  0.1023187E+00
         -2   -1    0    0    0  501 -0.00000000000E+00  0.00000000000E+00  0.12451247767E+03  0.12451247770E+03  0.25500000000E-02 0. -1.
          2   -1    0    0  501    0  0.00000000000E+00 -0.00000000000E+00 -0.43515045081E+03  0.43515045081E+03  0.25500000000E-02 0.  1.
    5000001    1    1    2    0    0  0.14465364020E+03 -0.22407585947E+02 -0.24471711954E+03  0.32945142909E+03  0.16500000000E+03 0.  0.
   -5000001    1    1    2    0    0 -0.14465364020E+03  0.22407585947E+02 -0.65920853589E+02  0.23021149943E+03  0.16500000000E+03 0.  0.
<mgrwt>
<rscale>  0 0.46553909E+03</rscale>
<asrwt>0</asrwt>
<pdfrwt beam="1">  1        2 0.62164349E-01 0.46553909E+03</pdfrwt>
<pdfrwt beam="2">  1       -2 0.17787497E-01 0.46553909E+03</pdfrwt>
<totfact> 0.20443013E+03</totfact>
</mgrwt>
</event>
<event>
 4    1  0.5531008E-005  0.5509529E+03  0.7818608E-02  0.1001274E+00
          2   -1    0    0  501    0  0.00000000000E+00  0.00000000000E+00  0.33837969026E+04  0.33837969026E+04  0.25500000000E-02 0. -1.
         -2   -1    0    0    0  501 -0.00000000000E+00 -0.00000000000E+00 -0.22426660769E+02  0.22426660914E+02  0.25500000000E-02 0.  1.
    5000001    1    1    2    0    0  0.20668006638E+03  0.74913039561E+01  0.21551431143E+04  0.21713220886E+04  0.16500000000E+03 0.  0.
   -5000001    1    1    2    0    0 -0.20668006638E+03 -0.74913039561E+01  0.12062271276E+04  0.12349014749E+04  0.16500000000E+03 0.  0.
<mgrwt>
<rscale>  0 0.55095287E+03</rscale>
<asrwt>0</asrwt>
<pdfrwt beam="1">  1        2 0.48339925E+00 0.55095287E+03</pdfrwt>
<pdfrwt beam="2">  1       -2 0.32038108E-02 0.55095287E+03</pdfrwt>
<totfact> 0.62809081E+02</totfact>
</mgrwt>
</event>
<event>
 4    1  0.5531008E-005  0.5190229E+03  0.7818608E-02  0.1008930E+00
         -2   -1    0    0    0  501 -0.00000000000E+00  0.00000000000E+00  0.44121103614E+02  0.44121103688E+02  0.25500000000E-02 0. -1.
          2   -1    0    0  501    0  0.00000000000E+00 -0.00000000000E+00 -0.15263942569E+04  0.15263942569E+04  0.25500000000E-02 0.  1.
    5000001    1    1    2    0    0  0.30654422702E+02 -0.19655254428E+03 -0.81201021190E+03  0.85214915392E+03  0.16500000000E+03 0.  0.
   -5000001    1    1    2    0    0 -0.30654422702E+02  0.19655254428E+03 -0.67026294143E+03  0.71836620671E+03  0.16500000000E+03 0.  0.
<mgrwt>
<rscale>  0 0.51902293E+03</rscale>
<asrwt>0</asrwt>
<pdfrwt beam="1">  1        2 0.21805629E+00 0.51902293E+03</pdfrwt>
<pdfrwt beam="2">  1       -2 0.63030158E-02 0.51902293E+03</pdfrwt>
<totfact> 0.20641114E+03</totfact>
</mgrwt>
</event>
<event>
 4    1  0.5531008E-005  0.4384084E+03  0.7818608E-02  0.1031236E+00
         -2   -1    0    0    0  501 -0.00000000000E+00  0.00000000000E+00  0.38842638729E+02  0.38842638812E+02  0.25500000000E-02 0. -1.
          2   -1    0    0  501    0  0.00000000000E+00 -0.00000000000E+00 -0.12370551962E+04  0.12370551962E+04  0.25500000000E-02 0.  1.
    5000001    1    1    2    0    0 -0.10566885371E+03 -0.98125833496E+02 -0.61528455676E+03  0.65314215270E+03  0.16500000000E+03 0.  0.
   -5000001    1    1    2    0    0  0.10566885371E+03  0.98125833496E+02 -0.58292800071E+03  0.62275568231E+03  0.16500000000E+03 0.  0.
<mgrwt>
<rscale>  0 0.43840843E+03</rscale>
<asrwt>0</asrwt>
<pdfrwt beam="1">  1        2 0.17672215E+00 0.43840843E+03</pdfrwt>
<pdfrwt beam="2">  1       -2 0.55489492E-02 0.43840843E+03</pdfrwt>
<totfact> 0.35846277E+03</totfact>
</mgrwt>
</event>
<event>
 4    1  0.5531008E-005  0.3982176E+03  0.7818608E-02  0.1044399E+00
         -2   -1    0    0    0  501 -0.00000000000E+00  0.00000000000E+00  0.10662131970E+03  0.10662131973E+03  0.25500000000E-02 0. -1.
          2   -1    0    0  501    0  0.00000000000E+00 -0.00000000000E+00 -0.37182349917E+03  0.37182349918E+03  0.25500000000E-02 0.  1.
    5000001    1    1    2    0    0 -0.95481800154E+02 -0.24799979518E+02 -0.70315787565E+02  0.20469763830E+03  0.16500000000E+03 0.  0.
   -5000001    1    1    2    0    0  0.95481800154E+02  0.24799979518E+02 -0.19488639190E+03  0.27374718061E+03  0.16500000000E+03 0.  0.
<mgrwt>
<rscale>  0 0.39821759E+03</rscale>
<asrwt>0</asrwt>
<pdfrwt beam="1">  1        2 0.53117642E-01 0.39821759E+03</pdfrwt>
<pdfrwt beam="2">  1       -2 0.15231617E-01 0.39821759E+03</pdfrwt>
<totfact> 0.31518259E+03</totfact>
</mgrwt>
</event>
<event>
 4    1  0.5531008E-005  0.3590355E+03  0.7818608E-02  0.1058966E+00
          2   -1    0    0  501    0  0.00000000000E+00  0.00000000000E+00  0.11703263587E+04  0.11703263587E+04  0.25500000000E-02 0.  1.
         -2   -1    0    0    0  501 -0.00000000000E+00 -0.00000000000E+00 -0.27536437454E+02  0.27536437572E+02  0.25500000000E-02 0. -1.
    5000001    1    1    2    0    0  0.34178415680E+02 -0.61835578188E+02  0.58184776906E+03  0.60890362882E+03  0.16500000000E+03 0.  0.
   -5000001    1    1    2    0    0 -0.34178415680E+02  0.61835578188E+02  0.56094215213E+03  0.58895916740E+03  0.16500000000E+03 0.  0.
<mgrwt>
<rscale>  0 0.35903548E+03</rscale>
<asrwt>0</asrwt>
<pdfrwt beam="1">  1        2 0.16718946E+00 0.35903548E+03</pdfrwt>
<pdfrwt beam="2">  1       -2 0.39337772E-02 0.35903548E+03</pdfrwt>
<totfact> 0.65920968E+03</totfact>
</mgrwt>
</event>
<event>
 4    1  0.5531008E-005  0.4238941E+03  0.7818608E-02  0.1035806E+00
          2   -1    0    0  501    0  0.00000000000E+00  0.00000000000E+00  0.68490389755E+03  0.68490389755E+03  0.25500000000E-02 0.  1.
         -2   -1    0    0    0  501 -0.00000000000E+00 -0.00000000000E+00 -0.65588113093E+02  0.65588113143E+02  0.25500000000E-02 0. -1.
    5000001    1    1    2    0    0 -0.15861401798E+02 -0.72218739807E+02  0.11386735900E+03  0.21367710661E+03  0.16500000000E+03 0.  0.
   -5000001    1    1    2    0    0  0.15861401798E+02  0.72218739807E+02  0.50544842546E+03  0.53681490408E+03  0.16500000000E+03 0.  0.
<mgrwt>
<rscale>  0 0.42389411E+03</rscale>
<asrwt>0</asrwt>
<pdfrwt beam="1">  1        2 0.97843417E-01 0.42389411E+03</pdfrwt>
<pdfrwt beam="2">  1       -2 0.93697302E-02 0.42389411E+03</pdfrwt>
<totfact> 0.34923828E+03</totfact>
</mgrwt>
</event>
<event>
 4    1  0.5531008E-005  0.6842904E+03  0.7818608E-02  0.9744481E-01
         -2   -1    0    0    0  501 -0.00000000000E+00  0.00000000000E+00  0.76769407925E+02  0.76769407968E+02  0.25500000000E-02 0. -1.
          2   -1    0    0  501    0  0.00000000000E+00 -0.00000000000E+00 -0.15248697933E+04  0.15248697933E+04  0.25500000000E-02 0.  1.
    5000001    1    1    2    0    0  0.19497305155E+03 -0.20240331063E+03 -0.48017122865E+03  0.58031973929E+03  0.16500000000E+03 0.  0.
   -5000001    1    1    2    0    0 -0.19497305155E+03  0.20240331063E+03 -0.96792915677E+03  0.10213194620E+04  0.16500000000E+03 0.  0.
<mgrwt>
<rscale>  0 0.68429044E+03</rscale>
<asrwt>0</asrwt>
<pdfrwt beam="1">  1        2 0.21783852E+00 0.68429044E+03</pdfrwt>
<pdfrwt beam="2">  1       -2 0.10967059E-01 0.68429044E+03</pdfrwt>
<totfact> 0.84768350E+02</totfact>
</mgrwt>
</event>
<event>
 4    1  0.5531008E-005  0.8448854E+03  0.7818608E-02  0.9497227E-01
         -2   -1    0    0    0  501 -0.00000000000E+00  0.00000000000E+00  0.39975318641E+02  0.39975318723E+02  0.25500000000E-02 0. -1.
          2   -1    0    0  501    0  0.00000000000E+00 -0.00000000000E+00 -0.44642007851E+04  0.44642007851E+04  0.25500000000E-02 0.  1.
    5000001    1    1    2    0    0 -0.94699064608E+02  0.25648541959E+03 -0.73779207923E+03  0.80393708428E+03  0.16500000000E+03 0.  0.
   -5000001    1    1    2    0    0  0.94699064608E+02 -0.25648541959E+03 -0.36864333872E+04  0.37002390195E+04  0.16500000000E+03 0.  0.
<mgrwt>
<rscale>  0 0.84488543E+03</rscale>
<asrwt>0</asrwt>
<pdfrwt beam="1">  1        2 0.63774265E+00 0.84488543E+03</pdfrwt>
<pdfrwt beam="2">  1       -2 0.57107627E-02 0.84488543E+03</pdfrwt>
<totfact> 0.47535003E+01</totfact>
</mgrwt>
</event>
<event>
 4    1  0.5531008E-005  0.4861278E+03  0.7818608E-02  0.1017465E+00
         -2   -1    0    0    0  501 -0.00000000000E+00  0.00000000000E+00  0.16030516637E+03  0.16030516639E+03  0.25500000000E-02 0. -1.
          2   -1    0    0  501    0  0.00000000000E+00 -0.00000000000E+00 -0.36854737547E+03  0.36854737548E+03  0.25500000000E-02 0.  1.
    5000001    1    1    2    0    0  0.15280668576E+02  0.16540564791E+03 -0.17514712028E+03  0.29239364038E+03  0.16500000000E+03 0.  0.
   -5000001    1    1    2    0    0 -0.15280668576E+02 -0.16540564791E+03 -0.33095088822E+02  0.23645890149E+03  0.16500000000E+03 0.  0.
<mgrwt>
<rscale>  0 0.48612775E+03</rscale>
<asrwt>0</asrwt>
<pdfrwt beam="1">  1        2 0.52649625E-01 0.48612775E+03</pdfrwt>
<pdfrwt beam="2">  1       -2 0.22900738E-01 0.48612775E+03</pdfrwt>
<totfact> 0.15846325E+03</totfact>
</mgrwt>
</event>
<event>
 4    1  0.5531008E-005  0.5313329E+03  0.7818608E-02  0.1005909E+00
          2   -1    0    0  501    0  0.00000000000E+00  0.00000000000E+00  0.72607115212E+02  0.72607115256E+02  0.25500000000E-02 0.  1.
         -2   -1    0    0    0  501 -0.00000000000E+00 -0.00000000000E+00 -0.97206263058E+03  0.97206263058E+03  0.25500000000E-02 0. -1.
    5000001    1    1    2    0    0  0.26784285164E+02  0.20056152140E+03 -0.35318011383E+03  0.43920782621E+03  0.16500000000E+03 0.  0.
   -5000001    1    1    2    0    0 -0.26784285164E+02 -0.20056152140E+03 -0.54627540153E+03  0.60546191962E+03  0.16500000000E+03 0.  0.
<mgrwt>
<rscale>  0 0.53133290E+03</rscale>
<asrwt>0</asrwt>
<pdfrwt beam="1">  1        2 0.10372446E-01 0.53133290E+03</pdfrwt>
<pdfrwt beam="2">  1       -2 0.13886608E+00 0.53133290E+03</pdfrwt>
<totfact> 0.23631292E+02</totfact>
</mgrwt>
</event>
<event>
 4    1  0.5531008E-005  0.4631446E+03  0.7818608E-02  0.1023873E+00
         -2   -1    0    0    0  501 -0.00000000000E+00  0.00000000000E+00  0.23880672940E+02  0.23880673076E+02  0.25500000000E-02 0. -1.
          2   -1    0    0  501    0  0.00000000000E+00 -0.00000000000E+00 -0.22455701210E+04  0.22455701210E+04  0.25500000000E-02 0.  1.
    5000001    1    1    2    0    0  0.87203355084E+02 -0.59816578288E+02 -0.17153316812E+04  0.17264907254E+04  0.16500000000E+03 0.  0.
   -5000001    1    1    2    0    0 -0.87203355084E+02  0.59816578288E+02 -0.50635776683E+03  0.54296006870E+03  0.16500000000E+03 0.  0.
<mgrwt>
<rscale>  0 0.46314458E+03</rscale>
<asrwt>0</asrwt>
<pdfrwt beam="1">  1        2 0.32079560E+00 0.46314458E+03</pdfrwt>
<pdfrwt beam="2">  1       -2 0.34115262E-02 0.46314458E+03</pdfrwt>
<totfact> 0.23160233E+03</totfact>
</mgrwt>
</event>
<event>
 4    1  0.5531008E-005  0.3732725E+03  0.7818608E-02  0.1053449E+00
         -2   -1    0    0    0  501 -0.00000000000E+00  0.00000000000E+00  0.37814760420E+02  0.37814760506E+02  0.25500000000E-02 0. -1.
          2   -1    0    0  501    0  0.00000000000E+00 -0.00000000000E+00 -0.92115045293E+03  0.92115045293E+03  0.25500000000E-02 0.  1.
    5000001    1    1    2    0    0 -0.62053027407E+02  0.56629280207E+02 -0.38138317631E+03  0.42395233312E+03  0.16500000000E+03 0.  0.
   -5000001    1    1    2    0    0  0.62053027407E+02 -0.56629280207E+02 -0.50195251620E+03  0.53501288032E+03  0.16500000000E+03 0.  0.
<mgrwt>
<rscale>  0 0.37327247E+03</rscale>
<asrwt>0</asrwt>
<pdfrwt beam="1">  1        2 0.13159291E+00 0.37327247E+03</pdfrwt>
<pdfrwt beam="2">  1       -2 0.54021092E-02 0.37327247E+03</pdfrwt>
<totfact> 0.56900299E+03</totfact>
</mgrwt>
</event>
<event>
 4    1  0.5531008E-005  0.8755974E+03  0.7818608E-02  0.9456611E-01
          2   -1    0    0  501    0  0.00000000000E+00  0.00000000000E+00  0.44811858038E+03  0.44811858038E+03  0.25500000000E-02 0.  1.
         -2   -1    0    0    0  501 -0.00000000000E+00 -0.00000000000E+00 -0.42771652557E+03  0.42771652558E+03  0.25500000000E-02 0. -1.
    5000001    1    1    2    0    0  0.20101242918E+03  0.35205482302E+03  0.49647917259E+00  0.43769149133E+03  0.16500000000E+03 0.  0.
   -5000001    1    1    2    0    0 -0.20101242918E+03 -0.35205482302E+03  0.19905575635E+02  0.43814361463E+03  0.16500000000E+03 0.  0.
<mgrwt>
<rscale>  0 0.87559745E+03</rscale>
<asrwt>0</asrwt>
<pdfrwt beam="1">  1        2 0.64016940E-01 0.87559745E+03</pdfrwt>
<pdfrwt beam="2">  1       -2 0.61102361E-01 0.87559745E+03</pdfrwt>
<totfact> 0.19045992E+02</totfact>
</mgrwt>
</event>
<event>
 4    1  0.5531008E-005  0.4043442E+03  0.7818608E-02  0.1042286E+00
         -2   -1    0    0    0  501 -0.00000000000E+00  0.00000000000E+00  0.49419578618E+03  0.49419578619E+03  0.25500000000E-02 0. -1.
          2   -1    0    0  501    0  0.00000000000E+00 -0.00000000000E+00 -0.82707203927E+02  0.82707203966E+02  0.25500000000E-02 0.  1.
    5000001    1    1    2    0    0  0.24602856167E+02 -0.10930096498E+02  0.43545933057E+02  0.17275999487E+03  0.16500000000E+03 0.  0.
   -5000001    1    1    2    0    0 -0.24602856167E+02  0.10930096498E+02  0.36794264920E+03  0.40414299529E+03  0.16500000000E+03 0.  0.
<mgrwt>
<rscale>  0 0.40434417E+03</rscale>
<asrwt>0</asrwt>
<pdfrwt beam="1">  1        2 0.11815314E-01 0.40434417E+03</pdfrwt>
<pdfrwt beam="2">  1       -2 0.70599400E-01 0.40434417E+03</pdfrwt>
<totfact> 0.98288902E+02</totfact>
</mgrwt>
</event>
<event>
 4    1  0.5531008E-005  0.4581916E+03  0.7818608E-02  0.1025307E+00
          2   -1    0    0  501    0  0.00000000000E+00  0.00000000000E+00  0.18653219658E+03  0.18653219660E+03  0.25500000000E-02 0.  1.
         -2   -1    0    0    0  501 -0.00000000000E+00 -0.00000000000E+00 -0.28137171868E+03  0.28137171869E+03  0.25500000000E-02 0. -1.
    5000001    1    1    2    0    0  0.35531303944E+02 -0.15307513142E+03 -0.23137263775E+02  0.22903013425E+03  0.16500000000E+03 0.  0.
   -5000001    1    1    2    0    0 -0.35531303944E+02  0.15307513142E+03 -0.71702258322E+02  0.23887378104E+03  0.16500000000E+03 0.  0.
<mgrwt>
<rscale>  0 0.45819160E+03</rscale>
<asrwt>0</asrwt>
<pdfrwt beam="1">  1        2 0.26647457E-01 0.45819160E+03</pdfrwt>
<pdfrwt beam="2">  1       -2 0.40195959E-01 0.45819160E+03</pdfrwt>
<totfact> 0.11914901E+03</totfact>
</mgrwt>
</event>
<event>
 4    1  0.5531008E-005  0.3780917E+03  0.7818608E-02  0.1051641E+00
          2   -1    0    0  501    0  0.00000000000E+00  0.00000000000E+00  0.46460489825E+02  0.46460489894E+02  0.25500000000E-02 0.  1.
         -2   -1    0    0    0  501 -0.00000000000E+00 -0.00000000000E+00 -0.76921995784E+03  0.76921995784E+03  0.25500000000E-02 0. -1.
    5000001    1    1    2    0    0  0.60109699005E+02 -0.69919541767E+02 -0.35408995327E+03  0.40138088300E+03  0.16500000000E+03 0.  0.
   -5000001    1    1    2    0    0 -0.60109699005E+02  0.69919541767E+02 -0.36866951474E+03  0.41429956473E+03  0.16500000000E+03 0.  0.
<mgrwt>
<rscale>  0 0.37809171E+03</rscale>
<asrwt>0</asrwt>
<pdfrwt beam="1">  1        2 0.66372133E-02 0.37809171E+03</pdfrwt>
<pdfrwt beam="2">  1       -2 0.10988856E+00 0.37809171E+03</pdfrwt>
<totfact> 0.74812264E+02</totfact>
</mgrwt>
</event>
<event>
 4    1  0.5531008E-005  0.3811180E+03  0.7818608E-02  0.1050521E+00
          2   -1    0    0  501    0  0.00000000000E+00  0.00000000000E+00  0.50101265745E+03  0.50101265746E+03  0.25500000000E-02 0. -1.
         -2   -1    0    0    0  501 -0.00000000000E+00 -0.00000000000E+00 -0.72478664279E+02  0.72478664324E+02  0.25500000000E-02 0.  1.
    5000001    1    1    2    0    0  0.91929600705E+02  0.32344592047E+01  0.17661143328E+03  0.25860802690E+03  0.16500000000E+03 0.  0.
   -5000001    1    1    2    0    0 -0.91929600705E+02 -0.32344592047E+01  0.25192255989E+03  0.31488329488E+03  0.16500000000E+03 0.  0.
<mgrwt>
<rscale>  0 0.38111798E+03</rscale>
<asrwt>0</asrwt>
<pdfrwt beam="1">  1        2 0.71573239E-01 0.38111798E+03</pdfrwt>
<pdfrwt beam="2">  1       -2 0.10354095E-01 0.38111798E+03</pdfrwt>
<totfact> 0.42631316E+03</totfact>
</mgrwt>
</event>
<event>
 4    1  0.5531008E-005  0.5263059E+03  0.7818608E-02  0.1007132E+00
          2   -1    0    0  501    0  0.00000000000E+00  0.00000000000E+00  0.49460937488E+04  0.49460937488E+04  0.25500000000E-02 0.  1.
         -2   -1    0    0    0  501 -0.00000000000E+00 -0.00000000000E+00 -0.14000841856E+02  0.14000842088E+02  0.25500000000E-02 0. -1.
    5000001    1    1    2    0    0  0.64947419454E+02 -0.14133909222E+03  0.12076364639E+04  0.12287415250E+04  0.16500000000E+03 0.  0.
   -5000001    1    1    2    0    0 -0.64947419454E+02  0.14133909222E+03  0.37244564430E+04  0.37313530659E+04  0.16500000000E+03 0.  0.
<mgrwt>
<rscale>  0 0.52630591E+03</rscale>
<asrwt>0</asrwt>
<pdfrwt beam="1">  1        2 0.70658762E+00 0.52630591E+03</pdfrwt>
<pdfrwt beam="2">  1       -2 0.20001124E-02 0.52630591E+03</pdfrwt>
<totfact> 0.99018183E+01</totfact>
</mgrwt>
</event>
<event>
 4    1  0.5531008E-005  0.4647138E+03  0.7818608E-02  0.1023423E+00
          2   -1    0    0  501    0  0.00000000000E+00  0.00000000000E+00  0.15912369653E+03  0.15912369655E+03  0.25500000000E-02 0.  1.
         -2   -1    0    0    0  501 -0.00000000000E+00 -0.00000000000E+00 -0.33929407780E+03  0.33929407781E+03  0.25500000000E-02 0. -1.
    5000001    1    1    2    0    0 -0.20389959633E+02  0.12639214803E+03 -0.19932504876E+03  0.28869742050E+03  0.16500000000E+03 0.  0.
   -5000001    1    1    2    0    0  0.20389959633E+02 -0.12639214803E+03  0.19154667493E+02  0.20972035386E+03  0.16500000000E+03 0.  0.
<mgrwt>
<rscale>  0 0.46471380E+03</rscale>
<asrwt>0</asrwt>
<pdfrwt beam="1">  1        2 0.22731957E-01 0.46471380E+03</pdfrwt>
<pdfrwt beam="2">  1       -2 0.48470582E-01 0.46471380E+03</pdfrwt>
<totfact> 0.98773981E+02</totfact>
</mgrwt>
</event>
<event>
 4    1  0.5531008E-005  0.4286184E+03  0.7818608E-02  0.1034297E+00
         -2   -1    0    0    0  501 -0.00000000000E+00  0.00000000000E+00  0.54415348068E+02  0.54415348127E+02  0.25500000000E-02 0. -1.
          2   -1    0    0  501    0  0.00000000000E+00 -0.00000000000E+00 -0.84403462848E+03  0.84403462848E+03  0.25500000000E-02 0.  1.
    5000001    1    1    2    0    0  0.80375055621E+02 -0.10753455755E+03 -0.34016442449E+03  0.40119903580E+03  0.16500000000E+03 0.  0.
   -5000001    1    1    2    0    0 -0.80375055621E+02  0.10753455755E+03 -0.44945485592E+03  0.49725094082E+03  0.16500000000E+03 0.  0.
<mgrwt>
<rscale>  0 0.42861842E+03</rscale>
<asrwt>0</asrwt>
<pdfrwt beam="1">  1        2 0.12057637E+00 0.42861842E+03</pdfrwt>
<pdfrwt beam="2">  1       -2 0.77736216E-02 0.42861842E+03</pdfrwt>
<totfact> 0.36257451E+03</totfact>
</mgrwt>
</event>
<event>
 4    1  0.5531008E-005  0.5686894E+03  0.7818608E-02  0.9972583E-01
         -2   -1    0    0    0  501 -0.00000000000E+00  0.00000000000E+00  0.89922823876E+02  0.89922823912E+02  0.25500000000E-02 0. -1.
          2   -1    0    0  501    0  0.00000000000E+00 -0.00000000000E+00 -0.89912551400E+03  0.89912551401E+03  0.25500000000E-02 0.  1.
    5000001    1    1    2    0    0  0.14858670484E+03  0.16708978780E+03 -0.50938406703E+03  0.58025350821E+03  0.16500000000E+03 0.  0.
   -5000001    1    1    2    0    0 -0.14858670484E+03 -0.16708978780E+03 -0.29981862309E+03  0.40879482971E+03  0.16500000000E+03 0.  0.
<mgrwt>
<rscale>  0 0.56868939E+03</rscale>
<asrwt>0</asrwt>
<pdfrwt beam="1">  1        2 0.12844650E+00 0.56868939E+03</pdfrwt>
<pdfrwt beam="2">  1       -2 0.12846118E-01 0.56868939E+03</pdfrwt>
<totfact> 0.14839888E+03</totfact>
</mgrwt>
</event>
<event>
 4    1  0.5531008E-005  0.7982672E+03  0.7818608E-02  0.9562529E-01
          2   -1    0    0  501    0  0.00000000000E+00  0.00000000000E+00  0.49511833898E+03  0.49511833899E+03  0.25500000000E-02 0.  1.
         -2   -1    0    0    0  501 -0.00000000000E+00 -0.00000000000E+00 -0.32175668991E+03  0.32175668992E+03  0.25500000000E-02 0. -1.
    5000001    1    1    2    0    0  0.29510294284E+03  0.68494905671E+02  0.29212253116E+03  0.45203746768E+03  0.16500000000E+03 0.  0.
   -5000001    1    1    2    0    0 -0.29510294284E+03 -0.68494905671E+02 -0.11876088209E+03  0.36483756124E+03  0.16500000000E+03 0.  0.
<mgrwt>
<rscale>  0 0.79826722E+03</rscale>
<asrwt>0</asrwt>
<pdfrwt beam="1">  1        2 0.70731192E-01 0.79826722E+03</pdfrwt>
<pdfrwt beam="2">  1       -2 0.45965241E-01 0.79826722E+03</pdfrwt>
<totfact> 0.30651793E+02</totfact>
</mgrwt>
</event>
<event>
 4    1  0.5531008E-005  0.1077154E+04  0.7818608E-02  0.9227750E-01
          2   -1    0    0  501    0  0.00000000000E+00  0.00000000000E+00  0.13724365437E+04  0.13724365437E+04  0.25500000000E-02 0.  1.
         -2   -1    0    0    0  501 -0.00000000000E+00 -0.00000000000E+00 -0.21135044369E+03  0.21135044370E+03  0.25500000000E-02 0. -1.
    5000001    1    1    2    0    0 -0.36651802064E+03  0.52906911151E+01  0.53518179707E+02  0.40552761487E+03  0.16500000000E+03 0.  0.
   -5000001    1    1    2    0    0  0.36651802064E+03 -0.52906911151E+01  0.11075679203E+04  0.11782593725E+04  0.16500000000E+03 0.  0.
<mgrwt>
<rscale>  0 0.10771538E+04</rscale>
<asrwt>0</asrwt>
<pdfrwt beam="1">  1        2 0.19606237E+00 0.10771538E+04</pdfrwt>
<pdfrwt beam="2">  1       -2 0.30192919E-01 0.10771538E+04</pdfrwt>
<totfact> 0.17216881E+02</totfact>
</mgrwt>
</event>
<event>
 4    1  0.5531008E-005  0.6631204E+03  0.7818608E-02  0.9782466E-01
         -2   -1    0    0    0  501 -0.00000000000E+00  0.00000000000E+00  0.21459601291E+03  0.21459601293E+03  0.25500000000E-02 0. -1.
          2   -1    0    0  501    0  0.00000000000E+00 -0.00000000000E+00 -0.51227502747E+03  0.51227502748E+03  0.25500000000E-02 0.  1.
    5000001    1    1    2    0    0 -0.87100653217E+02  0.27228656933E+03 -0.18316591408E+03  0.37749337969E+03  0.16500000000E+03 0.  0.
   -5000001    1    1    2    0    0  0.87100653217E+02 -0.27228656933E+03 -0.11451310048E+03  0.34937766072E+03  0.16500000000E+03 0.  0.
<mgrwt>
<rscale>  0 0.66312044E+03</rscale>
<asrwt>0</asrwt>
<pdfrwt beam="1">  1        2 0.73182146E-01 0.66312044E+03</pdfrwt>
<pdfrwt beam="2">  1       -2 0.30656574E-01 0.66312044E+03</pdfrwt>
<totfact> 0.64572405E+02</totfact>
</mgrwt>
</event>
<event>
 4    1  0.5531008E-005  0.3807056E+03  0.7818608E-02  0.1050673E+00
          2   -1    0    0  501    0  0.00000000000E+00  0.00000000000E+00  0.29431297697E+03  0.29431297698E+03  0.25500000000E-02 0.  1.
         -2   -1    0    0    0  501 -0.00000000000E+00 -0.00000000000E+00 -0.12311446202E+03  0.12311446204E+03  0.25500000000E-02 0. -1.
    5000001    1    1    2    0    0  0.80729264169E+02 -0.48945150522E+02  0.74837095173E+02  0.20429985968E+03  0.16500000000E+03 0.  0.
   -5000001    1    1    2    0    0 -0.80729264169E+02  0.48945150522E+02  0.96361419780E+02  0.21312757934E+03  0.16500000000E+03 0.  0.
<mgrwt>
<rscale>  0 0.38070558E+03</rscale>
<asrwt>0</asrwt>
<pdfrwt beam="1">  1        2 0.42044711E-01 0.38070558E+03</pdfrwt>
<pdfrwt beam="2">  1       -2 0.17587780E-01 0.38070558E+03</pdfrwt>
<totfact> 0.31892925E+03</totfact>
</mgrwt>
</event>
<event>
 4    1  0.5531008E-005  0.3518559E+03  0.7818608E-02  0.1061856E+00
         -2   -1    0    0    0  501 -0.00000000000E+00  0.00000000000E+00  0.73751114585E+02  0.73751114629E+02  0.25500000000E-02 0. -1.
          2   -1    0    0  501    0  0.00000000000E+00 -0.00000000000E+00 -0.41966339189E+03  0.41966339189E+03  0.25500000000E-02 0.  1.
    5000001    1    1    2    0    0 -0.37731143734E+00 -0.54608059824E+02 -0.21119244984E+03  0.27351313210E+03  0.16500000000E+03 0.  0.
   -5000001    1    1    2    0    0  0.37731143734E+00  0.54608059824E+02 -0.13471982746E+03  0.21990137442E+03  0.16500000000E+03 0.  0.
<mgrwt>
<rscale>  0 0.35185590E+03</rscale>
<asrwt>0</asrwt>
<pdfrwt beam="1">  1        2 0.59951912E-01 0.35185590E+03</pdfrwt>
<pdfrwt beam="2">  1       -2 0.10535874E-01 0.35185590E+03</pdfrwt>
<totfact> 0.50340910E+03</totfact>
</mgrwt>
</event>
<event>
 4    1  0.5531008E-005  0.4086031E+03  0.7818608E-02  0.1040841E+00
         -2   -1    0    0    0  501 -0.00000000000E+00  0.00000000000E+00  0.14812082667E+02  0.14812082886E+02  0.25500000000E-02 0. -1.
          2   -1    0    0  501    0  0.00000000000E+00 -0.00000000000E+00 -0.28179106965E+04  0.28179106965E+04  0.25500000000E-02 0.  1.
    5000001    1    1    2    0    0 -0.74367672632E+02  0.29162008087E+02 -0.77633072986E+03  0.79768124935E+03  0.16500000000E+03 0.  0.
   -5000001    1    1    2    0    0  0.74367672632E+02 -0.29162008087E+02 -0.20267678840E+04  0.20350415300E+04  0.16500000000E+03 0.  0.
<mgrwt>
<rscale>  0 0.40860312E+03</rscale>
<asrwt>0</asrwt>
<pdfrwt beam="1">  1        2 0.40255833E+00 0.40860312E+03</pdfrwt>
<pdfrwt beam="2">  1       -2 0.21160136E-02 0.40860312E+03</pdfrwt>
<totfact> 0.24324343E+03</totfact>
</mgrwt>
</event>
<event>
 4    1  0.5531008E-005  0.5612672E+03  0.7818608E-02  0.9989191E-01
         -2   -1    0    0    0  501 -0.00000000000E+00  0.00000000000E+00  0.17974713558E+03  0.17974713559E+03  0.25500000000E-02 0. -1.
          2   -1    0    0  501    0  0.00000000000E+00 -0.00000000000E+00 -0.43814446537E+03  0.43814446538E+03  0.25500000000E-02 0.  1.
    5000001    1    1    2    0    0  0.98526713306E+02 -0.68622492086E+02  0.82886110360E+02  0.22025364230E+03  0.16500000000E+03 0.  0.
   -5000001    1    1    2    0    0 -0.98526713306E+02  0.68622492086E+02 -0.34128344016E+03  0.39763795868E+03  0.16500000000E+03 0.  0.
<mgrwt>
<rscale>  0 0.56126718E+03</rscale>
<asrwt>0</asrwt>
<pdfrwt beam="1">  1        2 0.62592066E-01 0.56126718E+03</pdfrwt>
<pdfrwt beam="2">  1       -2 0.25678162E-01 0.56126718E+03</pdfrwt>
<totfact> 0.10669200E+03</totfact>
</mgrwt>
</event>
<event>
 4    1  0.5531008E-005  0.5253324E+03  0.7818608E-02  0.1007370E+00
         -2   -1    0    0    0  501 -0.00000000000E+00  0.00000000000E+00  0.79484057941E+02  0.79484057982E+02  0.25500000000E-02 0. -1.
          2   -1    0    0  501    0  0.00000000000E+00 -0.00000000000E+00 -0.86801731965E+03  0.86801731965E+03  0.25500000000E-02 0.  1.
    5000001    1    1    2    0    0 -0.10219604510E+02  0.20411525696E+03 -0.39240924238E+03  0.47220492579E+03  0.16500000000E+03 0.  0.
   -5000001    1    1    2    0    0  0.10219604510E+02 -0.20411525696E+03 -0.39612401933E+03  0.47529645184E+03  0.16500000000E+03 0.  0.
<mgrwt>
<rscale>  0 0.52533242E+03</rscale>
<asrwt>0</asrwt>
<pdfrwt beam="1">  1        2 0.12400247E+00 0.52533242E+03</pdfrwt>
<pdfrwt beam="2">  1       -2 0.11354866E-01 0.52533242E+03</pdfrwt>
<totfact> 0.19051126E+03</totfact>
</mgrwt>
</event>
<event>
 4    1  0.5531008E-005  0.6439683E+03  0.7818608E-02  0.9818164E-01
         -2   -1    0    0    0  501 -0.00000000000E+00  0.00000000000E+00  0.95705575629E+03  0.95705575630E+03  0.25500000000E-02 0. -1.
          2   -1    0    0  501    0  0.00000000000E+00 -0.00000000000E+00 -0.10832575423E+03  0.10832575426E+03  0.25500000000E-02 0.  1.
    5000001    1    1    2    0    0  0.21699342229E+03  0.11191255708E+03  0.20968638808E+03  0.36166828323E+03  0.16500000000E+03 0.  0.
   -5000001    1    1    2    0    0 -0.21699342229E+03 -0.11191255708E+03  0.63904361398E+03  0.70371322733E+03  0.16500000000E+03 0.  0.
<mgrwt>
<rscale>  0 0.64396828E+03</rscale>
<asrwt>0</asrwt>
<pdfrwt beam="1">  1        2 0.15475108E-01 0.64396828E+03</pdfrwt>
<pdfrwt beam="2">  1       -2 0.13672225E+00 0.64396828E+03</pdfrwt>
<totfact> 0.14948090E+02</totfact>
</mgrwt>
</event>
<event>
 4    1  0.5531008E-005  0.4721258E+03  0.7818608E-02  0.1021322E+00
         -2   -1    0    0    0  501 -0.00000000000E+00  0.00000000000E+00  0.25347364615E+02  0.25347364743E+02  0.25500000000E-02 0. -1.
          2   -1    0    0  501    0  0.00000000000E+00 -0.00000000000E+00 -0.21984805951E+04  0.21984805951E+04  0.25500000000E-02 0.  1.
    5000001    1    1    2    0    0 -0.12987089278E+02 -0.15300175802E+03 -0.14170394395E+04  0.14348532941E+04  0.16500000000E+03 0.  0.
   -5000001    1    1    2    0    0  0.12987089278E+02  0.15300175802E+03 -0.75609379097E+03  0.78897466575E+03  0.16500000000E+03 0.  0.
<mgrwt>
<rscale>  0 0.47212579E+03</rscale>
<asrwt>0</asrwt>
<pdfrwt beam="1">  1        2 0.31406854E+00 0.47212579E+03</pdfrwt>
<pdfrwt beam="2">  1       -2 0.36210535E-02 0.47212579E+03</pdfrwt>
<totfact> 0.22323529E+03</totfact>
</mgrwt>
</event>
<event>
 4    1  0.5531008E-005  0.8420548E+03  0.7818608E-02  0.9501063E-01
         -2   -1    0    0    0  501 -0.00000000000E+00  0.00000000000E+00  0.14814260522E+03  0.14814260525E+03  0.25500000000E-02 0. -1.
          2   -1    0    0  501    0  0.00000000000E+00 -0.00000000000E+00 -0.11965772961E+04  0.11965772961E+04  0.25500000000E-02 0.  1.
    5000001    1    1    2    0    0  0.26521472555E+03  0.26834464339E+03 -0.38416396518E+03  0.56316485191E+03  0.16500000000E+03 0.  0.
   -5000001    1    1    2    0    0 -0.26521472555E+03 -0.26834464339E+03 -0.66427072568E+03  0.78155504943E+03  0.16500000000E+03 0.  0.
<mgrwt>
<rscale>  0 0.84205482E+03</rscale>
<asrwt>0</asrwt>
<pdfrwt beam="1">  1        2 0.17093961E+00 0.84205482E+03</pdfrwt>
<pdfrwt beam="2">  1       -2 0.21163230E-01 0.84205482E+03</pdfrwt>
<totfact> 0.41557543E+02</totfact>
</mgrwt>
</event>
<event>
 4    1  0.5531008E-005  0.5077855E+03  0.7818608E-02  0.1011767E+00
         -2   -1    0    0    0  501 -0.00000000000E+00  0.00000000000E+00  0.24631076716E+02  0.24631076848E+02  0.25500000000E-02 0. -1.
          2   -1    0    0  501    0  0.00000000000E+00 -0.00000000000E+00 -0.26170810590E+04  0.26170810590E+04  0.25500000000E-02 0.  1.
    5000001    1    1    2    0    0  0.64390331952E+02  0.48937243357E+02 -0.38475376999E+03  0.42638179154E+03  0.16500000000E+03 0.  0.
   -5000001    1    1    2    0    0 -0.64390331952E+02 -0.48937243357E+02 -0.22076962123E+04  0.22153303443E+04  0.16500000000E+03 0.  0.
<mgrwt>
<rscale>  0 0.50778548E+03</rscale>
<asrwt>0</asrwt>
<pdfrwt beam="1">  1        2 0.37386855E+00 0.50778548E+03</pdfrwt>
<pdfrwt beam="2">  1       -2 0.35187269E-02 0.50778548E+03</pdfrwt>
<totfact> 0.14279852E+03</totfact>
</mgrwt>
</event>
<event>
 4    1  0.5531008E-005  0.3521169E+03  0.7818608E-02  0.1061750E+00
          2   -1    0    0  501    0  0.00000000000E+00  0.00000000000E+00  0.24750165353E+03  0.24750165355E+03  0.25500000000E-02 0.  1.
         -2   -1    0    0    0  501 -0.00000000000E+00 -0.00000000000E+00 -0.12523788704E+03  0.12523788707E+03  0.25500000000E-02 0. -1.
    5000001    1    1    2    0    0 -0.52104325705E+02 -0.31964454272E+02  0.54869578236E+02  0.18431564695E+03  0.16500000000E+03 0.  0.
   -5000001    1    1    2    0    0  0.52104325705E+02  0.31964454272E+02  0.67394188254E+02  0.18842389367E+03  0.16500000000E+03 0.  0.
<mgrwt>
<rscale>  0 0.35211694E+03</rscale>
<asrwt>0</asrwt>
<pdfrwt beam="1">  1        2 0.35357379E-01 0.35211694E+03</pdfrwt>
<pdfrwt beam="2">  1       -2 0.17891127E-01 0.35211694E+03</pdfrwt>
<totfact> 0.37363528E+03</totfact>
</mgrwt>
</event>
<event>
 4    1  0.5531008E-005  0.4944375E+03  0.7818608E-02  0.1015241E+00
          2   -1    0    0  501    0  0.00000000000E+00  0.00000000000E+00  0.33370362048E+04  0.33370362048E+04  0.25500000000E-02 0.  1.
         -2   -1    0    0    0  501 -0.00000000000E+00 -0.00000000000E+00 -0.18314787516E+02  0.18314787694E+02  0.25500000000E-02 0. -1.
    5000001    1    1    2    0    0 -0.29373681271E+02  0.17798200371E+03  0.19088587392E+04  0.19244498157E+04  0.16500000000E+03 0.  0.
   -5000001    1    1    2    0    0  0.29373681271E+02 -0.17798200371E+03  0.14098626780E+04  0.14309011768E+04  0.16500000000E+03 0.  0.
<mgrwt>
<rscale>  0 0.49443750E+03</rscale>
<asrwt>0</asrwt>
<pdfrwt beam="1">  1        2 0.47671917E+00 0.49443750E+03</pdfrwt>
<pdfrwt beam="2">  1       -2 0.26163998E-02 0.49443750E+03</pdfrwt>
<totfact> 0.91367268E+02</totfact>
</mgrwt>
</event>
<event>
 4    1  0.5531008E-005  0.3615552E+03  0.7818608E-02  0.1057970E+00
         -2   -1    0    0    0  501 -0.00000000000E+00  0.00000000000E+00  0.21139859089E+02  0.21139859242E+02  0.25500000000E-02 0. -1.
          2   -1    0    0  501    0  0.00000000000E+00 -0.00000000000E+00 -0.15459204601E+04  0.15459204601E+04  0.25500000000E-02 0.  1.
    5000001    1    1    2    0    0 -0.40573860575E+02  0.33620227788E+02 -0.53805579747E+03  0.56524826321E+03  0.16500000000E+03 0.  0.
   -5000001    1    1    2    0    0  0.40573860575E+02 -0.33620227788E+02 -0.98672480353E+03  0.10018120561E+04  0.16500000000E+03 0.  0.
<mgrwt>
<rscale>  0 0.36155520E+03</rscale>
<asrwt>0</asrwt>
<pdfrwt beam="1">  1        2 0.22084571E+00 0.36155520E+03</pdfrwt>
<pdfrwt beam="2">  1       -2 0.30199809E-02 0.36155520E+03</pdfrwt>
<totfact> 0.62249635E+03</totfact>
</mgrwt>
</event>
<event>
 4    1  0.5531008E-005  0.1055288E+04  0.7818608E-02  0.9249901E-01
         -2   -1    0    0    0  501 -0.00000000000E+00  0.00000000000E+00  0.32611742523E+03  0.32611742524E+03  0.25500000000E-02 0. -1.
          2   -1    0    0  501    0  0.00000000000E+00 -0.00000000000E+00 -0.85370551055E+03  0.85370551056E+03  0.25500000000E-02 0.  1.
    5000001    1    1    2    0    0 -0.46004592264E+03 -0.19341949948E+03 -0.21219705947E+03  0.56683855353E+03  0.16500000000E+03 0.  0.
   -5000001    1    1    2    0    0  0.46004592264E+03  0.19341949948E+03 -0.31539102585E+03  0.61298438227E+03  0.16500000000E+03 0.  0.
<mgrwt>
<rscale>  0 0.10552881E+04</rscale>
<asrwt>0</asrwt>
<pdfrwt beam="1">  1        2 0.12195793E+00 0.10552881E+04</pdfrwt>
<pdfrwt beam="2">  1       -2 0.46588204E-01 0.10552881E+04</pdfrwt>
<totfact> 0.15168480E+02</totfact>
</mgrwt>
</event>
<event>
 4    1  0.5531008E-005  0.5784265E+03  0.7818608E-02  0.9951204E-01
         -2   -1    0    0    0  501 -0.00000000000E+00  0.00000000000E+00  0.32574060799E+02  0.32574060899E+02  0.25500000000E-02 0. -1.
          2   -1    0    0  501    0  0.00000000000E+00 -0.00000000000E+00 -0.25678189849E+04  0.25678189849E+04  0.25500000000E-02 0.  1.
    5000001    1    1    2    0    0 -0.22247165798E+02  0.22836796157E+03 -0.99150020272E+03  0.10309920049E+04  0.16500000000E+03 0.  0.
   -5000001    1    1    2    0    0  0.22247165798E+02 -0.22836796157E+03 -0.15437447214E+04  0.15694010408E+04  0.16500000000E+03 0.  0.
<mgrwt>
<rscale>  0 0.57842646E+03</rscale>
<asrwt>0</asrwt>
<pdfrwt beam="1">  1        2 0.36683116E+00 0.57842646E+03</pdfrwt>
<pdfrwt beam="2">  1       -2 0.46534389E-02 0.57842646E+03</pdfrwt>
<totfact> 0.98107997E+02</totfact>
</mgrwt>
</event>
<event>
 4    1  0.5531008E-005  0.4766792E+03  0.7818608E-02  0.1020052E+00
         -2   -1    0    0    0  501 -0.00000000000E+00  0.00000000000E+00  0.15410475024E+03  0.15410475026E+03  0.25500000000E-02 0. -1.
          2   -1    0    0  501    0  0.00000000000E+00 -0.00000000000E+00 -0.36861780432E+03  0.36861780433E+03  0.25500000000E-02 0.  1.
    5000001    1    1    2    0    0 -0.12504024431E+03 -0.11751725683E+03 -0.12001599249E+03  0.26659746211E+03  0.16500000000E+03 0.  0.
   -5000001    1    1    2    0    0  0.12504024431E+03  0.11751725683E+03 -0.94497061586E+02  0.25612509248E+03  0.16500000000E+03 0.  0.
<mgrwt>
<rscale>  0 0.47667916E+03</rscale>
<asrwt>0</asrwt>
<pdfrwt beam="1">  1        2 0.52659686E-01 0.47667916E+03</pdfrwt>
<pdfrwt beam="2">  1       -2 0.22014964E-01 0.47667916E+03</pdfrwt>
<totfact> 0.16980008E+03</totfact>
</mgrwt>
</event>
<event>
 4    1  0.5531008E-005  0.4433979E+03  0.7818608E-02  0.1029709E+00
          2   -1    0    0  501    0  0.00000000000E+00  0.00000000000E+00  0.23433303391E+04  0.23433303391E+04  0.25500000000E-02 0.  1.
         -2   -1    0    0    0  501 -0.00000000000E+00 -0.00000000000E+00 -0.20974602291E+02  0.20974602446E+02  0.25500000000E-02 0. -1.
    5000001    1    1    2    0    0  0.13560928974E+03  0.71036455141E+01  0.84639122507E+03  0.87295099926E+03  0.16500000000E+03 0.  0.
   -5000001    1    1    2    0    0 -0.13560928974E+03 -0.71036455141E+01  0.14759645117E+04  0.14913539423E+04  0.16500000000E+03 0.  0.
<mgrwt>
<rscale>  0 0.44339789E+03</rscale>
<asrwt>0</asrwt>
<pdfrwt beam="1">  1        2 0.33476138E+00 0.44339789E+03</pdfrwt>
<pdfrwt beam="2">  1       -2 0.29963726E-02 0.44339789E+03</pdfrwt>
<totfact> 0.25202868E+03</totfact>
</mgrwt>
</event>
<event>
 4    1  0.5531008E-005  0.5820188E+03  0.7818608E-02  0.9943430E-01
         -2   -1    0    0    0  501 -0.00000000000E+00  0.00000000000E+00  0.14507682378E+03  0.14507682380E+03  0.25500000000E-02 0. -1.
          2   -1    0    0  501    0  0.00000000000E+00 -0.00000000000E+00 -0.58373545147E+03  0.58373545148E+03  0.25500000000E-02 0.  1.
    5000001    1    1    2    0    0 -0.23700250212E+02  0.23103186011E+03 -0.29366553157E+03  0.40914773209E+03  0.16500000000E+03 0.  0.
   -5000001    1    1    2    0    0  0.23700250212E+02 -0.23103186011E+03 -0.14499309613E+03  0.31966454318E+03  0.16500000000E+03 0.  0.
<mgrwt>
<rscale>  0 0.58201885E+03</rscale>
<asrwt>0</asrwt>
<pdfrwt beam="1">  1        2 0.83390778E-01 0.58201885E+03</pdfrwt>
<pdfrwt beam="2">  1       -2 0.20725261E-01 0.58201885E+03</pdfrwt>
<totfact> 0.11248957E+03</totfact>
</mgrwt>
</event>
<event>
 4    1  0.5531008E-005  0.3441622E+03  0.7818608E-02  0.1065037E+00
          2   -1    0    0  501    0  0.00000000000E+00  0.00000000000E+00  0.90263475802E+03  0.90263475802E+03  0.25500000000E-02 0.  1.
         -2   -1    0    0    0  501 -0.00000000000E+00 -0.00000000000E+00 -0.32806080358E+02  0.32806080457E+02  0.25500000000E-02 0. -1.
    5000001    1    1    2    0    0 -0.17858230399E+02  0.11309905976E+02  0.31519543369E+03  0.35639864167E+03  0.16500000000E+03 0.  0.
   -5000001    1    1    2    0    0  0.17858230399E+02 -0.11309905976E+02  0.55463324397E+03  0.57904219681E+03  0.16500000000E+03 0.  0.
<mgrwt>
<rscale>  0 0.34416222E+03</rscale>
<asrwt>0</asrwt>
<pdfrwt beam="1">  1        2 0.12894782E+00 0.34416222E+03</pdfrwt>
<pdfrwt beam="2">  1       -2 0.46865831E-02 0.34416222E+03</pdfrwt>
<totfact> 0.72529241E+03</totfact>
</mgrwt>
</event>
<event>
 4    1  0.5531008E-005  0.4981501E+03  0.7818608E-02  0.1014263E+00
         -2   -1    0    0    0  501 -0.00000000000E+00  0.00000000000E+00  0.65238229230E+02  0.65238229279E+02  0.25500000000E-02 0. -1.
          2   -1    0    0  501    0  0.00000000000E+00 -0.00000000000E+00 -0.95095131635E+03  0.95095131635E+03  0.25500000000E-02 0.  1.
    5000001    1    1    2    0    0 -0.24822890852E+02  0.16376166311E+03 -0.26762078746E+03  0.35535889477E+03  0.16500000000E+03 0.  0.
   -5000001    1    1    2    0    0  0.24822890852E+02 -0.16376166311E+03 -0.61809229966E+03  0.66083065086E+03  0.16500000000E+03 0.  0.
<mgrwt>
<rscale>  0 0.49815010E+03</rscale>
<asrwt>0</asrwt>
<pdfrwt beam="1">  1        2 0.13585018E+00 0.49815010E+03</pdfrwt>
<pdfrwt beam="2">  1       -2 0.93197476E-02 0.49815010E+03</pdfrwt>
<totfact> 0.23221384E+03</totfact>
</mgrwt>
</event>
<event>
 4    1  0.5531008E-005  0.7052190E+03  0.7818608E-02  0.9708348E-01
          2   -1    0    0  501    0  0.00000000000E+00  0.00000000000E+00  0.50991522852E+03  0.50991522853E+03  0.25500000000E-02 0.  1.
         -2   -1    0    0    0  501 -0.00000000000E+00 -0.00000000000E+00 -0.24383159191E+03  0.24383159192E+03  0.25500000000E-02 0. -1.
    5000001    1    1    2    0    0 -0.86432724661E+02 -0.29554387054E+03  0.18420709681E+03  0.39493550084E+03  0.16500000000E+03 0.  0.
   -5000001    1    1    2    0    0  0.86432724661E+02  0.29554387054E+03  0.81876539801E+02  0.35881131961E+03  0.16500000000E+03 0.  0.
<mgrwt>
<rscale>  0 0.70521895E+03</rscale>
<asrwt>0</asrwt>
<pdfrwt beam="1">  1        2 0.72845031E-01 0.70521895E+03</pdfrwt>
<pdfrwt beam="2">  1       -2 0.34833085E-01 0.70521895E+03</pdfrwt>
<totfact> 0.51022356E+02</totfact>
</mgrwt>
</event>
<event>
 4    1  0.5531008E-005  0.4522291E+03  0.7818608E-02  0.1027059E+00
         -2   -1    0    0    0  501 -0.00000000000E+00  0.00000000000E+00  0.94709737423E+02  0.94709737457E+02  0.25500000000E-02 0. -1.
          2   -1    0    0  501    0  0.00000000000E+00 -0.00000000000E+00 -0.53983657845E+03  0.53983657846E+03  0.25500000000E-02 0.  1.
    5000001    1    1    2    0    0  0.55334429863E+02 -0.11994973013E+03 -0.10984787956E+03  0.23820452038E+03  0.16500000000E+03 0.  0.
   -5000001    1    1    2    0    0 -0.55334429863E+02  0.11994973013E+03 -0.33527896147E+03  0.39634179553E+03  0.16500000000E+03 0.  0.
<mgrwt>
<rscale>  0 0.45222906E+03</rscale>
<asrwt>0</asrwt>
<pdfrwt beam="1">  1        2 0.77119510E-01 0.45222906E+03</pdfrwt>
<pdfrwt beam="2">  1       -2 0.13529963E-01 0.45222906E+03</pdfrwt>
<totfact> 0.25398340E+03</totfact>
</mgrwt>
</event>
<event>
 4    1  0.5531008E-005  0.5304844E+03  0.7818608E-02  0.1006115E+00
         -2   -1    0    0    0  501 -0.00000000000E+00  0.00000000000E+00  0.41496790618E+02  0.41496790696E+02  0.25500000000E-02 0. -1.
          2   -1    0    0  501    0  0.00000000000E+00 -0.00000000000E+00 -0.16953945277E+04  0.16953945277E+04  0.25500000000E-02 0.  1.
    5000001    1    1    2    0    0  0.15420073384E+03 -0.11535431585E+03 -0.57240634839E+03  0.62606590083E+03  0.16500000000E+03 0.  0.
   -5000001    1    1    2    0    0 -0.15420073384E+03  0.11535431585E+03 -0.10814913887E+04  0.11108254176E+04  0.16500000000E+03 0.  0.
<mgrwt>
<rscale>  0 0.53048443E+03</rscale>
<asrwt>0</asrwt>
<pdfrwt beam="1">  1        2 0.24219918E+00 0.53048443E+03</pdfrwt>
<pdfrwt beam="2">  1       -2 0.59281140E-02 0.53048443E+03</pdfrwt>
<totfact> 0.18614639E+03</totfact>
</mgrwt>
</event>
<event>
 4    1  0.5531008E-005  0.6962620E+03  0.7818608E-02  0.9723646E-01
         -2   -1    0    0    0  501 -0.00000000000E+00  0.00000000000E+00  0.59325590694E+02  0.59325590748E+02  0.25500000000E-02 0. -1.
          2   -1    0    0  501    0  0.00000000000E+00 -0.00000000000E+00 -0.20428823214E+04  0.20428823215E+04  0.25500000000E-02 0.  1.
    5000001    1    1    2    0    0 -0.13965734048E+03  0.15474596507E+03 -0.16704089080E+04  0.16914317623E+04  0.16500000000E+03 0.  0.
   -5000001    1    1    2    0    0  0.13965734048E+03 -0.15474596507E+03 -0.31314782272E+03  0.41077614990E+03  0.16500000000E+03 0.  0.
<mgrwt>
<rscale>  0 0.69626202E+03</rscale>
<asrwt>0</asrwt>
<pdfrwt beam="1">  1        2 0.29184029E+00 0.69626202E+03</pdfrwt>
<pdfrwt beam="2">  1       -2 0.84750856E-02 0.69626202E+03</pdfrwt>
<totfact> 0.70047209E+02</totfact>
</mgrwt>
</event>
<event>
 4    1  0.5531008E-005  0.5022879E+03  0.7818608E-02  0.1013183E+00
         -2   -1    0    0    0  501 -0.00000000000E+00  0.00000000000E+00  0.11261080376E+03  0.11261080379E+03  0.25500000000E-02 0. -1.
          2   -1    0    0  501    0  0.00000000000E+00 -0.00000000000E+00 -0.56009968403E+03  0.56009968403E+03  0.25500000000E-02 0.  1.
    5000001    1    1    2    0    0 -0.29067447103E+02  0.17301454695E+03 -0.31910100697E+03  0.39978669636E+03  0.16500000000E+03 0.  0.
   -5000001    1    1    2    0    0  0.29067447103E+02 -0.17301454695E+03 -0.12838787329E+03  0.27292379146E+03  0.16500000000E+03 0.  0.
<mgrwt>
<rscale>  0 0.50228787E+03</rscale>
<asrwt>0</asrwt>
<pdfrwt beam="1">  1        2 0.80014239E-01 0.50228787E+03</pdfrwt>
<pdfrwt beam="2">  1       -2 0.16087258E-01 0.50228787E+03</pdfrwt>
<totfact> 0.18241427E+03</totfact>
</mgrwt>
</event>
<event>
 4    1  0.5531008E-005  0.6472731E+03  0.7818608E-02  0.9811910E-01
          2   -1    0    0  501    0  0.00000000000E+00  0.00000000000E+00  0.38137950231E+03  0.38137950232E+03  0.25500000000E-02 0.  1.
         -2   -1    0    0    0  501 -0.00000000000E+00 -0.00000000000E+00 -0.27463615745E+03  0.27463615746E+03  0.25500000000E-02 0. -1.
    5000001    1    1    2    0    0 -0.21494838159E+01  0.16844491609E+03 -0.17129170573E+03  0.29145181161E+03  0.16500000000E+03 0.  0.
   -5000001    1    1    2    0    0  0.21494838159E+01 -0.16844491609E+03  0.27803505059E+03  0.36456384817E+03  0.16500000000E+03 0.  0.
<mgrwt>
<rscale>  0 0.64727305E+03</rscale>
<asrwt>0</asrwt>
<pdfrwt beam="1">  1        2 0.54482786E-01 0.64727305E+03</pdfrwt>
<pdfrwt beam="2">  1       -2 0.39233737E-01 0.64727305E+03</pdfrwt>
<totfact> 0.56398796E+02</totfact>
</mgrwt>
</event>
<event>
 4    1  0.5531008E-005  0.4438258E+03  0.7818608E-02  0.1029579E+00
          2   -1    0    0  501    0  0.00000000000E+00  0.00000000000E+00  0.10545661568E+04  0.10545661568E+04  0.25500000000E-02 0.  1.
         -2   -1    0    0    0  501 -0.00000000000E+00 -0.00000000000E+00 -0.46697245098E+02  0.46697245168E+02  0.25500000000E-02 0. -1.
    5000001    1    1    2    0    0  0.68797131783E+02  0.11248344432E+03  0.67285888757E+03  0.70523021288E+03  0.16500000000E+03 0.  0.
   -5000001    1    1    2    0    0 -0.68797131783E+02 -0.11248344432E+03  0.33501002413E+03  0.39603318908E+03  0.16500000000E+03 0.  0.
<mgrwt>
<rscale>  0 0.44382580E+03</rscale>
<asrwt>0</asrwt>
<pdfrwt beam="1">  1        2 0.15065231E+00 0.44382580E+03</pdfrwt>
<pdfrwt beam="2">  1       -2 0.66710347E-02 0.44382580E+03</pdfrwt>
<totfact> 0.34135132E+03</totfact>
</mgrwt>
</event>
<event>
 4    1  0.5531008E-005  0.6442791E+03  0.7818608E-02  0.9817574E-01
          2   -1    0    0  501    0  0.00000000000E+00  0.00000000000E+00  0.41680657801E+04  0.41680657801E+04  0.25500000000E-02 0.  1.
         -2   -1    0    0    0  501 -0.00000000000E+00 -0.00000000000E+00 -0.24897374829E+02  0.24897374960E+02  0.25500000000E-02 0. -1.
    5000001    1    1    2    0    0  0.24993700054E+03 -0.11041734114E+03  0.17887744953E+04  0.18170304589E+04  0.16500000000E+03 0.  0.
   -5000001    1    1    2    0    0 -0.24993700054E+03  0.11041734114E+03  0.23543939099E+04  0.23759326962E+04  0.16500000000E+03 0.  0.
<mgrwt>
<rscale>  0 0.64427912E+03</rscale>
<asrwt>0</asrwt>
<pdfrwt beam="1">  1        2 0.59543842E+00 0.64427912E+03</pdfrwt>
<pdfrwt beam="2">  1       -2 0.35567652E-02 0.64427912E+03</pdfrwt>
<totfact> 0.16845818E+02</totfact>
</mgrwt>
</event>
<event>
 4    1  0.5531008E-005  0.4856364E+03  0.7818608E-02  0.1017598E+00
          2   -1    0    0  501    0  0.00000000000E+00  0.00000000000E+00  0.27812479347E+04  0.27812479347E+04  0.25500000000E-02 0.  1.
         -2   -1    0    0    0  501 -0.00000000000E+00 -0.00000000000E+00 -0.21199363657E+02  0.21199363810E+02  0.25500000000E-02 0. -1.
    5000001    1    1    2    0    0 -0.10467005585E+03  0.14357106704E+03  0.13054028757E+04  0.13277312001E+04  0.16500000000E+03 0.  0.
   -5000001    1    1    2    0    0  0.10467005585E+03 -0.14357106704E+03  0.14546456954E+04  0.14747160984E+04  0.16500000000E+03 0.  0.
<mgrwt>
<rscale>  0 0.48563643E+03</rscale>
<asrwt>0</asrwt>
<pdfrwt beam="1">  1        2 0.39732131E+00 0.48563643E+03</pdfrwt>
<pdfrwt beam="2">  1       -2 0.30284792E-02 0.48563643E+03</pdfrwt>
<totfact> 0.14755775E+03</totfact>
</mgrwt>
</event>
<event>
 4    1  0.5531008E-005  0.6565153E+03  0.7818608E-02  0.9794630E-01
         -2   -1    0    0    0  501 -0.00000000000E+00  0.00000000000E+00  0.30658359711E+02  0.30658359818E+02  0.25500000000E-02 0. -1.
          2   -1    0    0  501    0  0.00000000000E+00 -0.00000000000E+00 -0.35146400777E+04  0.35146400777E+04  0.25500000000E-02 0.  1.
    5000001    1    1    2    0    0  0.72640478097E+02  0.26644182440E+03 -0.13895196236E+04  0.14262740513E+04  0.16500000000E+03 0.  0.
   -5000001    1    1    2    0    0 -0.72640478097E+02 -0.26644182440E+03 -0.20944620944E+04  0.21190243863E+04  0.16500000000E+03 0.  0.
<mgrwt>
<rscale>  0 0.65651535E+03</rscale>
<asrwt>0</asrwt>
<pdfrwt beam="1">  1        2 0.50209118E+00 0.65651535E+03</pdfrwt>
<pdfrwt beam="2">  1       -2 0.43797679E-02 0.65651535E+03</pdfrwt>
<totfact> 0.32187949E+02</totfact>
</mgrwt>
</event>
<event>
 4    1  0.5531008E-005  0.5067539E+03  0.7818608E-02  0.1012031E+00
          2   -1    0    0  501    0  0.00000000000E+00  0.00000000000E+00  0.23703262042E+04  0.23703262042E+04  0.25500000000E-02 0.  1.
         -2   -1    0    0    0  501 -0.00000000000E+00 -0.00000000000E+00 -0.27084827073E+02  0.27084827193E+02  0.25500000000E-02 0. -1.
    5000001    1    1    2    0    0  0.18929377675E+03  0.73718100140E+01  0.13276978209E+04  0.13512560753E+04  0.16500000000E+03 0.  0.
   -5000001    1    1    2    0    0 -0.18929377675E+03 -0.73718100140E+01  0.10155435562E+04  0.10461549561E+04  0.16500000000E+03 0.  0.
<mgrwt>
<rscale>  0 0.50675389E+03</rscale>
<asrwt>0</asrwt>
<pdfrwt beam="1">  1        2 0.33861815E+00 0.50675389E+03</pdfrwt>
<pdfrwt beam="2">  1       -2 0.38692596E-02 0.50675389E+03</pdfrwt>
<totfact> 0.16509841E+03</totfact>
</mgrwt>
</event>
<event>
 4    1  0.5531008E-005  0.4175250E+03  0.7818608E-02  0.1037875E+00
          2   -1    0    0  501    0  0.00000000000E+00  0.00000000000E+00  0.37851636885E+03  0.37851636886E+03  0.25500000000E-02 0.  1.
         -2   -1    0    0    0  501 -0.00000000000E+00 -0.00000000000E+00 -0.11513840566E+03  0.11513840569E+03  0.25500000000E-02 0. -1.
    5000001    1    1    2    0    0  0.58684262023E+02 -0.63797696976E+02  0.24287121120E+03  0.30614606641E+03  0.16500000000E+03 0.  0.
   -5000001    1    1    2    0    0 -0.58684262023E+02  0.63797696976E+02  0.20506751987E+02  0.18750870813E+03  0.16500000000E+03 0.  0.
<mgrwt>
<rscale>  0 0.41752495E+03</rscale>
<asrwt>0</asrwt>
<pdfrwt beam="1">  1        2 0.54073768E-01 0.41752495E+03</pdfrwt>
<pdfrwt beam="2">  1       -2 0.16448343E-01 0.41752495E+03</pdfrwt>
<totfact> 0.27189681E+03</totfact>
</mgrwt>
</event>
<event>
 4    1  0.5531008E-005  0.4927800E+03  0.7818608E-02  0.1015681E+00
         -2   -1    0    0    0  501 -0.00000000000E+00  0.00000000000E+00  0.13841377136E+03  0.13841377138E+03  0.25500000000E-02 0. -1.
          2   -1    0    0  501    0  0.00000000000E+00 -0.00000000000E+00 -0.43859820162E+03  0.43859820163E+03  0.25500000000E-02 0.  1.
    5000001    1    1    2    0    0  0.90401693321E+01  0.70685579406E+02  0.47253656812E+02  0.18583886536E+03  0.16500000000E+03 0.  0.
   -5000001    1    1    2    0    0 -0.90401693321E+01 -0.70685579406E+02 -0.34743808708E+03  0.39117310765E+03  0.16500000000E+03 0.  0.
<mgrwt>
<rscale>  0 0.49278000E+03</rscale>
<asrwt>0</asrwt>
<pdfrwt beam="1">  1        2 0.62656885E-01 0.49278000E+03</pdfrwt>
<pdfrwt beam="2">  1       -2 0.19773396E-01 0.49278000E+03</pdfrwt>
<totfact> 0.16900650E+03</totfact>
</mgrwt>
</event>
<event>
 4    1  0.5531008E-005  0.5475204E+03  0.7818608E-02  0.1002070E+00
         -2   -1    0    0    0  501 -0.00000000000E+00  0.00000000000E+00  0.49046692188E+03  0.49046692188E+03  0.25500000000E-02 0. -1.
          2   -1    0    0  501    0  0.00000000000E+00 -0.00000000000E+00 -0.15280262736E+03  0.15280262738E+03  0.25500000000E-02 0.  1.
    5000001    1    1    2    0    0  0.16281567294E+03  0.10657028946E+03  0.28545595054E+03  0.38285280415E+03  0.16500000000E+03 0.  0.
   -5000001    1    1    2    0    0 -0.16281567294E+03 -0.10657028946E+03  0.52208343985E+02  0.26041674511E+03  0.16500000000E+03 0.  0.
<mgrwt>
<rscale>  0 0.54752035E+03</rscale>
<asrwt>0</asrwt>
<pdfrwt beam="1">  1        2 0.21828947E-01 0.54752035E+03</pdfrwt>
<pdfrwt beam="2">  1       -2 0.70066704E-01 0.54752035E+03</pdfrwt>
<totfact> 0.47990557E+02</totfact>
</mgrwt>
</event>
<event>
 4    1  0.5531008E-005  0.9416296E+03  0.7818608E-02  0.9374988E-01
         -2   -1    0    0    0  501 -0.00000000000E+00  0.00000000000E+00  0.11635844596E+04  0.11635844596E+04  0.25500000000E-02 0. -1.
          2   -1    0    0  501    0  0.00000000000E+00 -0.00000000000E+00 -0.19050319845E+03  0.19050319846E+03  0.25500000000E-02 0.  1.
    5000001    1    1    2    0    0  0.37810892262E+03 -0.14058856166E+03  0.74261447714E+03  0.86106490039E+03  0.16500000000E+03 0.  0.
   -5000001    1    1    2    0    0 -0.37810892262E+03  0.14058856166E+03  0.23046678398E+03  0.49302275764E+03  0.16500000000E+03 0.  0.
<mgrwt>
<rscale>  0 0.94162957E+03</rscale>
<asrwt>0</asrwt>
<pdfrwt beam="1">  1        2 0.27214743E-01 0.94162957E+03</pdfrwt>
<pdfrwt beam="2">  1       -2 0.16622635E+00 0.94162957E+03</pdfrwt>
<totfact> 0.45199255E+01</totfact>
</mgrwt>
</event>
<event>
 4    1  0.5531008E-005  0.4667940E+03  0.7818608E-02  0.1022829E+00
         -2   -1    0    0    0  501 -0.00000000000E+00  0.00000000000E+00  0.75368789753E+03  0.75368789754E+03  0.25500000000E-02 0. -1.
          2   -1    0    0  501    0  0.00000000000E+00 -0.00000000000E+00 -0.72276821758E+02  0.72276821803E+02  0.25500000000E-02 0.  1.
    5000001    1    1    2    0    0 -0.63218764198E+02 -0.14648320683E+03  0.41567691843E+03  0.47483285748E+03  0.16500000000E+03 0.  0.
   -5000001    1    1    2    0    0  0.63218764198E+02  0.14648320683E+03  0.26573415735E+03  0.35113186186E+03  0.16500000000E+03 0.  0.
<mgrwt>
<rscale>  0 0.46679403E+03</rscale>
<asrwt>0</asrwt>
<pdfrwt beam="1">  1        2 0.10325260E-01 0.46679403E+03</pdfrwt>
<pdfrwt beam="2">  1       -2 0.10766970E+00 0.46679403E+03</pdfrwt>
<totfact> 0.44595080E+02</totfact>
</mgrwt>
</event>
<event>
 4    1  0.5531008E-005  0.5420640E+03  0.7818608E-02  0.1003348E+00
          2   -1    0    0  501    0  0.00000000000E+00  0.00000000000E+00  0.57494861729E+03  0.57494861730E+03  0.25500000000E-02 0.  1.
         -2   -1    0    0    0  501 -0.00000000000E+00 -0.00000000000E+00 -0.12776504913E+03  0.12776504915E+03  0.25500000000E-02 0. -1.
    5000001    1    1    2    0    0  0.20150624123E+03  0.51282322811E+02  0.29458128246E+03  0.39653218515E+03  0.16500000000E+03 0.  0.
   -5000001    1    1    2    0    0 -0.20150624123E+03 -0.51282322811E+02  0.15260228571E+03  0.30618148130E+03  0.16500000000E+03 0.  0.
<mgrwt>
<rscale>  0 0.54206398E+03</rscale>
<asrwt>0</asrwt>
<pdfrwt beam="1">  1        2 0.82135516E-01 0.54206398E+03</pdfrwt>
<pdfrwt beam="2">  1       -2 0.18252150E-01 0.54206398E+03</pdfrwt>
<totfact> 0.14273562E+03</totfact>
</mgrwt>
</event>
<event>
 4    1  0.5531008E-005  0.6668784E+03  0.7818608E-02  0.9775614E-01
          2   -1    0    0  501    0  0.00000000000E+00  0.00000000000E+00  0.58836796745E+03  0.58836796745E+03  0.25500000000E-02 0.  1.
         -2   -1    0    0    0  501 -0.00000000000E+00 -0.00000000000E+00 -0.18896626102E+03  0.18896626103E+03  0.25500000000E-02 0. -1.
    5000001    1    1    2    0    0  0.27962115357E+03 -0.20273141563E+01  0.11120038554E+03  0.34319473374E+03  0.16500000000E+03 0.  0.
   -5000001    1    1    2    0    0 -0.27962115357E+03  0.20273141563E+01  0.28820132090E+03  0.43413949474E+03  0.16500000000E+03 0.  0.
<mgrwt>
<rscale>  0 0.66687838E+03</rscale>
<asrwt>0</asrwt>
<pdfrwt beam="1">  1        2 0.84052567E-01 0.66687838E+03</pdfrwt>
<pdfrwt beam="2">  1       -2 0.26995180E-01 0.66687838E+03</pdfrwt>
<totfact> 0.69470386E+02</totfact>
</mgrwt>
</event>
<event>
 4    1  0.5531008E-005  0.6781524E+03  0.7818608E-02  0.9755342E-01
         -2   -1    0    0    0  501 -0.00000000000E+00  0.00000000000E+00  0.18460363577E+03  0.18460363578E+03  0.25500000000E-02 0. -1.
          2   -1    0    0  501    0  0.00000000000E+00 -0.00000000000E+00 -0.62280819012E+03  0.62280819013E+03  0.25500000000E-02 0.  1.
    5000001    1    1    2    0    0  0.21491830020E+03 -0.19562628694E+03 -0.15083025927E+03  0.36665281536E+03  0.16500000000E+03 0.  0.
   -5000001    1    1    2    0    0 -0.21491830020E+03  0.19562628694E+03 -0.28737429508E+03  0.44075901055E+03  0.16500000000E+03 0.  0.
<mgrwt>
<rscale>  0 0.67815236E+03</rscale>
<asrwt>0</asrwt>
<pdfrwt beam="1">  1        2 0.88972597E-01 0.67815236E+03</pdfrwt>
<pdfrwt beam="2">  1       -2 0.26371948E-01 0.67815236E+03</pdfrwt>
<totfact> 0.67746354E+02</totfact>
</mgrwt>
</event>
<event>
 4    1  0.5531008E-005  0.7004662E+03  0.7818608E-02  0.9716435E-01
          2   -1    0    0  501    0  0.00000000000E+00  0.00000000000E+00  0.12614473908E+04  0.12614473908E+04  0.25500000000E-02 0.  1.
         -2   -1    0    0    0  501 -0.00000000000E+00 -0.00000000000E+00 -0.97240060387E+02  0.97240060421E+02  0.25500000000E-02 0. -1.
    5000001    1    1    2    0    0 -0.25653602837E+03 -0.14825950014E+03  0.41248768001E+03  0.53400627280E+03  0.16500000000E+03 0.  0.
   -5000001    1    1    2    0    0  0.25653602837E+03  0.14825950014E+03  0.75171965042E+03  0.82468117843E+03  0.16500000000E+03 0.  0.
<mgrwt>
<rscale>  0 0.70046619E+03</rscale>
<asrwt>0</asrwt>
<pdfrwt beam="1">  1        2 0.18020676E+00 0.70046619E+03</pdfrwt>
<pdfrwt beam="2">  1       -2 0.13891438E-01 0.70046619E+03</pdfrwt>
<totfact> 0.79252775E+02</totfact>
</mgrwt>
</event>
<event>
 4    1  0.5531008E-005  0.4911873E+03  0.7818608E-02  0.1016105E+00
          2   -1    0    0  501    0  0.00000000000E+00  0.00000000000E+00  0.98356415857E+03  0.98356415858E+03  0.25500000000E-02 0.  1.
         -2   -1    0    0    0  501 -0.00000000000E+00 -0.00000000000E+00 -0.61324156695E+02  0.61324156748E+02  0.25500000000E-02 0. -1.
    5000001    1    1    2    0    0  0.11608402135E+03 -0.35507810049E+02  0.74932346628E+03  0.77681848698E+03  0.16500000000E+03 0.  0.
   -5000001    1    1    2    0    0 -0.11608402135E+03  0.35507810049E+02  0.17291653559E+03  0.26806982835E+03  0.16500000000E+03 0.  0.
<mgrwt>
<rscale>  0 0.49118731E+03</rscale>
<asrwt>0</asrwt>
<pdfrwt beam="1">  1        2 0.14050916E+00 0.49118731E+03</pdfrwt>
<pdfrwt beam="2">  1       -2 0.87605940E-02 0.49118731E+03</pdfrwt>
<totfact> 0.24480834E+03</totfact>
</mgrwt>
</event>
<event>
 4    1  0.5531008E-005  0.4741392E+03  0.7818608E-02  0.1020758E+00
         -2   -1    0    0    0  501 -0.00000000000E+00  0.00000000000E+00  0.60911442870E+02  0.60911442924E+02  0.25500000000E-02 0. -1.
          2   -1    0    0  501    0  0.00000000000E+00 -0.00000000000E+00 -0.92268354438E+03  0.92268354438E+03  0.25500000000E-02 0.  1.
    5000001    1    1    2    0    0  0.12530911815E+03  0.11515724862E+03 -0.43848530536E+03  0.49845554467E+03  0.16500000000E+03 0.  0.
   -5000001    1    1    2    0    0 -0.12530911815E+03 -0.11515724862E+03 -0.42328679615E+03  0.48513944263E+03  0.16500000000E+03 0.  0.
<mgrwt>
<rscale>  0 0.47413916E+03</rscale>
<asrwt>0</asrwt>
<pdfrwt beam="1">  1        2 0.13181193E+00 0.47413916E+03</pdfrwt>
<pdfrwt beam="2">  1       -2 0.87016353E-02 0.47413916E+03</pdfrwt>
<totfact> 0.26991344E+03</totfact>
</mgrwt>
</event>
<event>
 4    1  0.5531008E-005  0.8919055E+03  0.7818608E-02  0.9435757E-01
          2   -1    0    0  501    0  0.00000000000E+00  0.00000000000E+00  0.22630315144E+04  0.22630315144E+04  0.25500000000E-02 0.  1.
         -2   -1    0    0    0  501 -0.00000000000E+00 -0.00000000000E+00 -0.87879408033E+02  0.87879408070E+02  0.25500000000E-02 0. -1.
    5000001    1    1    2    0    0  0.27744553132E+03  0.28315970717E+03  0.14049000118E+04  0.14690556442E+04  0.16500000000E+03 0.  0.
   -5000001    1    1    2    0    0 -0.27744553132E+03 -0.28315970717E+03  0.77025209453E+03  0.88185527823E+03  0.16500000000E+03 0.  0.
<mgrwt>
<rscale>  0 0.89190553E+03</rscale>
<asrwt>0</asrwt>
<pdfrwt beam="1">  1        2 0.32329024E+00 0.89190553E+03</pdfrwt>
<pdfrwt beam="2">  1       -2 0.12554200E-01 0.89190553E+03</pdfrwt>
<totfact> 0.28116562E+02</totfact>
</mgrwt>
</event>
<event>
 4    1  0.5531008E-005  0.6756259E+03  0.7818608E-02  0.9759848E-01
         -2   -1    0    0    0  501 -0.00000000000E+00  0.00000000000E+00  0.33808811955E+03  0.33808811956E+03  0.25500000000E-02 0. -1.
          2   -1    0    0  501    0  0.00000000000E+00 -0.00000000000E+00 -0.33753797587E+03  0.33753797588E+03  0.25500000000E-02 0.  1.
    5000001    1    1    2    0    0  0.21958996950E+03  0.10960922048E+03  0.16354987487E+03  0.33794599789E+03  0.16500000000E+03 0.  0.
   -5000001    1    1    2    0    0 -0.21958996950E+03 -0.10960922048E+03 -0.16299973118E+03  0.33768009755E+03  0.16500000000E+03 0.  0.
<mgrwt>
<rscale>  0 0.67562587E+03</rscale>
<asrwt>0</asrwt>
<pdfrwt beam="1">  1        2 0.48219711E-01 0.67562587E+03</pdfrwt>
<pdfrwt beam="2">  1       -2 0.48298303E-01 0.67562587E+03</pdfrwt>
<totfact> 0.42803985E+02</totfact>
</mgrwt>
</event>
<event>
 4    1  0.5531008E-005  0.1646889E+04  0.7818608E-02  0.8792249E-01
          2   -1    0    0  501    0  0.00000000000E+00  0.00000000000E+00  0.34146962935E+04  0.34146962935E+04  0.25500000000E-02 0.  1.
         -2   -1    0    0    0  501 -0.00000000000E+00 -0.00000000000E+00 -0.19857128147E+03  0.19857128149E+03  0.25500000000E-02 0. -1.
    5000001    1    1    2    0    0  0.47867679584E+03  0.52742699537E+03  0.24392509693E+04  0.25464644120E+04  0.16500000000E+03 0.  0.
   -5000001    1    1    2    0    0 -0.47867679584E+03 -0.52742699537E+03  0.77687404274E+03  0.10668031630E+04  0.16500000000E+03 0.  0.
<mgrwt>
<rscale>  0 0.16468887E+04</rscale>
<asrwt>0</asrwt>
<pdfrwt beam="1">  1        2 0.48781372E+00 0.16468887E+04</pdfrwt>
<pdfrwt beam="2">  1       -2 0.28367328E-01 0.16468887E+04</pdfrwt>
<totfact> 0.14858511E+01</totfact>
</mgrwt>
</event>
<event>
 4    1  0.5531008E-005  0.4272649E+03  0.7818608E-02  0.1034727E+00
          2   -1    0    0  501    0  0.00000000000E+00  0.00000000000E+00  0.19814090876E+04  0.19814090876E+04  0.25500000000E-02 0.  1.
         -2   -1    0    0    0  501 -0.00000000000E+00 -0.00000000000E+00 -0.23033516624E+02  0.23033516765E+02  0.25500000000E-02 0. -1.
    5000001    1    1    2    0    0  0.20003134112E+02 -0.96411037279E+02  0.54114155179E+03  0.57424245102E+03  0.16500000000E+03 0.  0.
   -5000001    1    1    2    0    0 -0.20003134112E+02  0.96411037279E+02  0.14172340192E+04  0.14302001534E+04  0.16500000000E+03 0.  0.
<mgrwt>
<rscale>  0 0.42726488E+03</rscale>
<asrwt>0</asrwt>
<pdfrwt beam="1">  1        2 0.28305846E+00 0.42726488E+03</pdfrwt>
<pdfrwt beam="2">  1       -2 0.32905022E-02 0.42726488E+03</pdfrwt>
<totfact> 0.33151376E+03</totfact>
</mgrwt>
</event>
<event>
 4    1  0.5531008E-005  0.3678830E+03  0.7818608E-02  0.1055505E+00
          2   -1    0    0  501    0  0.00000000000E+00  0.00000000000E+00  0.11374706427E+03  0.11374706430E+03  0.25500000000E-02 0.  1.
         -2   -1    0    0    0  501 -0.00000000000E+00 -0.00000000000E+00 -0.29745355444E+03  0.29745355445E+03  0.25500000000E-02 0. -1.
    5000001    1    1    2    0    0 -0.60684210715E+02 -0.53733226805E+02 -0.98890223203E+02  0.20874412408E+03  0.16500000000E+03 0.  0.
   -5000001    1    1    2    0    0  0.60684210715E+02  0.53733226805E+02 -0.84816266963E+02  0.20245649467E+03  0.16500000000E+03 0.  0.
<mgrwt>
<rscale>  0 0.36788296E+03</rscale>
<asrwt>0</asrwt>
<pdfrwt beam="1">  1        2 0.16249581E-01 0.36788296E+03</pdfrwt>
<pdfrwt beam="2">  1       -2 0.42493365E-01 0.36788296E+03</pdfrwt>
<totfact> 0.18894432E+03</totfact>
</mgrwt>
</event>
<event>
 4    1  0.5531008E-005  0.3486934E+03  0.7818608E-02  0.1063153E+00
          2   -1    0    0  501    0  0.00000000000E+00  0.00000000000E+00  0.21902383020E+03  0.21902383021E+03  0.25500000000E-02 0.  1.
         -2   -1    0    0    0  501 -0.00000000000E+00 -0.00000000000E+00 -0.13878290405E+03  0.13878290408E+03  0.25500000000E-02 0. -1.
    5000001    1    1    2    0    0  0.15255835480E+02 -0.51712137170E+02  0.23420041382E+02  0.17515816848E+03  0.16500000000E+03 0.  0.
   -5000001    1    1    2    0    0 -0.15255835480E+02  0.51712137170E+02  0.56820884760E+02  0.18264856581E+03  0.16500000000E+03 0.  0.
<mgrwt>
<rscale>  0 0.34869335E+03</rscale>
<asrwt>0</asrwt>
<pdfrwt beam="1">  1        2 0.31289119E-01 0.34869335E+03</pdfrwt>
<pdfrwt beam="2">  1       -2 0.19826129E-01 0.34869335E+03</pdfrwt>
<totfact> 0.35851965E+03</totfact>
</mgrwt>
</event>
<event>
 4    1  0.5531008E-005  0.4058986E+03  0.7818608E-02  0.1041756E+00
         -2   -1    0    0    0  501 -0.00000000000E+00  0.00000000000E+00  0.19315236994E+02  0.19315237163E+02  0.25500000000E-02 0. -1.
          2   -1    0    0  501    0  0.00000000000E+00 -0.00000000000E+00 -0.21324309491E+04  0.21324309491E+04  0.25500000000E-02 0.  1.
    5000001    1    1    2    0    0  0.77276719666E+02  0.77405494715E+02 -0.81947498039E+03  0.84304658561E+03  0.16500000000E+03 0.  0.
   -5000001    1    1    2    0    0 -0.77276719666E+02 -0.77405494715E+02 -0.12936407318E+04  0.13086996007E+04  0.16500000000E+03 0.  0.
<mgrwt>
<rscale>  0 0.40589856E+03</rscale>
<asrwt>0</asrwt>
<pdfrwt beam="1">  1        2 0.30463284E+00 0.40589856E+03</pdfrwt>
<pdfrwt beam="2">  1       -2 0.27593209E-02 0.40589856E+03</pdfrwt>
<totfact> 0.36398925E+03</totfact>
</mgrwt>
</event>
<event>
 4    1  0.5531008E-005  0.5660119E+03  0.7818608E-02  0.9978543E-01
         -2   -1    0    0    0  501 -0.00000000000E+00  0.00000000000E+00  0.51361782664E+02  0.51361782727E+02  0.25500000000E-02 0. -1.
          2   -1    0    0  501    0  0.00000000000E+00 -0.00000000000E+00 -0.15593768796E+04  0.15593768796E+04  0.25500000000E-02 0.  1.
    5000001    1    1    2    0    0  0.10964368299E+03 -0.19192899690E+03 -0.57382526995E+03  0.63667803285E+03  0.16500000000E+03 0.  0.
   -5000001    1    1    2    0    0 -0.10964368299E+03  0.19192899690E+03 -0.93418982695E+03  0.97406062945E+03  0.16500000000E+03 0.  0.
<mgrwt>
<rscale>  0 0.56601193E+03</rscale>
<asrwt>0</asrwt>
<pdfrwt beam="1">  1        2 0.22276809E+00 0.56601193E+03</pdfrwt>
<pdfrwt beam="2">  1       -2 0.73373985E-02 0.56601193E+03</pdfrwt>
<totfact> 0.15604108E+03</totfact>
</mgrwt>
</event>
<event>
 4    1  0.5531008E-005  0.5727481E+03  0.7818608E-02  0.9963616E-01
         -2   -1    0    0    0  501 -0.00000000000E+00  0.00000000000E+00  0.17248715032E+02  0.17248715220E+02  0.25500000000E-02 0. -1.
          2   -1    0    0  501    0  0.00000000000E+00 -0.00000000000E+00 -0.47545623700E+04  0.47545623700E+04  0.25500000000E-02 0.  1.
    5000001    1    1    2    0    0 -0.11945985069E+03  0.17956847131E+03 -0.16110186512E+04  0.16337446515E+04  0.16500000000E+03 0.  0.
   -5000001    1    1    2    0    0  0.11945985069E+03 -0.17956847131E+03 -0.31262950038E+04  0.31380664337E+04  0.16500000000E+03 0.  0.
<mgrwt>
<rscale>  0 0.57274808E+03</rscale>
<asrwt>0</asrwt>
<pdfrwt beam="1">  1        2 0.67922236E+00 0.57274808E+03</pdfrwt>
<pdfrwt beam="2">  1       -2 0.24641052E-02 0.57274808E+03</pdfrwt>
<totfact> 0.10564423E+02</totfact>
</mgrwt>
</event>
<event>
 4    1  0.5531008E-005  0.5477859E+03  0.7818608E-02  0.1002008E+00
         -2   -1    0    0    0  501 -0.00000000000E+00  0.00000000000E+00  0.32967235962E+02  0.32967236060E+02  0.25500000000E-02 0. -1.
          2   -1    0    0  501    0  0.00000000000E+00 -0.00000000000E+00 -0.22755121269E+04  0.22755121269E+04  0.25500000000E-02 0.  1.
    5000001    1    1    2    0    0  0.17484680300E+03 -0.54110202185E+02 -0.16250945986E+04  0.16436717352E+04  0.16500000000E+03 0.  0.
   -5000001    1    1    2    0    0 -0.17484680300E+03  0.54110202185E+02 -0.61745029234E+03  0.66480762782E+03  0.16500000000E+03 0.  0.
<mgrwt>
<rscale>  0 0.54778589E+03</rscale>
<asrwt>0</asrwt>
<pdfrwt beam="1">  1        2 0.32507306E+00 0.54778589E+03</pdfrwt>
<pdfrwt beam="2">  1       -2 0.47096066E-02 0.54778589E+03</pdfrwt>
<totfact> 0.13596115E+03</totfact>
</mgrwt>
</event>
<event>
 4    1  0.5531008E-005  0.9924037E+03  0.7818608E-02  0.9316916E-01
         -2   -1    0    0    0  501 -0.00000000000E+00  0.00000000000E+00  0.50533640056E+03  0.50533640057E+03  0.25500000000E-02 0. -1.
          2   -1    0    0  501    0  0.00000000000E+00 -0.00000000000E+00 -0.48723239180E+03  0.48723239180E+03  0.25500000000E-02 0.  1.
    5000001    1    1    2    0    0 -0.41194148899E+03  0.34618471407E+02  0.22839885415E+03  0.50028518416E+03  0.16500000000E+03 0.  0.
   -5000001    1    1    2    0    0  0.41194148899E+03 -0.34618471407E+02 -0.21029484538E+03  0.49228360821E+03  0.16500000000E+03 0.  0.
<mgrwt>
<rscale>  0 0.99240367E+03</rscale>
<asrwt>0</asrwt>
<pdfrwt beam="1">  1        2 0.69604627E-01 0.99240367E+03</pdfrwt>
<pdfrwt beam="2">  1       -2 0.72190914E-01 0.99240367E+03</pdfrwt>
<totfact> 0.12013351E+02</totfact>
</mgrwt>
</event>
<event>
 4    1  0.5531008E-005  0.3819080E+03  0.7818608E-02  0.1050231E+00
         -2   -1    0    0    0  501 -0.00000000000E+00  0.00000000000E+00  0.21907041672E+03  0.21907041673E+03  0.25500000000E-02 0. -1.
          2   -1    0    0  501    0  0.00000000000E+00 -0.00000000000E+00 -0.16644613852E+03  0.16644613854E+03  0.25500000000E-02 0.  1.
    5000001    1    1    2    0    0  0.19797854725E+02  0.76802525166E+02  0.81119186937E+02  0.20023961999E+03  0.16500000000E+03 0.  0.
   -5000001    1    1    2    0    0 -0.19797854725E+02 -0.76802525166E+02 -0.28494908736E+02  0.18527693528E+03  0.16500000000E+03 0.  0.
<mgrwt>
<rscale>  0 0.38190797E+03</rscale>
<asrwt>0</asrwt>
<pdfrwt beam="1">  1        2 0.23778020E-01 0.38190797E+03</pdfrwt>
<pdfrwt beam="2">  1       -2 0.31295774E-01 0.38190797E+03</pdfrwt>
<totfact> 0.21690528E+03</totfact>
</mgrwt>
</event>
<event>
 4    1  0.5531008E-005  0.6707877E+03  0.7818608E-02  0.9768536E-01
          2   -1    0    0  501    0  0.00000000000E+00  0.00000000000E+00  0.62275358114E+03  0.62275358114E+03  0.25500000000E-02 0.  1.
         -2   -1    0    0    0  501 -0.00000000000E+00 -0.00000000000E+00 -0.18063171236E+03  0.18063171238E+03  0.25500000000E-02 0. -1.
    5000001    1    1    2    0    0 -0.25878041936E+03 -0.31568729622E+02  0.63530754008E+02  0.31500007435E+03  0.16500000000E+03 0.  0.
   -5000001    1    1    2    0    0  0.25878041936E+03  0.31568729622E+02  0.37859111476E+03  0.48838521918E+03  0.16500000000E+03 0.  0.
<mgrwt>
<rscale>  0 0.67078773E+03</rscale>
<asrwt>0</asrwt>
<pdfrwt beam="1">  1        2 0.88964797E-01 0.67078773E+03</pdfrwt>
<pdfrwt beam="2">  1       -2 0.25804531E-01 0.67078773E+03</pdfrwt>
<totfact> 0.70486956E+02</totfact>
</mgrwt>
</event>
<event>
 4    1  0.5531008E-005  0.4382610E+03  0.7818608E-02  0.1031282E+00
          2   -1    0    0  501    0  0.00000000000E+00  0.00000000000E+00  0.87388205332E+02  0.87388205369E+02  0.25500000000E-02 0.  1.
         -2   -1    0    0    0  501 -0.00000000000E+00 -0.00000000000E+00 -0.54948124479E+03  0.54948124480E+03  0.25500000000E-02 0. -1.
    5000001    1    1    2    0    0 -0.10945574083E+03  0.11813585008E+02 -0.95713508169E+02  0.22024122148E+03  0.16500000000E+03 0.  0.
   -5000001    1    1    2    0    0  0.10945574083E+03 -0.11813585008E+02 -0.36637953129E+03  0.41662822869E+03  0.16500000000E+03 0.  0.
<mgrwt>
<rscale>  0 0.43826102E+03</rscale>
<asrwt>0</asrwt>
<pdfrwt beam="1">  1        2 0.12484030E-01 0.43826102E+03</pdfrwt>
<pdfrwt beam="2">  1       -2 0.78497319E-01 0.43826102E+03</pdfrwt>
<totfact> 0.72851523E+02</totfact>
</mgrwt>
</event>
<event>
 4    1  0.5531008E-005  0.1212095E+04  0.7818608E-02  0.9102335E-01
         -2   -1    0    0    0  501 -0.00000000000E+00  0.00000000000E+00  0.26918868679E+03  0.26918868680E+03  0.25500000000E-02 0. -1.
          2   -1    0    0  501    0  0.00000000000E+00 -0.00000000000E+00 -0.13644461130E+04  0.13644461130E+04  0.25500000000E-02 0.  1.
    5000001    1    1    2    0    0 -0.20529144725E+03  0.49697364006E+03 -0.85182398467E+03  0.10207626943E+04  0.16500000000E+03 0.  0.
   -5000001    1    1    2    0    0  0.20529144725E+03 -0.49697364006E+03 -0.24343344152E+03  0.61287210548E+03  0.16500000000E+03 0.  0.
<mgrwt>
<rscale>  0 0.12120948E+04</rscale>
<asrwt>0</asrwt>
<pdfrwt beam="1">  1        2 0.19492087E+00 0.12120948E+04</pdfrwt>
<pdfrwt beam="2">  1       -2 0.38455528E-01 0.12120948E+04</pdfrwt>
<totfact> 0.10886710E+02</totfact>
</mgrwt>
</event>
<event>
 4    1  0.5531008E-005  0.5054496E+03  0.7818608E-02  0.1012366E+00
          2   -1    0    0  501    0  0.00000000000E+00  0.00000000000E+00  0.14694668410E+04  0.14694668410E+04  0.25500000000E-02 0.  1.
         -2   -1    0    0    0  501 -0.00000000000E+00 -0.00000000000E+00 -0.43464630276E+02  0.43464630351E+02  0.25500000000E-02 0. -1.
    5000001    1    1    2    0    0 -0.52705429182E+02 -0.14466378950E+02  0.16386050543E+03  0.23887738199E+03  0.16500000000E+03 0.  0.
   -5000001    1    1    2    0    0  0.52705429182E+02  0.14466378950E+02  0.12621417053E+04  0.12740540893E+04  0.16500000000E+03 0.  0.
<mgrwt>
<rscale>  0 0.50544963E+03</rscale>
<asrwt>0</asrwt>
<pdfrwt beam="1">  1        2 0.20992380E+00 0.50544963E+03</pdfrwt>
<pdfrwt beam="2">  1       -2 0.62092338E-02 0.50544963E+03</pdfrwt>
<totfact> 0.22623573E+03</totfact>
</mgrwt>
</event>
<event>
 4    1  0.5531008E-005  0.3875034E+03  0.7818608E-02  0.1048195E+00
          2   -1    0    0  501    0  0.00000000000E+00  0.00000000000E+00  0.11310488672E+03  0.11310488675E+03  0.25500000000E-02 0.  1.
         -2   -1    0    0    0  501 -0.00000000000E+00 -0.00000000000E+00 -0.33190177962E+03  0.33190177963E+03  0.25500000000E-02 0. -1.
    5000001    1    1    2    0    0 -0.99990394205E+02  0.52342585784E+00 -0.12982438527E+03  0.23254617588E+03  0.16500000000E+03 0.  0.
   -5000001    1    1    2    0    0  0.99990394205E+02 -0.52342585784E+00 -0.88972507628E+02  0.21246049050E+03  0.16500000000E+03 0.  0.
<mgrwt>
<rscale>  0 0.38750336E+03</rscale>
<asrwt>0</asrwt>
<pdfrwt beam="1">  1        2 0.16157841E-01 0.38750336E+03</pdfrwt>
<pdfrwt beam="2">  1       -2 0.47414540E-01 0.38750336E+03</pdfrwt>
<totfact> 0.15347108E+03</totfact>
</mgrwt>
</event>
<event>
 4    1  0.5531008E-005  0.4212794E+03  0.7818608E-02  0.1036651E+00
          2   -1    0    0  501    0  0.00000000000E+00  0.00000000000E+00  0.10825455144E+04  0.10825455144E+04  0.25500000000E-02 0.  1.
         -2   -1    0    0    0  501 -0.00000000000E+00 -0.00000000000E+00 -0.40985874176E+02  0.40985874255E+02  0.25500000000E-02 0. -1.
    5000001    1    1    2    0    0  0.30008312683E+02  0.12244065854E+03  0.42641871574E+03  0.47428908361E+03  0.16500000000E+03 0.  0.
   -5000001    1    1    2    0    0 -0.30008312683E+02 -0.12244065854E+03  0.61514092450E+03  0.64924230507E+03  0.16500000000E+03 0.  0.
<mgrwt>
<rscale>  0 0.42127936E+03</rscale>
<asrwt>0</asrwt>
<pdfrwt beam="1">  1        2 0.15464933E+00 0.42127936E+03</pdfrwt>
<pdfrwt beam="2">  1       -2 0.58551259E-02 0.42127936E+03</pdfrwt>
<totfact> 0.40270476E+03</totfact>
</mgrwt>
</event>
<event>
 4    1  0.5531008E-005  0.6258666E+03  0.7818608E-02  0.9853148E-01
          2   -1    0    0  501    0  0.00000000000E+00  0.00000000000E+00  0.23332860525E+04  0.23332860525E+04  0.25500000000E-02 0.  1.
         -2   -1    0    0    0  501 -0.00000000000E+00 -0.00000000000E+00 -0.41969677410E+02  0.41969677487E+02  0.25500000000E-02 0. -1.
    5000001    1    1    2    0    0  0.20544215619E+03 -0.15955708291E+03  0.13548159084E+04  0.13893941442E+04  0.16500000000E+03 0.  0.
   -5000001    1    1    2    0    0 -0.20544215619E+03  0.15955708291E+03  0.93650046667E+03  0.98586158578E+03  0.16500000000E+03 0.  0.
<mgrwt>
<rscale>  0 0.62586664E+03</rscale>
<asrwt>0</asrwt>
<pdfrwt beam="1">  1        2 0.33332664E+00 0.62586664E+03</pdfrwt>
<pdfrwt beam="2">  1       -2 0.59956671E-02 0.62586664E+03</pdfrwt>
<totfact> 0.86877528E+02</totfact>
</mgrwt>
</event>
<event>
 4    1  0.5531008E-005  0.7313878E+03  0.7818608E-02  0.9665011E-01
          2   -1    0    0  501    0  0.00000000000E+00  0.00000000000E+00  0.10863013347E+04  0.10863013347E+04  0.25500000000E-02 0.  1.
         -2   -1    0    0    0  501 -0.00000000000E+00 -0.00000000000E+00 -0.12310768827E+03  0.12310768829E+03  0.25500000000E-02 0. -1.
    5000001    1    1    2    0    0 -0.85601030819E+02  0.26248708414E+03  0.19385453806E+03  0.37554172571E+03  0.16500000000E+03 0.  0.
   -5000001    1    1    2    0    0  0.85601030819E+02 -0.26248708414E+03  0.76933910834E+03  0.83386729726E+03  0.16500000000E+03 0.  0.
<mgrwt>
<rscale>  0 0.73138785E+03</rscale>
<asrwt>0</asrwt>
<pdfrwt beam="1">  1        2 0.15518591E+00 0.73138785E+03</pdfrwt>
<pdfrwt beam="2">  1       -2 0.17586812E-01 0.73138785E+03</pdfrwt>
<totfact> 0.66748468E+02</totfact>
</mgrwt>
</event>
<event>
 4    1  0.5531008E-005  0.3635090E+03  0.7818608E-02  0.1057203E+00
         -2   -1    0    0    0  501 -0.00000000000E+00  0.00000000000E+00  0.37473601501E+02  0.37473601587E+02  0.25500000000E-02 0. -1.
          2   -1    0    0  501    0  0.00000000000E+00 -0.00000000000E+00 -0.88154607934E+03  0.88154607935E+03  0.25500000000E-02 0.  1.
    5000001    1    1    2    0    0 -0.36343666138E+02 -0.51447701203E+02 -0.31353071015E+03  0.35985307312E+03  0.16500000000E+03 0.  0.
   -5000001    1    1    2    0    0  0.36343666138E+02  0.51447701203E+02 -0.53054176769E+03  0.55916660781E+03  0.16500000000E+03 0.  0.
<mgrwt>
<rscale>  0 0.36350905E+03</rscale>
<asrwt>0</asrwt>
<pdfrwt beam="1">  1        2 0.12593514E+00 0.36350905E+03</pdfrwt>
<pdfrwt beam="2">  1       -2 0.53533722E-02 0.36350905E+03</pdfrwt>
<totfact> 0.61095023E+03</totfact>
</mgrwt>
</event>
<event>
 4    1  0.5531008E-005  0.3728166E+03  0.7818608E-02  0.1053621E+00
          2   -1    0    0  501    0  0.00000000000E+00  0.00000000000E+00  0.91241540937E+03  0.91241540937E+03  0.25500000000E-02 0.  1.
         -2   -1    0    0    0  501 -0.00000000000E+00 -0.00000000000E+00 -0.38083581209E+02  0.38083581294E+02  0.25500000000E-02 0. -1.
    5000001    1    1    2    0    0  0.54749718556E+02  0.57178317053E+01  0.60805567057E+03  0.63244519430E+03  0.16500000000E+03 0.  0.
   -5000001    1    1    2    0    0 -0.54749718556E+02 -0.57178317053E+01  0.26627615759E+03  0.31805379636E+03  0.16500000000E+03 0.  0.
<mgrwt>
<rscale>  0 0.37281656E+03</rscale>
<asrwt>0</asrwt>
<pdfrwt beam="1">  1        2 0.13034503E+00 0.37281656E+03</pdfrwt>
<pdfrwt beam="2">  1       -2 0.54405127E-02 0.37281656E+03</pdfrwt>
<totfact> 0.56996325E+03</totfact>
</mgrwt>
</event>
<event>
 4    1  0.5531008E-005  0.5638274E+03  0.7818608E-02  0.9983432E-01
         -2   -1    0    0    0  501 -0.00000000000E+00  0.00000000000E+00  0.47279544073E+02  0.47279544142E+02  0.25500000000E-02 0. -1.
          2   -1    0    0  501    0  0.00000000000E+00 -0.00000000000E+00 -0.16809663408E+04  0.16809663408E+04  0.25500000000E-02 0.  1.
    5000001    1    1    2    0    0 -0.21908339083E+03  0.29522834412E+02 -0.63860784986E+03  0.69563935756E+03  0.16500000000E+03 0.  0.
   -5000001    1    1    2    0    0  0.21908339083E+03 -0.29522834412E+02 -0.99507894688E+03  0.10326065274E+04  0.16500000000E+03 0.  0.
<mgrwt>
<rscale>  0 0.56382736E+03</rscale>
<asrwt>0</asrwt>
<pdfrwt beam="1">  1        2 0.24013801E+00 0.56382736E+03</pdfrwt>
<pdfrwt beam="2">  1       -2 0.67542216E-02 0.56382736E+03</pdfrwt>
<totfact> 0.15411267E+03</totfact>
</mgrwt>
</event>
<event>
 4    1  0.5531008E-005  0.5258478E+03  0.7818608E-02  0.1007244E+00
          2   -1    0    0  501    0  0.00000000000E+00  0.00000000000E+00  0.72922377726E+03  0.72922377726E+03  0.25500000000E-02 0.  1.
         -2   -1    0    0    0  501 -0.00000000000E+00 -0.00000000000E+00 -0.94798015380E+02  0.94798015415E+02  0.25500000000E-02 0. -1.
    5000001    1    1    2    0    0 -0.54165045640E+02  0.15597826626E+03  0.50682342481E+03  0.55799467350E+03  0.16500000000E+03 0.  0.
   -5000001    1    1    2    0    0  0.54165045640E+02 -0.15597826626E+03  0.12760233707E+03  0.26602711918E+03  0.16500000000E+03 0.  0.
<mgrwt>
<rscale>  0 0.52584776E+03</rscale>
<asrwt>0</asrwt>
<pdfrwt beam="1">  1        2 0.10417482E+00 0.52584776E+03</pdfrwt>
<pdfrwt beam="2">  1       -2 0.13542574E-01 0.52584776E+03</pdfrwt>
<totfact> 0.17783934E+03</totfact>
</mgrwt>
</event>
<event>
 4    1  0.5531008E-005  0.3493904E+03  0.7818608E-02  0.1062866E+00
          2   -1    0    0  501    0  0.00000000000E+00  0.00000000000E+00  0.55122919222E+03  0.55122919223E+03  0.25500000000E-02 0.  1.
         -2   -1    0    0    0  501 -0.00000000000E+00 -0.00000000000E+00 -0.55364291614E+02  0.55364291673E+02  0.25500000000E-02 0. -1.
    5000001    1    1    2    0    0 -0.27732861890E+01  0.50485799113E+02  0.20080292888E+03  0.26477032174E+03  0.16500000000E+03 0.  0.
   -5000001    1    1    2    0    0  0.27732861890E+01 -0.50485799113E+02  0.29506197172E+03  0.34182316215E+03  0.16500000000E+03 0.  0.
<mgrwt>
<rscale>  0 0.34939040E+03</rscale>
<asrwt>0</asrwt>
<pdfrwt beam="1">  1        2 0.78747026E-01 0.34939040E+03</pdfrwt>
<pdfrwt beam="2">  1       -2 0.79091847E-02 0.34939040E+03</pdfrwt>
<totfact> 0.58608554E+03</totfact>
</mgrwt>
</event>
<event>
 4    1  0.5531008E-005  0.5235135E+03  0.7818608E-02  0.1007817E+00
          2   -1    0    0  501    0  0.00000000000E+00  0.00000000000E+00  0.63510177848E+03  0.63510177848E+03  0.25500000000E-02 0.  1.
         -2   -1    0    0    0  501 -0.00000000000E+00 -0.00000000000E+00 -0.10788284331E+03  0.10788284334E+03  0.25500000000E-02 0. -1.
    5000001    1    1    2    0    0 -0.15083845293E+03 -0.13060805902E+03  0.20899444015E+03  0.33273770447E+03  0.16500000000E+03 0.  0.
   -5000001    1    1    2    0    0  0.15083845293E+03  0.13060805902E+03  0.31822449502E+03  0.41024691735E+03  0.16500000000E+03 0.  0.
<mgrwt>
<rscale>  0 0.52351346E+03</rscale>
<asrwt>0</asrwt>
<pdfrwt beam="1">  1        2 0.90728827E-01 0.52351346E+03</pdfrwt>
<pdfrwt beam="2">  1       -2 0.15411835E-01 0.52351346E+03</pdfrwt>
<totfact> 0.16931374E+03</totfact>
</mgrwt>
</event>
<event>
 4    1  0.5531008E-005  0.5245758E+03  0.7818608E-02  0.1007556E+00
          2   -1    0    0  501    0  0.00000000000E+00  0.00000000000E+00  0.19799206165E+04  0.19799206165E+04  0.25500000000E-02 0.  1.
         -2   -1    0    0    0  501 -0.00000000000E+00 -0.00000000000E+00 -0.34746317501E+02  0.34746317595E+02  0.25500000000E-02 0. -1.
    5000001    1    1    2    0    0 -0.13173438121E+03 -0.12554602138E+03  0.13257144017E+04  0.13482801732E+04  0.16500000000E+03 0.  0.
   -5000001    1    1    2    0    0  0.13173438121E+03  0.12554602138E+03  0.61945989726E+03  0.66638676082E+03  0.16500000000E+03 0.  0.
<mgrwt>
<rscale>  0 0.52457583E+03</rscale>
<asrwt>0</asrwt>
<pdfrwt beam="1">  1        2 0.28284578E+00 0.52457583E+03</pdfrwt>
<pdfrwt beam="2">  1       -2 0.49637601E-02 0.52457583E+03</pdfrwt>
<totfact> 0.17652503E+03</totfact>
</mgrwt>
</event>
<event>
 4    1  0.5531008E-005  0.9022122E+03  0.7818608E-02  0.9422820E-01
          2   -1    0    0  501    0  0.00000000000E+00  0.00000000000E+00  0.13680221282E+04  0.13680221282E+04  0.25500000000E-02 0.  1.
         -2   -1    0    0    0  501 -0.00000000000E+00 -0.00000000000E+00 -0.14875250599E+03  0.14875250602E+03  0.25500000000E-02 0. -1.
    5000001    1    1    2    0    0 -0.14248358351E+03  0.38671354903E+03  0.74436777172E+03  0.86669332532E+03  0.16500000000E+03 0.  0.
   -5000001    1    1    2    0    0  0.14248358351E+03 -0.38671354903E+03  0.47490185046E+03  0.65008130887E+03  0.16500000000E+03 0.  0.
<mgrwt>
<rscale>  0 0.90221221E+03</rscale>
<asrwt>0</asrwt>
<pdfrwt beam="1">  1        2 0.19543172E+00 0.90221221E+03</pdfrwt>
<pdfrwt beam="2">  1       -2 0.21250359E-01 0.90221221E+03</pdfrwt>
<totfact> 0.33056911E+02</totfact>
</mgrwt>
</event>
<event>
 4    1  0.5531008E-005  0.4246154E+03  0.7818608E-02  0.1035575E+00
          2   -1    0    0  501    0  0.00000000000E+00  0.00000000000E+00  0.22466998517E+04  0.22466998517E+04  0.25500000000E-02 0.  1.
         -2   -1    0    0    0  501 -0.00000000000E+00 -0.00000000000E+00 -0.20062561080E+02  0.20062561242E+02  0.25500000000E-02 0. -1.
    5000001    1    1    2    0    0  0.94654202640E+02  0.63545716142E+02  0.14851740834E+04  0.14986542410E+04  0.16500000000E+03 0.  0.
   -5000001    1    1    2    0    0 -0.94654202640E+02 -0.63545716142E+02  0.74146320720E+03  0.76810817191E+03  0.16500000000E+03 0.  0.
<mgrwt>
<rscale>  0 0.42461537E+03</rscale>
<asrwt>0</asrwt>
<pdfrwt beam="1">  1        2 0.32095732E+00 0.42461537E+03</pdfrwt>
<pdfrwt beam="2">  1       -2 0.28660784E-02 0.42461537E+03</pdfrwt>
<totfact> 0.30146731E+03</totfact>
</mgrwt>
</event>
<event>
 4    1  0.5531008E-005  0.4271964E+03  0.7818608E-02  0.1034749E+00
         -2   -1    0    0    0  501 -0.00000000000E+00  0.00000000000E+00  0.89587247894E+02  0.89587247930E+02  0.25500000000E-02 0. -1.
          2   -1    0    0  501    0  0.00000000000E+00 -0.00000000000E+00 -0.50927101417E+03  0.50927101418E+03  0.25500000000E-02 0.  1.
    5000001    1    1    2    0    0  0.18742866673E+02  0.11601194739E+03 -0.11487738956E+03  0.23287739611E+03  0.16500000000E+03 0.  0.
   -5000001    1    1    2    0    0 -0.18742866673E+02 -0.11601194739E+03 -0.30480637671E+03  0.36598086599E+03  0.16500000000E+03 0.  0.
<mgrwt>
<rscale>  0 0.42719639E+03</rscale>
<asrwt>0</asrwt>
<pdfrwt beam="1">  1        2 0.72753000E-01 0.42719639E+03</pdfrwt>
<pdfrwt beam="2">  1       -2 0.12798179E-01 0.42719639E+03</pdfrwt>
<totfact> 0.29720811E+03</totfact>
</mgrwt>
</event>
<event>
 4    1  0.5531008E-005  0.6106734E+03  0.7818608E-02  0.9883506E-01
         -2   -1    0    0    0  501 -0.00000000000E+00  0.00000000000E+00  0.73746718133E+02  0.73746718177E+02  0.25500000000E-02 0. -1.
          2   -1    0    0  501    0  0.00000000000E+00 -0.00000000000E+00 -0.12641988267E+04  0.12641988267E+04  0.25500000000E-02 0.  1.
    5000001    1    1    2    0    0 -0.59636548440E+02 -0.24740170208E+03 -0.51803191959E+03  0.60028842219E+03  0.16500000000E+03 0.  0.
   -5000001    1    1    2    0    0  0.59636548440E+02  0.24740170208E+03 -0.67242018894E+03  0.73765712266E+03  0.16500000000E+03 0.  0.
<mgrwt>
<rscale>  0 0.61067345E+03</rscale>
<asrwt>0</asrwt>
<pdfrwt beam="1">  1        2 0.18059982E+00 0.61067345E+03</pdfrwt>
<pdfrwt beam="2">  1       -2 0.10535246E-01 0.61067345E+03</pdfrwt>
<totfact> 0.12506001E+03</totfact>
</mgrwt>
</event>
<event>
 4    1  0.5531008E-005  0.3711440E+03  0.7818608E-02  0.1054256E+00
          2   -1    0    0  501    0  0.00000000000E+00  0.00000000000E+00  0.41203422180E+04  0.41203422180E+04  0.25500000000E-02 0.  1.
         -2   -1    0    0    0  501 -0.00000000000E+00 -0.00000000000E+00 -0.83577920947E+01  0.83577924837E+01  0.25500000000E-02 0. -1.
    5000001    1    1    2    0    0  0.28029639736E+01 -0.83842889445E+02  0.19090519304E+04  0.19180046297E+04  0.16500000000E+03 0.  0.
   -5000001    1    1    2    0    0 -0.28029639736E+01  0.83842889445E+02  0.22029324955E+04  0.22106953808E+04  0.16500000000E+03 0.  0.
<mgrwt>
<rscale>  0 0.37114399E+03</rscale>
<asrwt>0</asrwt>
<pdfrwt beam="1">  1        2 0.58862300E+00 0.37114399E+03</pdfrwt>
<pdfrwt beam="2">  1       -2 0.11939649E-02 0.37114399E+03</pdfrwt>
<totfact> 0.97417462E+02</totfact>
</mgrwt>
</event>
<event>
 4    1  0.5531008E-005  0.4371953E+03  0.7818608E-02  0.1031611E+00
          2   -1    0    0  501    0  0.00000000000E+00  0.00000000000E+00  0.90940218913E+03  0.90940218913E+03  0.25500000000E-02 0.  1.
         -2   -1    0    0    0  501 -0.00000000000E+00 -0.00000000000E+00 -0.52545426567E+02  0.52545426629E+02  0.25500000000E-02 0. -1.
    5000001    1    1    2    0    0  0.13028913991E+03 -0.20026339177E+02  0.55257532055E+03  0.59155794232E+03  0.16500000000E+03 0.  0.
   -5000001    1    1    2    0    0 -0.13028913991E+03  0.20026339177E+02  0.30428144201E+03  0.37038967344E+03  0.16500000000E+03 0.  0.
<mgrwt>
<rscale>  0 0.43719527E+03</rscale>
<asrwt>0</asrwt>
<pdfrwt beam="1">  1        2 0.12991461E+00 0.43719527E+03</pdfrwt>
<pdfrwt beam="2">  1       -2 0.75064889E-02 0.43719527E+03</pdfrwt>
<totfact> 0.34760410E+03</totfact>
</mgrwt>
</event>
<event>
 4    1  0.5531008E-005  0.7090150E+03  0.7818608E-02  0.9701938E-01
          2   -1    0    0  501    0  0.00000000000E+00  0.00000000000E+00  0.68484277702E+03  0.68484277703E+03  0.25500000000E-02 0.  1.
         -2   -1    0    0    0  501 -0.00000000000E+00 -0.00000000000E+00 -0.18351010232E+03  0.18351010234E+03  0.25500000000E-02 0. -1.
    5000001    1    1    2    0    0  0.29466118532E+03  0.96799351655E+02  0.30882804609E+03  0.46775537481E+03  0.16500000000E+03 0.  0.
   -5000001    1    1    2    0    0 -0.29466118532E+03 -0.96799351655E+02  0.19250462862E+03  0.40059750455E+03  0.16500000000E+03 0.  0.
<mgrwt>
<rscale>  0 0.70901500E+03</rscale>
<asrwt>0</asrwt>
<pdfrwt beam="1">  1        2 0.97834682E-01 0.70901500E+03</pdfrwt>
<pdfrwt beam="2">  1       -2 0.26215729E-01 0.70901500E+03</pdfrwt>
<totfact> 0.61020429E+02</totfact>
</mgrwt>
</event>
<event>
 4    1  0.5531008E-005  0.3872956E+03  0.7818608E-02  0.1048270E+00
         -2   -1    0    0    0  501 -0.00000000000E+00  0.00000000000E+00  0.31577235444E+02  0.31577235547E+02  0.25500000000E-02 0.  1.
          2   -1    0    0  501    0  0.00000000000E+00 -0.00000000000E+00 -0.11875476917E+04  0.11875476917E+04  0.25500000000E-02 0. -1.
    5000001    1    1    2    0    0  0.89260426635E+02  0.32983211320E+02 -0.68789478953E+03  0.71377836718E+03  0.16500000000E+03 0.  0.
   -5000001    1    1    2    0    0 -0.89260426635E+02 -0.32983211320E+02 -0.46807566672E+03  0.50534656006E+03  0.16500000000E+03 0.  0.
<mgrwt>
<rscale>  0 0.38729561E+03</rscale>
<asrwt>0</asrwt>
<pdfrwt beam="1">  1        2 0.16964964E+00 0.38729561E+03</pdfrwt>
<pdfrwt beam="2">  1       -2 0.45110344E-02 0.38729561E+03</pdfrwt>
<totfact> 0.52422274E+03</totfact>
</mgrwt>
</event>
<event>
 4    1  0.5531008E-005  0.1115344E+04  0.7818608E-02  0.9190365E-01
          2   -1    0    0  501    0  0.00000000000E+00  0.00000000000E+00  0.13672214927E+04  0.13672214927E+04  0.25500000000E-02 0.  1.
         -2   -1    0    0    0  501 -0.00000000000E+00 -0.00000000000E+00 -0.22746706724E+03  0.22746706725E+03  0.25500000000E-02 0. -1.
    5000001    1    1    2    0    0  0.23927804363E+03 -0.41218214323E+03  0.91010546541E+03  0.10405119219E+04  0.16500000000E+03 0.  0.
   -5000001    1    1    2    0    0 -0.23927804363E+03  0.41218214323E+03  0.22964896006E+03  0.55417663810E+03  0.16500000000E+03 0.  0.
<mgrwt>
<rscale>  0 0.11153436E+04</rscale>
<asrwt>0</asrwt>
<pdfrwt beam="1">  1        2 0.19531735E+00 0.11153436E+04</pdfrwt>
<pdfrwt beam="2">  1       -2 0.32495296E-01 0.11153436E+04</pdfrwt>
<totfact> 0.15064673E+02</totfact>
</mgrwt>
</event>
<event>
 4    1  0.5531008E-005  0.6322357E+03  0.7818608E-02  0.9840696E-01
         -2   -1    0    0    0  501 -0.00000000000E+00  0.00000000000E+00  0.38198246275E+03  0.38198246276E+03  0.25500000000E-02 0. -1.
          2   -1    0    0  501    0  0.00000000000E+00 -0.00000000000E+00 -0.26161017051E+03  0.26161017052E+03  0.25500000000E-02 0.  1.
    5000001    1    1    2    0    0  0.22276587020E+03 -0.62620700480E+01  0.21470761915E+03  0.35069674673E+03  0.16500000000E+03 0.  0.
   -5000001    1    1    2    0    0 -0.22276587020E+03  0.62620700480E+01 -0.94335326909E+02  0.29289588654E+03  0.16500000000E+03 0.  0.
<mgrwt>
<rscale>  0 0.63223571E+03</rscale>
<asrwt>0</asrwt>
<pdfrwt beam="1">  1        2 0.37372881E-01 0.63223571E+03</pdfrwt>
<pdfrwt beam="2">  1       -2 0.54568923E-01 0.63223571E+03</pdfrwt>
<totfact> 0.44290499E+02</totfact>
</mgrwt>
</event>
<event>
 4    1  0.5531008E-005  0.4440898E+03  0.7818608E-02  0.1029499E+00
         -2   -1    0    0    0  501 -0.00000000000E+00  0.00000000000E+00  0.27144556326E+02  0.27144556446E+02  0.25500000000E-02 0. -1.
          2   -1    0    0  501    0  0.00000000000E+00 -0.00000000000E+00 -0.18163468401E+04  0.18163468401E+04  0.25500000000E-02 0.  1.
    5000001    1    1    2    0    0 -0.99827407179E+02 -0.29879960407E+02 -0.13343234607E+04  0.13485186024E+04  0.16500000000E+03 0.  0.
   -5000001    1    1    2    0    0  0.99827407179E+02  0.29879960407E+02 -0.45487882304E+03  0.49497279411E+03  0.16500000000E+03 0.  0.
<mgrwt>
<rscale>  0 0.44408976E+03</rscale>
<asrwt>0</asrwt>
<pdfrwt beam="1">  1        2 0.25947804E+00 0.44408976E+03</pdfrwt>
<pdfrwt beam="2">  1       -2 0.38777949E-02 0.44408976E+03</pdfrwt>
<totfact> 0.31201270E+03</totfact>
</mgrwt>
</event>
<event>
 4    1  0.5531008E-005  0.5137479E+03  0.7818608E-02  0.1010252E+00
          2   -1    0    0  501    0  0.00000000000E+00  0.00000000000E+00  0.19960241246E+04  0.19960241246E+04  0.25500000000E-02 0.  1.
         -2   -1    0    0    0  501 -0.00000000000E+00 -0.00000000000E+00 -0.33057834557E+02  0.33057834655E+02  0.25500000000E-02 0. -1.
    5000001    1    1    2    0    0 -0.16541112523E+03 -0.73306385829E+02  0.12880410256E+04  0.13111099687E+04  0.16500000000E+03 0.  0.
   -5000001    1    1    2    0    0  0.16541112523E+03  0.73306385829E+02  0.67492526443E+03  0.71797199048E+03  0.16500000000E+03 0.  0.
<mgrwt>
<rscale>  0 0.51374794E+03</rscale>
<asrwt>0</asrwt>
<pdfrwt beam="1">  1        2 0.28514637E+00 0.51374794E+03</pdfrwt>
<pdfrwt beam="2">  1       -2 0.47225467E-02 0.51374794E+03</pdfrwt>
<totfact> 0.18722785E+03</totfact>
</mgrwt>
</event>
<event>
 4    1  0.5531008E-005  0.6660984E+03  0.7818608E-02  0.9777032E-01
          2   -1    0    0  501    0  0.00000000000E+00  0.00000000000E+00  0.35044745673E+03  0.35044745674E+03  0.25500000000E-02 0.  1.
         -2   -1    0    0    0  501 -0.00000000000E+00 -0.00000000000E+00 -0.31651472933E+03  0.31651472934E+03  0.25500000000E-02 0. -1.
    5000001    1    1    2    0    0  0.38918764248E+02 -0.22442800912E+03 -0.16163022827E+03  0.32439471663E+03  0.16500000000E+03 0.  0.
   -5000001    1    1    2    0    0 -0.38918764248E+02  0.22442800912E+03  0.19556295567E+03  0.34256746944E+03  0.16500000000E+03 0.  0.
<mgrwt>
<rscale>  0 0.66609844E+03</rscale>
<asrwt>0</asrwt>
<pdfrwt beam="1">  1        2 0.50063923E-01 0.66609844E+03</pdfrwt>
<pdfrwt beam="2">  1       -2 0.45216390E-01 0.66609844E+03</pdfrwt>
<totfact> 0.46867844E+02</totfact>
</mgrwt>
</event>
<event>
 4    1  0.5531008E-005  0.4019781E+03  0.7818608E-02  0.1043097E+00
          2   -1    0    0  501    0  0.00000000000E+00  0.00000000000E+00  0.16482366521E+03  0.16482366523E+03  0.25500000000E-02 0.  1.
         -2   -1    0    0    0  501 -0.00000000000E+00 -0.00000000000E+00 -0.24508983287E+03  0.24508983288E+03  0.25500000000E-02 0. -1.
    5000001    1    1    2    0    0 -0.90888550906E+02 -0.18926645537E+02  0.28672281359E+02  0.19148380171E+03  0.16500000000E+03 0.  0.
   -5000001    1    1    2    0    0  0.90888550906E+02  0.18926645537E+02 -0.10893844902E+03  0.21842969641E+03  0.16500000000E+03 0.  0.
<mgrwt>
<rscale>  0 0.40197813E+03</rscale>
<asrwt>0</asrwt>
<pdfrwt beam="1">  1        2 0.23546238E-01 0.40197813E+03</pdfrwt>
<pdfrwt beam="2">  1       -2 0.35012833E-01 0.40197813E+03</pdfrwt>
<totfact> 0.17812810E+03</totfact>
</mgrwt>
</event>
<event>
 4    1  0.5531008E-005  0.5575837E+03  0.7818608E-02  0.9997537E-01
          2   -1    0    0  501    0  0.00000000000E+00  0.00000000000E+00  0.97320268295E+03  0.97320268295E+03  0.25500000000E-02 0.  1.
         -2   -1    0    0    0  501 -0.00000000000E+00 -0.00000000000E+00 -0.79865057541E+02  0.79865057582E+02  0.25500000000E-02 0. -1.
    5000001    1    1    2    0    0 -0.17446151191E+03  0.13978229304E+03  0.48990063039E+03  0.56320825300E+03  0.16500000000E+03 0.  0.
   -5000001    1    1    2    0    0  0.17446151191E+03 -0.13978229304E+03  0.40343699501E+03  0.48985948754E+03  0.16500000000E+03 0.  0.
<mgrwt>
<rscale>  0 0.55758367E+03</rscale>
<asrwt>0</asrwt>
<pdfrwt beam="1">  1        2 0.13902895E+00 0.55758367E+03</pdfrwt>
<pdfrwt beam="2">  1       -2 0.11409295E-01 0.55758367E+03</pdfrwt>
<totfact> 0.16202092E+03</totfact>
</mgrwt>
</event>
<event>
 4    1  0.5531008E-005  0.4006282E+03  0.7818608E-02  0.1043562E+00
         -2   -1    0    0    0  501 -0.00000000000E+00  0.00000000000E+00  0.70857240596E+02  0.70857240642E+02  0.25500000000E-02 0. -1.
          2   -1    0    0  501    0  0.00000000000E+00 -0.00000000000E+00 -0.56628979455E+03  0.56628979455E+03  0.25500000000E-02 0.  1.
    5000001    1    1    2    0    0 -0.64984641904E+02  0.75589980645E+02 -0.33429850177E+03  0.38589809166E+03  0.16500000000E+03 0.  0.
   -5000001    1    1    2    0    0  0.64984641904E+02 -0.75589980645E+02 -0.16113405218E+03  0.25124894354E+03  0.16500000000E+03 0.  0.
<mgrwt>
<rscale>  0 0.40062817E+03</rscale>
<asrwt>0</asrwt>
<pdfrwt beam="1">  1        2 0.80898540E-01 0.40062817E+03</pdfrwt>
<pdfrwt beam="2">  1       -2 0.10122463E-01 0.40062817E+03</pdfrwt>
<totfact> 0.38521370E+03</totfact>
</mgrwt>
</event>
<event>
 4    1  0.5531008E-005  0.4210346E+03  0.7818608E-02  0.1036730E+00
          2   -1    0    0  501    0  0.00000000000E+00  0.00000000000E+00  0.83437037816E+02  0.83437037855E+02  0.25500000000E-02 0.  1.
         -2   -1    0    0    0  501 -0.00000000000E+00 -0.00000000000E+00 -0.53114933935E+03  0.53114933936E+03  0.25500000000E-02 0. -1.
    5000001    1    1    2    0    0  0.36715187530E+02 -0.12270966700E+03 -0.18560017054E+03  0.27942457064E+03  0.16500000000E+03 0.  0.
   -5000001    1    1    2    0    0 -0.36715187530E+02  0.12270966700E+03 -0.26211213099E+03  0.33516180657E+03  0.16500000000E+03 0.  0.
<mgrwt>
<rscale>  0 0.42103457E+03</rscale>
<asrwt>0</asrwt>
<pdfrwt beam="1">  1        2 0.11919577E-01 0.42103457E+03</pdfrwt>
<pdfrwt beam="2">  1       -2 0.75878476E-01 0.42103457E+03</pdfrwt>
<totfact> 0.83107481E+02</totfact>
</mgrwt>
</event>
<event>
 4    1  0.5531008E-005  0.3466478E+03  0.7818608E-02  0.1063999E+00
          2   -1    0    0  501    0  0.00000000000E+00  0.00000000000E+00  0.23833979582E+04  0.23833979582E+04  0.25500000000E-02 0.  1.
         -2   -1    0    0    0  501 -0.00000000000E+00 -0.00000000000E+00 -0.12604346336E+02  0.12604346594E+02  0.25500000000E-02 0. -1.
    5000001    1    1    2    0    0  0.37946631369E+02  0.34747419746E+02  0.12752102016E+04  0.12868696081E+04  0.16500000000E+03 0.  0.
   -5000001    1    1    2    0    0 -0.37946631369E+02 -0.34747419746E+02  0.10955834103E+04  0.11091326967E+04  0.16500000000E+03 0.  0.
<mgrwt>
<rscale>  0 0.34664780E+03</rscale>
<asrwt>0</asrwt>
<pdfrwt beam="1">  1        2 0.34048544E+00 0.34664780E+03</pdfrwt>
<pdfrwt beam="2">  1       -2 0.18006208E-02 0.34664780E+03</pdfrwt>
<totfact> 0.51654211E+03</totfact>
</mgrwt>
</event>
<event>
 4    1  0.5531008E-005  0.4996546E+03  0.7818608E-02  0.1013869E+00
          2   -1    0    0  501    0  0.00000000000E+00  0.00000000000E+00  0.87535220302E+03  0.87535220303E+03  0.25500000000E-02 0.  1.
         -2   -1    0    0    0  501 -0.00000000000E+00 -0.00000000000E+00 -0.71301212325E+02  0.71301212370E+02  0.25500000000E-02 0. -1.
    5000001    1    1    2    0    0  0.14989508539E+03 -0.11256607849E+03  0.41528978907E+03  0.48459288847E+03  0.16500000000E+03 0.  0.
   -5000001    1    1    2    0    0 -0.14989508539E+03  0.11256607849E+03  0.38876120163E+03  0.46206052692E+03  0.16500000000E+03 0.  0.
<mgrwt>
<rscale>  0 0.49965457E+03</rscale>
<asrwt>0</asrwt>
<pdfrwt beam="1">  1        2 0.12505031E+00 0.49965457E+03</pdfrwt>
<pdfrwt beam="2">  1       -2 0.10185888E-01 0.49965457E+03</pdfrwt>
<totfact> 0.22480643E+03</totfact>
</mgrwt>
</event>
<event>
 4    1  0.5531008E-005  0.7802946E+03  0.7818608E-02  0.9588986E-01
         -2   -1    0    0    0  501 -0.00000000000E+00  0.00000000000E+00  0.59276299292E+02  0.59276299347E+02  0.25500000000E-02 0.  1.
          2   -1    0    0  501    0  0.00000000000E+00 -0.00000000000E+00 -0.25678882089E+04  0.25678882089E+04  0.25500000000E-02 0. -1.
    5000001    1    1    2    0    0  0.21928282017E+03  0.25761224161E+03 -0.90863151219E+03  0.98350660760E+03  0.16500000000E+03 0.  0.
   -5000001    1    1    2    0    0 -0.21928282017E+03 -0.25761224161E+03 -0.15999803974E+04  0.16436579007E+04  0.16500000000E+03 0.  0.
<mgrwt>
<rscale>  0 0.78029459E+03</rscale>
<asrwt>0</asrwt>
<pdfrwt beam="1">  1        2 0.36684110E+00 0.78029459E+03</pdfrwt>
<pdfrwt beam="2">  1       -2 0.84680444E-02 0.78029459E+03</pdfrwt>
<totfact> 0.37608398E+02</totfact>
</mgrwt>
</event>
<event>
 4    1  0.5531008E-005  0.5180813E+03  0.7818608E-02  0.1009164E+00
         -2   -1    0    0    0  501 -0.00000000000E+00  0.00000000000E+00  0.33806009122E+02  0.33806009218E+02  0.25500000000E-02 0. -1.
          2   -1    0    0  501    0  0.00000000000E+00 -0.00000000000E+00 -0.19849152845E+04  0.19849152845E+04  0.25500000000E-02 0.  1.
    5000001    1    1    2    0    0  0.13121191005E+03  0.15052226275E+03 -0.96821570353E+03  0.10022675119E+04  0.16500000000E+03 0.  0.
   -5000001    1    1    2    0    0 -0.13121191005E+03 -0.15052226275E+03 -0.98289357182E+03  0.10164537818E+04  0.16500000000E+03 0.  0.
<mgrwt>
<rscale>  0 0.51808132E+03</rscale>
<asrwt>0</asrwt>
<pdfrwt beam="1">  1        2 0.28355925E+00 0.51808132E+03</pdfrwt>
<pdfrwt beam="2">  1       -2 0.48294311E-02 0.51808132E+03</pdfrwt>
<totfact> 0.18316492E+03</totfact>
</mgrwt>
</event>
<event>
 4    1  0.5531008E-005  0.3840954E+03  0.7818608E-02  0.1049430E+00
         -2   -1    0    0    0  501 -0.00000000000E+00  0.00000000000E+00  0.22323017504E+02  0.22323017650E+02  0.25500000000E-02 0. -1.
          2   -1    0    0  501    0  0.00000000000E+00 -0.00000000000E+00 -0.16522105592E+04  0.16522105592E+04  0.25500000000E-02 0.  1.
    5000001    1    1    2    0    0 -0.86750001592E+02  0.38587517245E+02 -0.70441350947E+03  0.72968345986E+03  0.16500000000E+03 0.  0.
   -5000001    1    1    2    0    0  0.86750001592E+02 -0.38587517245E+02 -0.92547403227E+03  0.94485011704E+03  0.16500000000E+03 0.  0.
<mgrwt>
<rscale>  0 0.38409543E+03</rscale>
<asrwt>0</asrwt>
<pdfrwt beam="1">  1        2 0.23603000E+00 0.38409543E+03</pdfrwt>
<pdfrwt beam="2">  1       -2 0.31890036E-02 0.38409543E+03</pdfrwt>
<totfact> 0.50711324E+03</totfact>
</mgrwt>
</event>
<event>
 4    1  0.5531008E-005  0.7194742E+03  0.7818608E-02  0.9684496E-01
          2   -1    0    0  501    0  0.00000000000E+00  0.00000000000E+00  0.15577185982E+03  0.15577185984E+03  0.25500000000E-02 0.  1.
         -2   -1    0    0    0  501 -0.00000000000E+00 -0.00000000000E+00 -0.83077132219E+03  0.83077132219E+03  0.25500000000E-02 0. -1.
    5000001    1    1    2    0    0  0.30235447845E+03 -0.85955950205E+02 -0.25779138226E+03  0.43873460404E+03  0.16500000000E+03 0.  0.
   -5000001    1    1    2    0    0 -0.30235447845E+03  0.85955950205E+02 -0.41720808011E+03  0.54780857799E+03  0.16500000000E+03 0.  0.
<mgrwt>
<rscale>  0 0.71947424E+03</rscale>
<asrwt>0</asrwt>
<pdfrwt beam="1">  1        2 0.22253123E-01 0.71947424E+03</pdfrwt>
<pdfrwt beam="2">  1       -2 0.11868161E+00 0.71947424E+03</pdfrwt>
<totfact> 0.13826764E+02</totfact>
</mgrwt>
</event>
<event>
 4    1  0.5531008E-005  0.4453855E+03  0.7818608E-02  0.1029107E+00
         -2   -1    0    0    0  501 -0.00000000000E+00  0.00000000000E+00  0.30748647784E+03  0.30748647785E+03  0.25500000000E-02 0. -1.
          2   -1    0    0  501    0  0.00000000000E+00 -0.00000000000E+00 -0.16128206521E+03  0.16128206523E+03  0.25500000000E-02 0.  1.
    5000001    1    1    2    0    0 -0.24191519180E+02 -0.14354835921E+03  0.10919075433E+03  0.24563994354E+03  0.16500000000E+03 0.  0.
   -5000001    1    1    2    0    0  0.24191519180E+02  0.14354835921E+03  0.37013658301E+02  0.22312859954E+03  0.16500000000E+03 0.  0.
<mgrwt>
<rscale>  0 0.44538547E+03</rscale>
<asrwt>0</asrwt>
<pdfrwt beam="1">  1        2 0.23040295E-01 0.44538547E+03</pdfrwt>
<pdfrwt beam="2">  1       -2 0.43926639E-01 0.44538547E+03</pdfrwt>
<totfact> 0.11821308E+03</totfact>
</mgrwt>
</event>
<event>
 4    1  0.5531008E-005  0.3856411E+03  0.7818608E-02  0.1048868E+00
         -2   -1    0    0    0  501 -0.00000000000E+00  0.00000000000E+00  0.23683879135E+02  0.23683879272E+02  0.25500000000E-02 0. -1.
          2   -1    0    0  501    0  0.00000000000E+00 -0.00000000000E+00 -0.15698339682E+04  0.15698339682E+04  0.25500000000E-02 0.  1.
    5000001    1    1    2    0    0 -0.95015924281E+02  0.28939629504E+02 -0.81210780174E+03  0.83463142145E+03  0.16500000000E+03 0.  0.
   -5000001    1    1    2    0    0  0.95015924281E+02 -0.28939629504E+02 -0.73404228732E+03  0.75888642602E+03  0.16500000000E+03 0.  0.
<mgrwt>
<rscale>  0 0.38564107E+03</rscale>
<asrwt>0</asrwt>
<pdfrwt beam="1">  1        2 0.22426193E+00 0.38564107E+03</pdfrwt>
<pdfrwt beam="2">  1       -2 0.33834123E-02 0.38564107E+03</pdfrwt>
<totfact> 0.51041749E+03</totfact>
</mgrwt>
</event>
<event>
 4    1  0.5531008E-005  0.4719086E+03  0.7818608E-02  0.1021383E+00
         -2   -1    0    0    0  501 -0.00000000000E+00  0.00000000000E+00  0.28870082100E+03  0.28870082101E+03  0.25500000000E-02 0. -1.
          2   -1    0    0  501    0  0.00000000000E+00 -0.00000000000E+00 -0.19284475744E+03  0.19284475746E+03  0.25500000000E-02 0.  1.
    5000001    1    1    2    0    0 -0.74224798263E+02  0.61487673452E+02 -0.93316050045E+02  0.21265685942E+03  0.16500000000E+03 0.  0.
   -5000001    1    1    2    0    0  0.74224798263E+02 -0.61487673452E+02  0.18917211361E+03  0.26888871905E+03  0.16500000000E+03 0.  0.
<mgrwt>
<rscale>  0 0.47190863E+03</rscale>
<asrwt>0</asrwt>
<pdfrwt beam="1">  1        2 0.27549251E-01 0.47190863E+03</pdfrwt>
<pdfrwt beam="2">  1       -2 0.41242974E-01 0.47190863E+03</pdfrwt>
<totfact> 0.10920145E+03</totfact>
</mgrwt>
</event>
<event>
 4    1  0.5531008E-005  0.3810681E+03  0.7818608E-02  0.1050540E+00
         -2   -1    0    0    0  501 -0.00000000000E+00  0.00000000000E+00  0.21039900602E+02  0.21039900756E+02  0.25500000000E-02 0. -1.
          2   -1    0    0  501    0  0.00000000000E+00 -0.00000000000E+00 -0.17254461631E+04  0.17254461631E+04  0.25500000000E-02 0.  1.
    5000001    1    1    2    0    0  0.88788926100E+02 -0.34015569979E+02 -0.82406869493E+03  0.84578646617E+03  0.16500000000E+03 0.  0.
   -5000001    1    1    2    0    0 -0.88788926100E+02  0.34015569979E+02 -0.88033756761E+03  0.90069959772E+03  0.16500000000E+03 0.  0.
<mgrwt>
<rscale>  0 0.38106806E+03</rscale>
<asrwt>0</asrwt>
<pdfrwt beam="1">  1        2 0.24649222E+00 0.38106806E+03</pdfrwt>
<pdfrwt beam="2">  1       -2 0.30057012E-02 0.38106806E+03</pdfrwt>
<totfact> 0.50947772E+03</totfact>
</mgrwt>
</event>
<event>
 4    1  0.5531008E-005  0.5367474E+03  0.7818608E-02  0.1004609E+00
          2   -1    0    0  501    0  0.00000000000E+00  0.00000000000E+00  0.16604555727E+03  0.16604555729E+03  0.25500000000E-02 0.  1.
         -2   -1    0    0    0  501 -0.00000000000E+00 -0.00000000000E+00 -0.43376316649E+03  0.43376316649E+03  0.25500000000E-02 0. -1.
    5000001    1    1    2    0    0 -0.54353093870E+02  0.20432463633E+03 -0.14484382329E+03  0.30480739651E+03  0.16500000000E+03 0.  0.
   -5000001    1    1    2    0    0  0.54353093870E+02 -0.20432463633E+03 -0.12287378592E+03  0.29500132727E+03  0.16500000000E+03 0.  0.
<mgrwt>
<rscale>  0 0.53674741E+03</rscale>
<asrwt>0</asrwt>
<pdfrwt beam="1">  1        2 0.23720794E-01 0.53674741E+03</pdfrwt>
<pdfrwt beam="2">  1       -2 0.61966166E-01 0.53674741E+03</pdfrwt>
<totfact> 0.56739796E+02</totfact>
</mgrwt>
</event>
<event>
 4    1  0.5531008E-005  0.4217153E+03  0.7818608E-02  0.1036509E+00
          2   -1    0    0  501    0  0.00000000000E+00  0.00000000000E+00  0.12984873484E+03  0.12984873486E+03  0.25500000000E-02 0.  1.
         -2   -1    0    0    0  501 -0.00000000000E+00 -0.00000000000E+00 -0.34240572746E+03  0.34240572747E+03  0.25500000000E-02 0. -1.
    5000001    1    1    2    0    0  0.69346064879E+02 -0.10340685392E+03 -0.59645500394E+02  0.21513818785E+03  0.16500000000E+03 0.  0.
   -5000001    1    1    2    0    0 -0.69346064879E+02  0.10340685392E+03 -0.15291149223E+03  0.25711627449E+03  0.16500000000E+03 0.  0.
<mgrwt>
<rscale>  0 0.42171531E+03</rscale>
<asrwt>0</asrwt>
<pdfrwt beam="1">  1        2 0.18549819E-01 0.42171531E+03</pdfrwt>
<pdfrwt beam="2">  1       -2 0.48915104E-01 0.42171531E+03</pdfrwt>
<totfact> 0.12266721E+03</totfact>
</mgrwt>
</event>
<event>
 4    1  0.5531008E-005  0.4630418E+03  0.7818608E-02  0.1023903E+00
          2   -1    0    0  501    0  0.00000000000E+00  0.00000000000E+00  0.54219368525E+02  0.54219368585E+02  0.25500000000E-02 0.  1.
         -2   -1    0    0    0  501 -0.00000000000E+00 -0.00000000000E+00 -0.98861204130E+03  0.98861204130E+03  0.25500000000E-02 0. -1.
    5000001    1    1    2    0    0  0.54430905864E+02  0.40808438150E+02 -0.13506315470E+03  0.22381936443E+03  0.16500000000E+03 0.  0.
   -5000001    1    1    2    0    0 -0.54430905864E+02 -0.40808438150E+02 -0.79932951807E+03  0.81901204545E+03  0.16500000000E+03 0.  0.
<mgrwt>
<rscale>  0 0.46304177E+03</rscale>
<asrwt>0</asrwt>
<pdfrwt beam="1">  1        2 0.77456247E-02 0.46304177E+03</pdfrwt>
<pdfrwt beam="2">  1       -2 0.14123028E+00 0.46304177E+03</pdfrwt>
<totfact> 0.32913432E+02</totfact>
</mgrwt>
</event>
<event>
 4    1  0.5531008E-005  0.5251952E+03  0.7818608E-02  0.1007404E+00
         -2   -1    0    0    0  501 -0.00000000000E+00  0.00000000000E+00  0.11870353608E+03  0.11870353610E+03  0.25500000000E-02 0. -1.
          2   -1    0    0  501    0  0.00000000000E+00 -0.00000000000E+00 -0.58092201028E+03  0.58092201029E+03  0.25500000000E-02 0.  1.
    5000001    1    1    2    0    0  0.12980322545E+03  0.14796240590E+03 -0.30396009640E+03  0.39794282391E+03  0.16500000000E+03 0.  0.
   -5000001    1    1    2    0    0 -0.12980322545E+03 -0.14796240590E+03 -0.15825837780E+03  0.30168272248E+03  0.16500000000E+03 0.  0.
<mgrwt>
<rscale>  0 0.52519519E+03</rscale>
<asrwt>0</asrwt>
<pdfrwt beam="1">  1        2 0.82988857E-01 0.52519519E+03</pdfrwt>
<pdfrwt beam="2">  1       -2 0.16957648E-01 0.52519519E+03</pdfrwt>
<totfact> 0.15992946E+03</totfact>
</mgrwt>
</event>
<event>
 4    1  0.5531008E-005  0.5559895E+03  0.7818608E-02  0.1000117E+00
         -2   -1    0    0    0  501 -0.00000000000E+00  0.00000000000E+00  0.12789967613E+03  0.12789967616E+03  0.25500000000E-02 0. -1.
          2   -1    0    0  501    0  0.00000000000E+00 -0.00000000000E+00 -0.60423194889E+03  0.60423194890E+03  0.25500000000E-02 0.  1.
    5000001    1    1    2    0    0  0.77033092450E+02  0.18386252168E+03 -0.10441737347E+03  0.27904750867E+03  0.16500000000E+03 0.  0.
   -5000001    1    1    2    0    0 -0.77033092450E+02 -0.18386252168E+03 -0.37191489929E+03  0.45308411639E+03  0.16500000000E+03 0.  0.
<mgrwt>
<rscale>  0 0.55598946E+03</rscale>
<asrwt>0</asrwt>
<pdfrwt beam="1">  1        2 0.86318848E-01 0.55598946E+03</pdfrwt>
<pdfrwt beam="2">  1       -2 0.18271383E-01 0.55598946E+03</pdfrwt>
<totfact> 0.13443487E+03</totfact>
</mgrwt>
</event>
<event>
 4    1  0.5531008E-005  0.3539535E+03  0.7818608E-02  0.1061004E+00
          2   -1    0    0  501    0  0.00000000000E+00  0.00000000000E+00  0.11630853135E+04  0.11630853135E+04  0.25500000000E-02 0.  1.
         -2   -1    0    0    0  501 -0.00000000000E+00 -0.00000000000E+00 -0.26929035674E+02  0.26929035795E+02  0.25500000000E-02 0. -1.
    5000001    1    1    2    0    0 -0.38787355066E+02  0.48868400955E+02  0.61600217469E+03  0.64076224822E+03  0.16500000000E+03 0.  0.
   -5000001    1    1    2    0    0  0.38787355066E+02 -0.48868400955E+02  0.52015410311E+03  0.54925210105E+03  0.16500000000E+03 0.  0.
<mgrwt>
<rscale>  0 0.35395348E+03</rscale>
<asrwt>0</asrwt>
<pdfrwt beam="1">  1        2 0.16615507E+00 0.35395348E+03</pdfrwt>
<pdfrwt beam="2">  1       -2 0.38470046E-02 0.35395348E+03</pdfrwt>
<totfact> 0.68802156E+03</totfact>
</mgrwt>
</event>
<event>
 4    1  0.5531008E-005  0.3703665E+03  0.7818608E-02  0.1054553E+00
         -2   -1    0    0    0  501 -0.00000000000E+00  0.00000000000E+00  0.26849482894E+02  0.26849483015E+02  0.25500000000E-02 0. -1.
          2   -1    0    0  501    0  0.00000000000E+00 -0.00000000000E+00 -0.12772252271E+04  0.12772252271E+04  0.25500000000E-02 0.  1.
    5000001    1    1    2    0    0  0.48969512582E+02  0.66556297379E+02 -0.57063073786E+03  0.59972676518E+03  0.16500000000E+03 0.  0.
   -5000001    1    1    2    0    0 -0.48969512582E+02 -0.66556297379E+02 -0.67974500632E+03  0.70434794491E+03  0.16500000000E+03 0.  0.
<mgrwt>
<rscale>  0 0.37036650E+03</rscale>
<asrwt>0</asrwt>
<pdfrwt beam="1">  1        2 0.18246071E+00 0.37036650E+03</pdfrwt>
<pdfrwt beam="2">  1       -2 0.38356412E-02 0.37036650E+03</pdfrwt>
<totfact> 0.59916143E+03</totfact>
</mgrwt>
</event>
<event>
 4    1  0.5531008E-005  0.1807591E+04  0.7818608E-02  0.8702273E-01
          2   -1    0    0  501    0  0.00000000000E+00  0.00000000000E+00  0.14710435547E+04  0.14710435548E+04  0.25500000000E-02 0.  1.
         -2   -1    0    0    0  501 -0.00000000000E+00 -0.00000000000E+00 -0.55528329229E+03  0.55528329230E+03  0.25500000000E-02 0. -1.
    5000001    1    1    2    0    0 -0.18995677205E+03 -0.45207540873E+03  0.12886120960E+04  0.13885970922E+04  0.16500000000E+03 0.  0.
   -5000001    1    1    2    0    0  0.18995677205E+03  0.45207540873E+03 -0.37285183357E+03  0.63772975485E+03  0.16500000000E+03 0.  0.
<mgrwt>
<rscale>  0 0.18075906E+04</rscale>
<asrwt>0</asrwt>
<pdfrwt beam="1">  1        2 0.21014908E+00 0.18075906E+04</pdfrwt>
<pdfrwt beam="2">  1       -2 0.79326186E-01 0.18075906E+04</pdfrwt>
<totfact> 0.20199853E+01</totfact>
</mgrwt>
</event>
<event>
 4    1  0.5531008E-005  0.3661140E+03  0.7818608E-02  0.1056189E+00
          2   -1    0    0  501    0  0.00000000000E+00  0.00000000000E+00  0.10945331100E+04  0.10945331100E+04  0.25500000000E-02 0.  1.
         -2   -1    0    0    0  501 -0.00000000000E+00 -0.00000000000E+00 -0.30615675657E+02  0.30615675763E+02  0.25500000000E-02 0. -1.
    5000001    1    1    2    0    0 -0.64656775695E+02  0.33171521046E+02  0.62933770666E+03  0.65465395247E+03  0.16500000000E+03 0.  0.
   -5000001    1    1    2    0    0  0.64656775695E+02 -0.33171521046E+02  0.43457972768E+03  0.47049483330E+03  0.16500000000E+03 0.  0.
<mgrwt>
<rscale>  0 0.36611403E+03</rscale>
<asrwt>0</asrwt>
<pdfrwt beam="1">  1        2 0.15636183E+00 0.36611403E+03</pdfrwt>
<pdfrwt beam="2">  1       -2 0.43736693E-02 0.36611403E+03</pdfrwt>
<totfact> 0.61932982E+03</totfact>
</mgrwt>
</event>
<event>
 4    1  0.5531008E-005  0.4755592E+03  0.7818608E-02  0.1020363E+00
          2   -1    0    0  501    0  0.00000000000E+00  0.00000000000E+00  0.13356509428E+04  0.13356509428E+04  0.25500000000E-02 0.  1.
         -2   -1    0    0    0  501 -0.00000000000E+00 -0.00000000000E+00 -0.42330780150E+02  0.42330780226E+02  0.25500000000E-02 0. -1.
    5000001    1    1    2    0    0 -0.11612621849E+03  0.12568955613E+03  0.66278891202E+03  0.70412875601E+03  0.16500000000E+03 0.  0.
   -5000001    1    1    2    0    0  0.11612621849E+03 -0.12568955613E+03  0.63053125061E+03  0.67385296700E+03  0.16500000000E+03 0.  0.
<mgrwt>
<rscale>  0 0.47555923E+03</rscale>
<asrwt>0</asrwt>
<pdfrwt beam="1">  1        2 0.19080726E+00 0.47555923E+03</pdfrwt>
<pdfrwt beam="2">  1       -2 0.60472549E-02 0.47555923E+03</pdfrwt>
<totfact> 0.27744243E+03</totfact>
</mgrwt>
</event>
<event>
 4    1  0.5531008E-005  0.3909896E+03  0.7818608E-02  0.1046945E+00
         -2   -1    0    0    0  501 -0.00000000000E+00  0.00000000000E+00  0.74622931248E+03  0.74622931249E+03  0.25500000000E-02 0. -1.
          2   -1    0    0  501    0  0.00000000000E+00 -0.00000000000E+00 -0.51215111917E+02  0.51215111980E+02  0.25500000000E-02 0.  1.
    5000001    1    1    2    0    0 -0.97624352913E+02  0.34058392211E+02  0.38299354812E+03  0.42965049315E+03  0.16500000000E+03 0.  0.
   -5000001    1    1    2    0    0  0.97624352913E+02 -0.34058392211E+02  0.31202065245E+03  0.36779393132E+03  0.16500000000E+03 0.  0.
<mgrwt>
<rscale>  0 0.39098960E+03</rscale>
<asrwt>0</asrwt>
<pdfrwt beam="1">  1        2 0.73164454E-02 0.39098960E+03</pdfrwt>
<pdfrwt beam="2">  1       -2 0.10660418E+00 0.39098960E+03</pdfrwt>
<totfact> 0.70870104E+02</totfact>
</mgrwt>
</event>
<event>
 4    1  0.5531008E-005  0.5226453E+03  0.7818608E-02  0.1008032E+00
         -2   -1    0    0    0  501 -0.00000000000E+00  0.00000000000E+00  0.13998205992E+02  0.13998206224E+02  0.25500000000E-02 0. -1.
          2   -1    0    0  501    0  0.00000000000E+00 -0.00000000000E+00 -0.48784480654E+04  0.48784480654E+04  0.25500000000E-02 0.  1.
    5000001    1    1    2    0    0 -0.12163434833E+03 -0.16068151471E+03 -0.22334163785E+04  0.22485522417E+04  0.16500000000E+03 0.  0.
   -5000001    1    1    2    0    0  0.12163434833E+03  0.16068151471E+03 -0.26310334809E+04  0.26438940299E+04  0.16500000000E+03 0.  0.
<mgrwt>
<rscale>  0 0.52264528E+03</rscale>
<asrwt>0</asrwt>
<pdfrwt beam="1">  1        2 0.69692006E+00 0.52264528E+03</pdfrwt>
<pdfrwt beam="2">  1       -2 0.19997468E-02 0.52264528E+03</pdfrwt>
<totfact> 0.11407329E+02</totfact>
</mgrwt>
</event>
<event>
 4    1  0.5531008E-005  0.8485353E+03  0.7818608E-02  0.9492305E-01
          2   -1    0    0  501    0  0.00000000000E+00  0.00000000000E+00  0.27526179656E+04  0.27526179656E+04  0.25500000000E-02 0.  1.
         -2   -1    0    0    0  501 -0.00000000000E+00 -0.00000000000E+00 -0.65393397286E+02  0.65393397335E+02  0.25500000000E-02 0. -1.
    5000001    1    1    2    0    0 -0.25530847502E+03 -0.18758976768E+03  0.21038722034E+04  0.21339811590E+04  0.16500000000E+03 0.  0.
   -5000001    1    1    2    0    0  0.25530847502E+03  0.18758976768E+03  0.58335236487E+03  0.68403020398E+03  0.16500000000E+03 0.  0.
<mgrwt>
<rscale>  0 0.84853530E+03</rscale>
<asrwt>0</asrwt>
<pdfrwt beam="1">  1        2 0.39323116E+00 0.84853530E+03</pdfrwt>
<pdfrwt beam="2">  1       -2 0.93419134E-02 0.84853530E+03</pdfrwt>
<totfact> 0.25509544E+02</totfact>
</mgrwt>
</event>
<event>
 4    1  0.5531008E-005  0.4361382E+03  0.7818608E-02  0.1031938E+00
         -2   -1    0    0    0  501 -0.00000000000E+00  0.00000000000E+00  0.77531325892E+02  0.77531325934E+02  0.25500000000E-02 0. -1.
          2   -1    0    0  501    0  0.00000000000E+00 -0.00000000000E+00 -0.61335368365E+03  0.61335368365E+03  0.25500000000E-02 0.  1.
    5000001    1    1    2    0    0  0.57065487612E+02  0.13066013890E+03 -0.26670209021E+03  0.34450478472E+03  0.16500000000E+03 0.  0.
   -5000001    1    1    2    0    0 -0.57065487612E+02 -0.13066013890E+03 -0.26912026754E+03  0.34638022486E+03  0.16500000000E+03 0.  0.
<mgrwt>
<rscale>  0 0.43613816E+03</rscale>
<asrwt>0</asrwt>
<pdfrwt beam="1">  1        2 0.87621952E-01 0.43613816E+03</pdfrwt>
<pdfrwt beam="2">  1       -2 0.11075904E-01 0.43613816E+03</pdfrwt>
<totfact> 0.30408984E+03</totfact>
</mgrwt>
</event>
<event>
 4    1  0.5531008E-005  0.4724918E+03  0.7818608E-02  0.1021219E+00
          2   -1    0    0  501    0  0.00000000000E+00  0.00000000000E+00  0.74953069748E+03  0.74953069749E+03  0.25500000000E-02 0.  1.
         -2   -1    0    0    0  501 -0.00000000000E+00 -0.00000000000E+00 -0.74462772490E+02  0.74462772534E+02  0.25500000000E-02 0. -1.
    5000001    1    1    2    0    0  0.14330716895E+02 -0.16773676576E+03  0.36489434306E+03  0.43441210116E+03  0.16500000000E+03 0.  0.
   -5000001    1    1    2    0    0 -0.14330716895E+02  0.16773676576E+03  0.31017358193E+03  0.38958136886E+03  0.16500000000E+03 0.  0.
<mgrwt>
<rscale>  0 0.47249184E+03</rscale>
<asrwt>0</asrwt>
<pdfrwt beam="1">  1        2 0.10707582E+00 0.47249184E+03</pdfrwt>
<pdfrwt beam="2">  1       -2 0.10637539E-01 0.47249184E+03</pdfrwt>
<totfact> 0.25533475E+03</totfact>
</mgrwt>
</event>
<event>
 4    1  0.5531008E-005  0.4245837E+03  0.7818608E-02  0.1035585E+00
          2   -1    0    0  501    0  0.00000000000E+00  0.00000000000E+00  0.10494254871E+04  0.10494254871E+04  0.25500000000E-02 0.  1.
         -2   -1    0    0    0  501 -0.00000000000E+00 -0.00000000000E+00 -0.42945248324E+02  0.42945248400E+02  0.25500000000E-02 0. -1.
    5000001    1    1    2    0    0 -0.12868473161E+03 -0.15216877822E+02  0.41981123617E+03  0.46931629797E+03  0.16500000000E+03 0.  0.
   -5000001    1    1    2    0    0  0.12868473161E+03  0.15216877822E+02  0.58666900259E+03  0.62305443752E+03  0.16500000000E+03 0.  0.
<mgrwt>
<rscale>  0 0.42458374E+03</rscale>
<asrwt>0</asrwt>
<pdfrwt beam="1">  1        2 0.14991790E+00 0.42458374E+03</pdfrwt>
<pdfrwt beam="2">  1       -2 0.61350365E-02 0.42458374E+03</pdfrwt>
<totfact> 0.39158013E+03</totfact>
</mgrwt>
</event>
<event>
 4    1  0.5531008E-005  0.4799096E+03  0.7818608E-02  0.1019160E+00
         -2   -1    0    0    0  501 -0.00000000000E+00  0.00000000000E+00  0.99123341286E+02  0.99123341319E+02  0.25500000000E-02 0. -1.
          2   -1    0    0  501    0  0.00000000000E+00 -0.00000000000E+00 -0.58087523631E+03  0.58087523632E+03  0.25500000000E-02 0.  1.
    5000001    1    1    2    0    0  0.10674794883E+02  0.86418220727E+02 -0.45469278213E+03  0.49147999577E+03  0.16500000000E+03 0.  0.
   -5000001    1    1    2    0    0 -0.10674794883E+02 -0.86418220727E+02 -0.27059112897E+02  0.18851858187E+03  0.16500000000E+03 0.  0.
<mgrwt>
<rscale>  0 0.47990955E+03</rscale>
<asrwt>0</asrwt>
<pdfrwt beam="1">  1        2 0.82982175E-01 0.47990955E+03</pdfrwt>
<pdfrwt beam="2">  1       -2 0.14160478E-01 0.47990955E+03</pdfrwt>
<totfact> 0.21656377E+03</totfact>
</mgrwt>
</event>
<event>
 4    1  0.5531008E-005  0.3694898E+03  0.7818608E-02  0.1054888E+00
          2   -1    0    0  501    0  0.00000000000E+00  0.00000000000E+00  0.11525364713E+04  0.11525364713E+04  0.25500000000E-02 0.  1.
         -2   -1    0    0    0  501 -0.00000000000E+00 -0.00000000000E+00 -0.29613533933E+02  0.29613534043E+02  0.25500000000E-02 0. -1.
    5000001    1    1    2    0    0  0.46333823807E+02 -0.63133709493E+02  0.65041371567E+03  0.67557064030E+03  0.16500000000E+03 0.  0.
   -5000001    1    1    2    0    0 -0.46333823807E+02  0.63133709493E+02  0.47250922170E+03  0.50657936505E+03  0.16500000000E+03 0.  0.
<mgrwt>
<rscale>  0 0.36948980E+03</rscale>
<asrwt>0</asrwt>
<pdfrwt beam="1">  1        2 0.16464807E+00 0.36948980E+03</pdfrwt>
<pdfrwt beam="2">  1       -2 0.42305047E-02 0.36948980E+03</pdfrwt>
<totfact> 0.60422440E+03</totfact>
</mgrwt>
</event>
<event>
 4    1  0.5531008E-005  0.4252616E+03  0.7818608E-02  0.1035367E+00
          2   -1    0    0  501    0  0.00000000000E+00  0.00000000000E+00  0.16468674169E+04  0.16468674169E+04  0.25500000000E-02 0.  1.
         -2   -1    0    0    0  501 -0.00000000000E+00 -0.00000000000E+00 -0.27453245234E+02  0.27453245352E+02  0.25500000000E-02 0. -1.
    5000001    1    1    2    0    0 -0.17700319427E+01  0.13410316562E+03  0.81069624145E+03  0.83811704907E+03  0.16500000000E+03 0.  0.
   -5000001    1    1    2    0    0  0.17700319427E+01 -0.13410316562E+03  0.80871793017E+03  0.83620361313E+03  0.16500000000E+03 0.  0.
<mgrwt>
<rscale>  0 0.42526159E+03</rscale>
<asrwt>0</asrwt>
<pdfrwt beam="1">  1        2 0.23526687E+00 0.42526159E+03</pdfrwt>
<pdfrwt beam="2">  1       -2 0.39218906E-02 0.42526159E+03</pdfrwt>
<totfact> 0.37307098E+03</totfact>
</mgrwt>
</event>
<event>
 4    1  0.5531008E-005  0.6373960E+03  0.7818608E-02  0.9830721E-01
         -2   -1    0    0    0  501 -0.00000000000E+00  0.00000000000E+00  0.24588803423E+02  0.24588803555E+02  0.25500000000E-02 0.  1.
          2   -1    0    0  501    0  0.00000000000E+00 -0.00000000000E+00 -0.41306780306E+04  0.41306780306E+04  0.25500000000E-02 0. -1.
    5000001    1    1    2    0    0 -0.18052322100E+03 -0.13647374707E+03 -0.10615858010E+04  0.10979085253E+04  0.16500000000E+03 0.  0.
   -5000001    1    1    2    0    0  0.18052322100E+03  0.13647374707E+03 -0.30445034262E+04  0.30573583089E+04  0.16500000000E+03 0.  0.
<mgrwt>
<rscale>  0 0.63739605E+03</rscale>
<asrwt>0</asrwt>
<pdfrwt beam="1">  1        2 0.59009642E+00 0.63739605E+03</pdfrwt>
<pdfrwt beam="2">  1       -2 0.35126889E-02 0.63739605E+03</pdfrwt>
<totfact> 0.18249544E+02</totfact>
</mgrwt>
</event>
<event>
 4    1  0.5531008E-005  0.7972222E+03  0.7818608E-02  0.9564047E-01
          2   -1    0    0  501    0  0.00000000000E+00  0.00000000000E+00  0.13900875927E+04  0.13900875927E+04  0.25500000000E-02 0.  1.
         -2   -1    0    0    0  501 -0.00000000000E+00 -0.00000000000E+00 -0.11430273620E+03  0.11430273623E+03  0.25500000000E-02 0. -1.
    5000001    1    1    2    0    0  0.28512191405E+03  0.18979006951E+03  0.41183290165E+03  0.56048739079E+03  0.16500000000E+03 0.  0.
   -5000001    1    1    2    0    0 -0.28512191405E+03 -0.18979006951E+03  0.86395195488E+03  0.94390293817E+03  0.16500000000E+03 0.  0.
<mgrwt>
<rscale>  0 0.79722222E+03</rscale>
<asrwt>0</asrwt>
<pdfrwt beam="1">  1        2 0.19858393E+00 0.79722222E+03</pdfrwt>
<pdfrwt beam="2">  1       -2 0.16328964E-01 0.79722222E+03</pdfrwt>
<totfact> 0.51092901E+02</totfact>
</mgrwt>
</event>
<event>
 4    1  0.5531008E-005  0.8956965E+03  0.7818608E-02  0.9430977E-01
         -2   -1    0    0    0  501 -0.00000000000E+00  0.00000000000E+00  0.50936082699E+02  0.50936082762E+02  0.25500000000E-02 0. -1.
          2   -1    0    0  501    0  0.00000000000E+00 -0.00000000000E+00 -0.39376419207E+04  0.39376419207E+04  0.25500000000E-02 0.  1.
    5000001    1    1    2    0    0  0.26630398382E+03  0.24886577749E+03 -0.10472934633E+04  0.11211157769E+04  0.16500000000E+03 0.  0.
   -5000001    1    1    2    0    0 -0.26630398382E+03 -0.24886577749E+03 -0.28394123748E+04  0.28674622266E+04  0.16500000000E+03 0.  0.
<mgrwt>
<rscale>  0 0.89569650E+03</rscale>
<asrwt>0</asrwt>
<pdfrwt beam="1">  1        2 0.56252008E+00 0.89569650E+03</pdfrwt>
<pdfrwt beam="2">  1       -2 0.72765857E-02 0.89569650E+03</pdfrwt>
<totfact> 0.76417568E+01</totfact>
</mgrwt>
</event>
<event>
 4    1  0.5531008E-005  0.9147206E+03  0.7818608E-02  0.9407365E-01
         -2   -1    0    0    0  501 -0.00000000000E+00  0.00000000000E+00  0.96252557727E+03  0.96252557728E+03  0.25500000000E-02 0. -1.
          2   -1    0    0  501    0  0.00000000000E+00 -0.00000000000E+00 -0.21732248228E+03  0.21732248229E+03  0.25500000000E-02 0.  1.
    5000001    1    1    2    0    0  0.31155834794E+03  0.27376030638E+03  0.50119943381E+03  0.67114766033E+03  0.16500000000E+03 0.  0.
   -5000001    1    1    2    0    0 -0.31155834794E+03 -0.27376030638E+03  0.24400366118E+03  0.50870039924E+03  0.16500000000E+03 0.  0.
<mgrwt>
<rscale>  0 0.91472061E+03</rscale>
<asrwt>0</asrwt>
<pdfrwt beam="1">  1        2 0.31046068E-01 0.91472061E+03</pdfrwt>
<pdfrwt beam="2">  1       -2 0.13750366E+00 0.91472061E+03</pdfrwt>
<totfact> 0.64593313E+01</totfact>
</mgrwt>
</event>
<event>
 4    1  0.5531008E-005  0.4246996E+03  0.7818608E-02  0.1035548E+00
          2   -1    0    0  501    0  0.00000000000E+00  0.00000000000E+00  0.16006234820E+03  0.16006234822E+03  0.25500000000E-02 0.  1.
         -2   -1    0    0    0  501 -0.00000000000E+00 -0.00000000000E+00 -0.28171794541E+03  0.28171794542E+03  0.25500000000E-02 0. -1.
    5000001    1    1    2    0    0  0.66994489376E+02 -0.41151964536E+02  0.51620186467E+02  0.18992469414E+03  0.16500000000E+03 0.  0.
   -5000001    1    1    2    0    0 -0.66994489376E+02  0.41151964536E+02 -0.17327578367E+03  0.25185559950E+03  0.16500000000E+03 0.  0.
<mgrwt>
<rscale>  0 0.42469959E+03</rscale>
<asrwt>0</asrwt>
<pdfrwt beam="1">  1        2 0.22866050E-01 0.42469959E+03</pdfrwt>
<pdfrwt beam="2">  1       -2 0.40245421E-01 0.42469959E+03</pdfrwt>
<totfact> 0.14135005E+03</totfact>
</mgrwt>
</event>
<event>
 4    1  0.5531008E-005  0.3919993E+03  0.7818608E-02  0.1046586E+00
          2   -1    0    0  501    0  0.00000000000E+00  0.00000000000E+00  0.20987545936E+04  0.20987545936E+04  0.25500000000E-02 0.  1.
         -2   -1    0    0    0  501 -0.00000000000E+00 -0.00000000000E+00 -0.18304126238E+02  0.18304126415E+02  0.25500000000E-02 0. -1.
    5000001    1    1    2    0    0 -0.21272989024E+02  0.68160308480E+02  0.61867882025E+03  0.64427234174E+03  0.16500000000E+03 0.  0.
   -5000001    1    1    2    0    0  0.21272989024E+02 -0.68160308480E+02  0.14617716471E+04  0.14727863782E+04  0.16500000000E+03 0.  0.
<mgrwt>
<rscale>  0 0.39199933E+03</rscale>
<asrwt>0</asrwt>
<pdfrwt beam="1">  1        2 0.29982195E+00 0.39199933E+03</pdfrwt>
<pdfrwt beam="2">  1       -2 0.26148763E-02 0.39199933E+03</pdfrwt>
<totfact> 0.41013533E+03</totfact>
</mgrwt>
</event>
<event>
 4    1  0.5531008E-005  0.7413814E+03  0.7818608E-02  0.9648969E-01
          2   -1    0    0  501    0  0.00000000000E+00  0.00000000000E+00  0.11251774207E+03  0.11251774210E+03  0.25500000000E-02 0.  1.
         -2   -1    0    0    0  501 -0.00000000000E+00 -0.00000000000E+00 -0.12212437534E+04  0.12212437534E+04  0.25500000000E-02 0. -1.
    5000001    1    1    2    0    0 -0.21695538429E+03 -0.20510441699E+03 -0.81537085202E+03  0.88385071532E+03  0.16500000000E+03 0.  0.
   -5000001    1    1    2    0    0  0.21695538429E+03  0.20510441699E+03 -0.29335515932E+03  0.44991078020E+03  0.16500000000E+03 0.  0.
<mgrwt>
<rscale>  0 0.74138139E+03</rscale>
<asrwt>0</asrwt>
<pdfrwt beam="1">  1        2 0.16073964E-01 0.74138139E+03</pdfrwt>
<pdfrwt beam="2">  1       -2 0.17446339E+00 0.74138139E+03</pdfrwt>
<totfact> 0.74124328E+01</totfact>
</mgrwt>
</event>
<event>
 4    1  0.5531008E-005  0.5219798E+03  0.7818608E-02  0.1008196E+00
         -2   -1    0    0    0  501 -0.00000000000E+00  0.00000000000E+00  0.47776611075E+03  0.47776611076E+03  0.25500000000E-02 0. -1.
          2   -1    0    0  501    0  0.00000000000E+00 -0.00000000000E+00 -0.14257128798E+03  0.14257128800E+03  0.25500000000E-02 0.  1.
    5000001    1    1    2    0    0  0.27537643503E+02  0.26981563911E-01 -0.70482014851E+02  0.18152420487E+03  0.16500000000E+03 0.  0.
   -5000001    1    1    2    0    0 -0.27537643503E+02 -0.26981563911E-01  0.40567683763E+03  0.43881319388E+03  0.16500000000E+03 0.  0.
<mgrwt>
<rscale>  0 0.52197981E+03</rscale>
<asrwt>0</asrwt>
<pdfrwt beam="1">  1        2 0.20367327E-01 0.52197981E+03</pdfrwt>
<pdfrwt beam="2">  1       -2 0.68252303E-01 0.52197981E+03</pdfrwt>
<totfact> 0.55063897E+02</totfact>
</mgrwt>
</event>
<event>
 4    1  0.5531008E-005  0.5683872E+03  0.7818608E-02  0.9973254E-01
         -2   -1    0    0    0  501 -0.00000000000E+00  0.00000000000E+00  0.28460866791E+02  0.28460866906E+02  0.25500000000E-02 0. -1.
          2   -1    0    0  501    0  0.00000000000E+00 -0.00000000000E+00 -0.28377915976E+04  0.28377915976E+04  0.25500000000E-02 0.  1.
    5000001    1    1    2    0    0  0.19119425469E+03  0.11534877643E+03 -0.17105933131E+04  0.17329786687E+04  0.16500000000E+03 0.  0.
   -5000001    1    1    2    0    0 -0.19119425469E+03 -0.11534877643E+03 -0.10987374176E+04  0.11332737957E+04  0.16500000000E+03 0.  0.
<mgrwt>
<rscale>  0 0.56838722E+03</rscale>
<asrwt>0</asrwt>
<pdfrwt beam="1">  1        2 0.40539862E+00 0.56838722E+03</pdfrwt>
<pdfrwt beam="2">  1       -2 0.40658399E-02 0.56838722E+03</pdfrwt>
<totfact> 0.87331917E+02</totfact>
</mgrwt>
</event>
<event>
 4    1  0.5531008E-005  0.4761603E+03  0.7818608E-02  0.1020196E+00
         -2   -1    0    0    0  501 -0.00000000000E+00  0.00000000000E+00  0.27349324285E+02  0.27349324404E+02  0.25500000000E-02 0. -1.
          2   -1    0    0  501    0  0.00000000000E+00 -0.00000000000E+00 -0.20725248247E+04  0.20725248247E+04  0.25500000000E-02 0.  1.
    5000001    1    1    2    0    0 -0.14625003890E+03 -0.60586113137E+02 -0.73014677905E+03  0.76511376274E+03  0.16500000000E+03 0.  0.
   -5000001    1    1    2    0    0  0.14625003890E+03  0.60586113137E+02 -0.13150287214E+04  0.13347603864E+04  0.16500000000E+03 0.  0.
<mgrwt>
<rscale>  0 0.47616028E+03</rscale>
<asrwt>0</asrwt>
<pdfrwt beam="1">  1        2 0.29607487E+00 0.47616028E+03</pdfrwt>
<pdfrwt beam="2">  1       -2 0.39070477E-02 0.47616028E+03</pdfrwt>
<totfact> 0.22971802E+03</totfact>
</mgrwt>
</event>
<event>
 4    1  0.5531008E-005  0.8378719E+03  0.7818608E-02  0.9506761E-01
          2   -1    0    0  501    0  0.00000000000E+00  0.00000000000E+00  0.26730527801E+04  0.26730527801E+04  0.25500000000E-02 0.  1.
         -2   -1    0    0    0  501 -0.00000000000E+00 -0.00000000000E+00 -0.65658015317E+02  0.65658015366E+02  0.25500000000E-02 0. -1.
    5000001    1    1    2    0    0 -0.92808839881E+02 -0.25273134691E+03  0.40380434017E+03  0.51261053405E+03  0.16500000000E+03 0.  0.
   -5000001    1    1    2    0    0  0.92808839881E+02  0.25273134691E+03  0.22035904247E+04  0.22261002615E+04  0.16500000000E+03 0.  0.
<mgrwt>
<rscale>  0 0.83787192E+03</rscale>
<asrwt>0</asrwt>
<pdfrwt beam="1">  1        2 0.38186474E+00 0.83787192E+03</pdfrwt>
<pdfrwt beam="2">  1       -2 0.93797151E-02 0.83787192E+03</pdfrwt>
<totfact> 0.27950224E+02</totfact>
</mgrwt>
</event>
<event>
 4    1  0.5531008E-005  0.6307719E+03  0.7818608E-02  0.9843544E-01
         -2   -1    0    0    0  501 -0.00000000000E+00  0.00000000000E+00  0.41313717401E+02  0.41313717479E+02  0.25500000000E-02 0. -1.
          2   -1    0    0  501    0  0.00000000000E+00 -0.00000000000E+00 -0.24076335253E+04  0.24076335253E+04  0.25500000000E-02 0.  1.
    5000001    1    1    2    0    0 -0.12150840603E+03 -0.20879126350E+03 -0.16406516678E+04  0.16665296216E+04  0.16500000000E+03 0.  0.
   -5000001    1    1    2    0    0  0.12150840603E+03  0.20879126350E+03 -0.72566814003E+03  0.78241762116E+03  0.16500000000E+03 0.  0.
<mgrwt>
<rscale>  0 0.63077188E+03</rscale>
<asrwt>0</asrwt>
<pdfrwt beam="1">  1        2 0.34394756E+00 0.63077188E+03</pdfrwt>
<pdfrwt beam="2">  1       -2 0.59019611E-02 0.63077188E+03</pdfrwt>
<totfact> 0.81589765E+02</totfact>
</mgrwt>
</event>
<event>
 4    1  0.5531008E-005  0.7609587E+03  0.7818608E-02  0.9618313E-01
         -2   -1    0    0    0  501 -0.00000000000E+00  0.00000000000E+00  0.24611611550E+03  0.24611611552E+03  0.25500000000E-02 0. -1.
          2   -1    0    0  501    0  0.00000000000E+00 -0.00000000000E+00 -0.58819604303E+03  0.58819604303E+03  0.25500000000E-02 0.  1.
    5000001    1    1    2    0    0 -0.45183812416E+02 -0.28628934720E+03  0.29742348149E+02  0.33483245735E+03  0.16500000000E+03 0.  0.
   -5000001    1    1    2    0    0  0.45183812416E+02  0.28628934720E+03 -0.37182227567E+03  0.49947970120E+03  0.16500000000E+03 0.  0.
<mgrwt>
<rscale>  0 0.76095867E+03</rscale>
<asrwt>0</asrwt>
<pdfrwt beam="1">  1        2 0.84028006E-01 0.76095867E+03</pdfrwt>
<pdfrwt beam="2">  1       -2 0.35159445E-01 0.76095867E+03</pdfrwt>
<totfact> 0.42388387E+02</totfact>
</mgrwt>
</event>
<event>
 4    1  0.5531008E-005  0.4794217E+03  0.7818608E-02  0.1019294E+00
          2   -1    0    0  501    0  0.00000000000E+00  0.00000000000E+00  0.24257845722E+04  0.24257845722E+04  0.25500000000E-02 0.  1.
         -2   -1    0    0    0  501 -0.00000000000E+00 -0.00000000000E+00 -0.23687715941E+02  0.23687716078E+02  0.25500000000E-02 0. -1.
    5000001    1    1    2    0    0  0.37386784994E+02 -0.14349487610E+03  0.73704366806E+03  0.76970573585E+03  0.16500000000E+03 0.  0.
   -5000001    1    1    2    0    0 -0.37386784994E+02  0.14349487610E+03  0.16650531882E+04  0.16797665525E+04  0.16500000000E+03 0.  0.
<mgrwt>
<rscale>  0 0.47942172E+03</rscale>
<asrwt>0</asrwt>
<pdfrwt beam="1">  1        2 0.34654055E+00 0.47942172E+03</pdfrwt>
<pdfrwt beam="2">  1       -2 0.33839605E-02 0.47942172E+03</pdfrwt>
<totfact> 0.19013344E+03</totfact>
</mgrwt>
</event>
<event>
 4    1  0.5531008E-005  0.5635893E+03  0.7818608E-02  0.9983966E-01
          2   -1    0    0  501    0  0.00000000000E+00  0.00000000000E+00  0.77060032793E+02  0.77060032835E+02  0.25500000000E-02 0.  1.
         -2   -1    0    0    0  501 -0.00000000000E+00 -0.00000000000E+00 -0.10304723640E+04  0.10304723640E+04  0.25500000000E-02 0. -1.
    5000001    1    1    2    0    0  0.16525698307E+03 -0.82170012013E+02 -0.21216687742E+03  0.32603920807E+03  0.16500000000E+03 0.  0.
   -5000001    1    1    2    0    0 -0.16525698307E+03  0.82170012013E+02 -0.74124545375E+03  0.78149318873E+03  0.16500000000E+03 0.  0.
<mgrwt>
<rscale>  0 0.56358933E+03</rscale>
<asrwt>0</asrwt>
<pdfrwt beam="1">  1        2 0.11008577E-01 0.56358933E+03</pdfrwt>
<pdfrwt beam="2">  1       -2 0.14721033E+00 0.56358933E+03</pdfrwt>
<totfact> 0.18833722E+02</totfact>
</mgrwt>
</event>
<event>
 4    1  0.5531008E-005  0.3694535E+03  0.7818608E-02  0.1054902E+00
         -2   -1    0    0    0  501 -0.00000000000E+00  0.00000000000E+00  0.23556224842E+04  0.23556224842E+04  0.25500000000E-02 0. -1.
          2   -1    0    0  501    0  0.00000000000E+00 -0.00000000000E+00 -0.14486183232E+02  0.14486183457E+02  0.25500000000E-02 0.  1.
    5000001    1    1    2    0    0  0.69038644375E+02  0.43298002955E+02  0.10675396354E+04  0.10832852462E+04  0.16500000000E+03 0.  0.
   -5000001    1    1    2    0    0 -0.69038644375E+02 -0.43298002955E+02  0.12735966656E+04  0.12868234215E+04  0.16500000000E+03 0.  0.
<mgrwt>
<rscale>  0 0.36945354E+03</rscale>
<asrwt>0</asrwt>
<pdfrwt beam="1">  1        2 0.20694557E-02 0.36945354E+03</pdfrwt>
<pdfrwt beam="2">  1       -2 0.33651734E+00 0.36945354E+03</pdfrwt>
<totfact> 0.11528275E+02</totfact>
</mgrwt>
</event>
<event>
 4    1  0.5531008E-005  0.4402171E+03  0.7818608E-02  0.1030680E+00
          2   -1    0    0  501    0  0.00000000000E+00  0.00000000000E+00  0.45988649323E+04  0.45988649323E+04  0.25500000000E-02 0.  1.
         -2   -1    0    0    0  501 -0.00000000000E+00 -0.00000000000E+00 -0.10534723402E+02  0.10534723710E+02  0.25500000000E-02 0. -1.
    5000001    1    1    2    0    0  0.28273490801E+02  0.80022870661E+02  0.10543778995E+04  0.10705796585E+04  0.16500000000E+03 0.  0.
   -5000001    1    1    2    0    0 -0.28273490801E+02 -0.80022870661E+02  0.35339523094E+04  0.35388199976E+04  0.16500000000E+03 0.  0.
<mgrwt>
<rscale>  0 0.44021709E+03</rscale>
<asrwt>0</asrwt>
<pdfrwt beam="1">  1        2 0.65698123E+00 0.44021709E+03</pdfrwt>
<pdfrwt beam="2">  1       -2 0.15049593E-02 0.44021709E+03</pdfrwt>
<totfact> 0.30444188E+02</totfact>
</mgrwt>
</event>
<event>
 4    1  0.5531008E-005  0.6456896E+03  0.7818608E-02  0.9814901E-01
          2   -1    0    0  501    0  0.00000000000E+00  0.00000000000E+00  0.79058109935E+03  0.79058109935E+03  0.25500000000E-02 0.  1.
         -2   -1    0    0    0  501 -0.00000000000E+00 -0.00000000000E+00 -0.13183815125E+03  0.13183815128E+03  0.25500000000E-02 0. -1.
    5000001    1    1    2    0    0  0.17467796197E+03 -0.14672538427E+03  0.10366024049E+03  0.30001862316E+03  0.16500000000E+03 0.  0.
   -5000001    1    1    2    0    0 -0.17467796197E+03  0.14672538427E+03  0.55508270760E+03  0.62240062746E+03  0.16500000000E+03 0.  0.
<mgrwt>
<rscale>  0 0.64568956E+03</rscale>
<asrwt>0</asrwt>
<pdfrwt beam="1">  1        2 0.11294016E+00 0.64568956E+03</pdfrwt>
<pdfrwt beam="2">  1       -2 0.18834021E-01 0.64568956E+03</pdfrwt>
<totfact> 0.91762246E+02</totfact>
</mgrwt>
</event>
<event>
 4    1  0.5531008E-005  0.1077346E+04  0.7818608E-02  0.9227557E-01
          2   -1    0    0  501    0  0.00000000000E+00  0.00000000000E+00  0.92586194534E+03  0.92586194534E+03  0.25500000000E-02 0.  1.
         -2   -1    0    0    0  501 -0.00000000000E+00 -0.00000000000E+00 -0.31340392109E+03  0.31340392110E+03  0.25500000000E-02 0. -1.
    5000001    1    1    2    0    0  0.31552098655E+02 -0.30571881129E+03 -0.16593056237E+03  0.38628678212E+03  0.16500000000E+03 0.  0.
   -5000001    1    1    2    0    0 -0.31552098655E+02  0.30571881129E+03  0.77838858663E+03  0.85297908433E+03  0.16500000000E+03 0.  0.
<mgrwt>
<rscale>  0 0.10773463E+04</rscale>
<asrwt>0</asrwt>
<pdfrwt beam="1">  1        2 0.13226600E+00 0.10773463E+04</pdfrwt>
<pdfrwt beam="2">  1       -2 0.44771988E-01 0.10773463E+04</pdfrwt>
<totfact> 0.14703067E+02</totfact>
</mgrwt>
</event>
<event>
 4    1  0.5531008E-005  0.4551970E+03  0.7818608E-02  0.1026183E+00
          2   -1    0    0  501    0  0.00000000000E+00  0.00000000000E+00  0.91322178952E+03  0.91322178952E+03  0.25500000000E-02 0.  1.
         -2   -1    0    0    0  501 -0.00000000000E+00 -0.00000000000E+00 -0.56723435778E+02  0.56723435836E+02  0.25500000000E-02 0. -1.
    5000001    1    1    2    0    0  0.58538659487E+02  0.11085437782E+03  0.22767287338E+03  0.30785614337E+03  0.16500000000E+03 0.  0.
   -5000001    1    1    2    0    0 -0.58538659487E+02 -0.11085437782E+03  0.62882548037E+03  0.66208908199E+03  0.16500000000E+03 0.  0.
<mgrwt>
<rscale>  0 0.45519700E+03</rscale>
<asrwt>0</asrwt>
<pdfrwt beam="1">  1        2 0.13046025E+00 0.45519700E+03</pdfrwt>
<pdfrwt beam="2">  1       -2 0.81033483E-02 0.45519700E+03</pdfrwt>
<totfact> 0.30640362E+03</totfact>
</mgrwt>
</event>
<event>
 4    1  0.5531008E-005  0.3723734E+03  0.7818608E-02  0.1053789E+00
         -2   -1    0    0    0  501 -0.00000000000E+00  0.00000000000E+00  0.24936343796E+02  0.24936343926E+02  0.25500000000E-02 0. -1.
          2   -1    0    0  501    0  0.00000000000E+00 -0.00000000000E+00 -0.13901593487E+04  0.13901593487E+04  0.25500000000E-02 0.  1.
    5000001    1    1    2    0    0 -0.57925169368E+00  0.86103348320E+02 -0.70212600241E+03  0.72637459027E+03  0.16500000000E+03 0.  0.
   -5000001    1    1    2    0    0  0.57925169368E+00 -0.86103348320E+02 -0.66309700253E+03  0.68872110240E+03  0.16500000000E+03 0.  0.
<mgrwt>
<rscale>  0 0.37237342E+03</rscale>
<asrwt>0</asrwt>
<pdfrwt beam="1">  1        2 0.19859414E+00 0.37237342E+03</pdfrwt>
<pdfrwt beam="2">  1       -2 0.35623357E-02 0.37237342E+03</pdfrwt>
<totfact> 0.58393990E+03</totfact>
</mgrwt>
</event>
<event>
 4    1  0.5531008E-005  0.3880864E+03  0.7818608E-02  0.1047985E+00
         -2   -1    0    0    0  501 -0.00000000000E+00  0.00000000000E+00  0.28762694052E+03  0.28762694053E+03  0.25500000000E-02 0. -1.
          2   -1    0    0  501    0  0.00000000000E+00 -0.00000000000E+00 -0.13090834322E+03  0.13090834325E+03  0.25500000000E-02 0.  1.
    5000001    1    1    2    0    0  0.19688185275E+02  0.10014395810E+03  0.81989282240E+02  0.21062687242E+03  0.16500000000E+03 0.  0.
   -5000001    1    1    2    0    0 -0.19688185275E+02 -0.10014395810E+03  0.74729315056E+02  0.20790841136E+03  0.16500000000E+03 0.  0.
<mgrwt>
<rscale>  0 0.38808641E+03</rscale>
<asrwt>0</asrwt>
<pdfrwt beam="1">  1        2 0.18701192E-01 0.38808641E+03</pdfrwt>
<pdfrwt beam="2">  1       -2 0.41089563E-01 0.38808641E+03</pdfrwt>
<totfact> 0.17109178E+03</totfact>
</mgrwt>
</event>
<event>
 4    1  0.5531008E-005  0.4405611E+03  0.7818608E-02  0.1030575E+00
         -2   -1    0    0    0  501 -0.00000000000E+00  0.00000000000E+00  0.27415052459E+03  0.27415052460E+03  0.25500000000E-02 0. -1.
          2   -1    0    0  501    0  0.00000000000E+00 -0.00000000000E+00 -0.17699592012E+03  0.17699592014E+03  0.25500000000E-02 0.  1.
    5000001    1    1    2    0    0  0.13568921284E+03  0.30942010582E+02  0.93559412690E+02  0.23526014155E+03  0.16500000000E+03 0.  0.
   -5000001    1    1    2    0    0 -0.13568921284E+03 -0.30942010582E+02  0.35951917735E+01  0.21588630319E+03  0.16500000000E+03 0.  0.
<mgrwt>
<rscale>  0 0.44056112E+03</rscale>
<asrwt>0</asrwt>
<pdfrwt beam="1">  1        2 0.25285131E-01 0.44056112E+03</pdfrwt>
<pdfrwt beam="2">  1       -2 0.39164361E-01 0.44056112E+03</pdfrwt>
<totfact> 0.13289398E+03</totfact>
</mgrwt>
</event>
<event>
 4    1  0.5531008E-005  0.7457417E+03  0.7818608E-02  0.9642055E-01
         -2   -1    0    0    0  501 -0.00000000000E+00  0.00000000000E+00  0.82211656405E+02  0.82211656444E+02  0.25500000000E-02 0. -1.
          2   -1    0    0  501    0  0.00000000000E+00 -0.00000000000E+00 -0.16911553512E+04  0.16911553512E+04  0.25500000000E-02 0.  1.
    5000001    1    1    2    0    0  0.31554049888E+03  0.59275934276E+02 -0.10266357594E+04  0.10882487883E+04  0.16500000000E+03 0.  0.
   -5000001    1    1    2    0    0 -0.31554049888E+03 -0.59275934276E+02 -0.58230793538E+03  0.68511821931E+03  0.16500000000E+03 0.  0.
<mgrwt>
<rscale>  0 0.74574173E+03</rscale>
<asrwt>0</asrwt>
<pdfrwt beam="1">  1        2 0.24159360E+00 0.74574173E+03</pdfrwt>
<pdfrwt beam="2">  1       -2 0.11744523E-01 0.74574173E+03</pdfrwt>
<totfact> 0.61956202E+02</totfact>
</mgrwt>
</event>
<event>
 4    1  0.5531008E-005  0.4837766E+03  0.7818608E-02  0.1018102E+00
          2   -1    0    0  501    0  0.00000000000E+00  0.00000000000E+00  0.11435339077E+04  0.11435339077E+04  0.25500000000E-02 0.  1.
         -2   -1    0    0    0  501 -0.00000000000E+00 -0.00000000000E+00 -0.51165902163E+02  0.51165902227E+02  0.25500000000E-02 0. -1.
    5000001    1    1    2    0    0  0.79766107753E+02  0.13395002296E+03  0.33986822379E+03  0.40870606815E+03  0.16500000000E+03 0.  0.
   -5000001    1    1    2    0    0 -0.79766107753E+02 -0.13395002296E+03  0.75249978171E+03  0.78599374175E+03  0.16500000000E+03 0.  0.
<mgrwt>
<rscale>  0 0.48377658E+03</rscale>
<asrwt>0</asrwt>
<pdfrwt beam="1">  1        2 0.16336197E+00 0.48377658E+03</pdfrwt>
<pdfrwt beam="2">  1       -2 0.73094154E-02 0.48377658E+03</pdfrwt>
<totfact> 0.26282804E+03</totfact>
</mgrwt>
</event>
<event>
 4    1  0.5531008E-005  0.4582309E+03  0.7818608E-02  0.1025296E+00
         -2   -1    0    0    0  501 -0.00000000000E+00  0.00000000000E+00  0.63085588059E+02  0.63085588111E+02  0.25500000000E-02 0. -1.
          2   -1    0    0  501    0  0.00000000000E+00 -0.00000000000E+00 -0.83210592203E+03  0.83210592203E+03  0.25500000000E-02 0.  1.
    5000001    1    1    2    0    0 -0.13760904696E+03 -0.29347094481E+01 -0.53986633669E+03  0.58105552559E+03  0.16500000000E+03 0.  0.
   -5000001    1    1    2    0    0  0.13760904696E+03  0.29347094481E+01 -0.22915399728E+03  0.31413598456E+03  0.16500000000E+03 0.  0.
<mgrwt>
<rscale>  0 0.45823091E+03</rscale>
<asrwt>0</asrwt>
<pdfrwt beam="1">  1        2 0.11887227E+00 0.45823091E+03</pdfrwt>
<pdfrwt beam="2">  1       -2 0.90122274E-02 0.45823091E+03</pdfrwt>
<totfact> 0.29218919E+03</totfact>
</mgrwt>
</event>
<event>
 4    1  0.5531008E-005  0.8643349E+03  0.7818608E-02  0.9471297E-01
          2   -1    0    0  501    0  0.00000000000E+00  0.00000000000E+00  0.13420796668E+03  0.13420796670E+03  0.25500000000E-02 0.  1.
         -2   -1    0    0    0  501 -0.00000000000E+00 -0.00000000000E+00 -0.13916364054E+04  0.13916364054E+04  0.25500000000E-02 0. -1.
    5000001    1    1    2    0    0 -0.39117193609E+03 -0.33136868057E+02 -0.49862707267E+03  0.65571906577E+03  0.16500000000E+03 0.  0.
   -5000001    1    1    2    0    0  0.39117193609E+03  0.33136868057E+02 -0.75880136609E+03  0.87012530637E+03  0.16500000000E+03 0.  0.
<mgrwt>
<rscale>  0 0.86433487E+03</rscale>
<asrwt>0</asrwt>
<pdfrwt beam="1">  1        2 0.19172568E-01 0.86433487E+03</pdfrwt>
<pdfrwt beam="2">  1       -2 0.19880519E+00 0.86433487E+03</pdfrwt>
<totfact> 0.40859889E+01</totfact>
</mgrwt>
</event>
<event>
 4    1  0.5531008E-005  0.4041302E+03  0.7818608E-02  0.1042359E+00
         -2   -1    0    0    0  501 -0.00000000000E+00  0.00000000000E+00  0.29298919912E+02  0.29298920023E+02  0.25500000000E-02 0. -1.
          2   -1    0    0  501    0  0.00000000000E+00 -0.00000000000E+00 -0.13935773850E+04  0.13935773850E+04  0.25500000000E-02 0.  1.
    5000001    1    1    2    0    0 -0.34827443071E+02 -0.57168984079E+02 -0.34582900478E+03  0.38897807661E+03  0.16500000000E+03 0.  0.
   -5000001    1    1    2    0    0  0.34827443071E+02  0.57168984079E+02 -0.10184494603E+04  0.10338982284E+04  0.16500000000E+03 0.  0.
<mgrwt>
<rscale>  0 0.40413024E+03</rscale>
<asrwt>0</asrwt>
<pdfrwt beam="1">  1        2 0.19908244E+00 0.40413024E+03</pdfrwt>
<pdfrwt beam="2">  1       -2 0.41855609E-02 0.40413024E+03</pdfrwt>
<totfact> 0.45566119E+03</totfact>
</mgrwt>
</event>
<event>
 4    1  0.5531008E-005  0.7229817E+03  0.7818608E-02  0.9678718E-01
          2   -1    0    0  501    0  0.00000000000E+00  0.00000000000E+00  0.19182354407E+04  0.19182354407E+04  0.25500000000E-02 0.  1.
         -2   -1    0    0    0  501 -0.00000000000E+00 -0.00000000000E+00 -0.68122830371E+02  0.68122830419E+02  0.25500000000E-02 0. -1.
    5000001    1    1    2    0    0  0.29866351828E+03  0.78064054765E+02  0.11731915380E+04  0.12242946045E+04  0.16500000000E+03 0.  0.
   -5000001    1    1    2    0    0 -0.29866351828E+03 -0.78064054765E+02  0.67692107231E+03  0.76206366659E+03  0.16500000000E+03 0.  0.
<mgrwt>
<rscale>  0 0.72298168E+03</rscale>
<asrwt>0</asrwt>
<pdfrwt beam="1">  1        2 0.27403360E+00 0.72298168E+03</pdfrwt>
<pdfrwt beam="2">  1       -2 0.97318341E-02 0.72298168E+03</pdfrwt>
<totfact> 0.64671261E+02</totfact>
</mgrwt>
</event>
<event>
 4    1  0.5531008E-005  0.4904202E+03  0.7818608E-02  0.1016310E+00
          2   -1    0    0  501    0  0.00000000000E+00  0.00000000000E+00  0.11981707910E+04  0.11981707910E+04  0.25500000000E-02 0.  1.
         -2   -1    0    0    0  501 -0.00000000000E+00 -0.00000000000E+00 -0.50183151325E+02  0.50183151390E+02  0.25500000000E-02 0. -1.
    5000001    1    1    2    0    0  0.23160646899E+02 -0.17921491233E+03  0.61412736880E+03  0.66108382636E+03  0.16500000000E+03 0.  0.
   -5000001    1    1    2    0    0 -0.23160646899E+02  0.17921491233E+03  0.53386027085E+03  0.58727011601E+03  0.16500000000E+03 0.  0.
<mgrwt>
<rscale>  0 0.49042017E+03</rscale>
<asrwt>0</asrwt>
<pdfrwt beam="1">  1        2 0.17116726E+00 0.49042017E+03</pdfrwt>
<pdfrwt beam="2">  1       -2 0.71690214E-02 0.49042017E+03</pdfrwt>
<totfact> 0.25248995E+03</totfact>
</mgrwt>
</event>
<event>
 4    1  0.5531008E-005  0.4458642E+03  0.7818608E-02  0.1028963E+00
         -2   -1    0    0    0  501 -0.00000000000E+00  0.00000000000E+00  0.24429318731E+03  0.24429318732E+03  0.25500000000E-02 0. -1.
          2   -1    0    0  501    0  0.00000000000E+00 -0.00000000000E+00 -0.20343882662E+03  0.20343882664E+03  0.25500000000E-02 0.  1.
    5000001    1    1    2    0    0  0.13484828053E+03 -0.61282396889E+02  0.43635217465E+02  0.22598367891E+03  0.16500000000E+03 0.  0.
   -5000001    1    1    2    0    0 -0.13484828053E+03  0.61282396889E+02 -0.27808567797E+01  0.22174833505E+03  0.16500000000E+03 0.  0.
<mgrwt>
<rscale>  0 0.44586419E+03</rscale>
<asrwt>0</asrwt>
<pdfrwt beam="1">  1        2 0.29062689E-01 0.44586419E+03</pdfrwt>
<pdfrwt beam="2">  1       -2 0.34899027E-01 0.44586419E+03</pdfrwt>
<totfact> 0.14150780E+03</totfact>
</mgrwt>
</event>
<event>
 4    1  0.5531008E-005  0.4404762E+03  0.7818608E-02  0.1030601E+00
          2   -1    0    0  501    0  0.00000000000E+00  0.00000000000E+00  0.21247517591E+04  0.21247517591E+04  0.25500000000E-02 0.  1.
         -2   -1    0    0    0  501 -0.00000000000E+00 -0.00000000000E+00 -0.22828461727E+02  0.22828461869E+02  0.25500000000E-02 0. -1.
    5000001    1    1    2    0    0  0.37800023781E+01 -0.14582695087E+03  0.10501702223E+04  0.10730155096E+04  0.16500000000E+03 0.  0.
   -5000001    1    1    2    0    0 -0.37800023781E+01  0.14582695087E+03  0.10517530751E+04  0.10745647114E+04  0.16500000000E+03 0.  0.
<mgrwt>
<rscale>  0 0.44047617E+03</rscale>
<asrwt>0</asrwt>
<pdfrwt beam="1">  1        2 0.30353582E+00 0.44047617E+03</pdfrwt>
<pdfrwt beam="2">  1       -2 0.32612104E-02 0.44047617E+03</pdfrwt>
<totfact> 0.28513185E+03</totfact>
</mgrwt>
</event>
<event>
 4    1  0.5531008E-005  0.4454431E+03  0.7818608E-02  0.1029090E+00
         -2   -1    0    0    0  501 -0.00000000000E+00  0.00000000000E+00  0.16694649725E+03  0.16694649727E+03  0.25500000000E-02 0. -1.
          2   -1    0    0  501    0  0.00000000000E+00 -0.00000000000E+00 -0.29713050953E+03  0.29713050954E+03  0.25500000000E-02 0.  1.
    5000001    1    1    2    0    0  0.14273426803E+03 -0.31521118344E+02 -0.98255108030E+02  0.24134149752E+03  0.16500000000E+03 0.  0.
   -5000001    1    1    2    0    0 -0.14273426803E+03  0.31521118344E+02 -0.31928904247E+02  0.22273550929E+03  0.16500000000E+03 0.  0.
<mgrwt>
<rscale>  0 0.44544314E+03</rscale>
<asrwt>0</asrwt>
<pdfrwt beam="1">  1        2 0.42447216E-01 0.44544314E+03</pdfrwt>
<pdfrwt beam="2">  1       -2 0.23849500E-01 0.44544314E+03</pdfrwt>
<totfact> 0.18662648E+03</totfact>
</mgrwt>
</event>
<event>
 4    1  0.5531008E-005  0.4488789E+03  0.7818608E-02  0.1028057E+00
          2   -1    0    0  501    0  0.00000000000E+00  0.00000000000E+00  0.52054500953E+03  0.52054500953E+03  0.25500000000E-02 0.  1.
         -2   -1    0    0    0  501 -0.00000000000E+00 -0.00000000000E+00 -0.96769879414E+02  0.96769879448E+02  0.25500000000E-02 0. -1.
    5000001    1    1    2    0    0  0.12093471433E+03 -0.92297700168E+02  0.21464052245E+03  0.31054729828E+03  0.16500000000E+03 0.  0.
   -5000001    1    1    2    0    0 -0.12093471433E+03  0.92297700168E+02  0.20913460766E+03  0.30676759071E+03  0.16500000000E+03 0.  0.
<mgrwt>
<rscale>  0 0.44887895E+03</rscale>
<asrwt>0</asrwt>
<pdfrwt beam="1">  1        2 0.74363572E-01 0.44887895E+03</pdfrwt>
<pdfrwt beam="2">  1       -2 0.13824269E-01 0.44887895E+03</pdfrwt>
<totfact> 0.25542726E+03</totfact>
</mgrwt>
</event>
<event>
 4    1  0.5531008E-005  0.3889501E+03  0.7818608E-02  0.1047674E+00
          2   -1    0    0  501    0  0.00000000000E+00  0.00000000000E+00  0.12181761387E+03  0.12181761390E+03  0.25500000000E-02 0.  1.
         -2   -1    0    0    0  501 -0.00000000000E+00 -0.00000000000E+00 -0.31046866073E+03  0.31046866074E+03  0.25500000000E-02 0. -1.
    5000001    1    1    2    0    0  0.13844046194E+02 -0.10194736437E+03 -0.97948938178E+02  0.21772440655E+03  0.16500000000E+03 0.  0.
   -5000001    1    1    2    0    0 -0.13844046194E+02  0.10194736437E+03 -0.90702108685E+02  0.21456186809E+03  0.16500000000E+03 0.  0.
<mgrwt>
<rscale>  0 0.38895013E+03</rscale>
<asrwt>0</asrwt>
<pdfrwt beam="1">  1        2 0.17402516E-01 0.38895013E+03</pdfrwt>
<pdfrwt beam="2">  1       -2 0.44352666E-01 0.38895013E+03</pdfrwt>
<totfact> 0.16040470E+03</totfact>
</mgrwt>
</event>
<event>
 4    1  0.5531008E-005  0.7946288E+03  0.7818608E-02  0.9567824E-01
         -2   -1    0    0    0  501 -0.00000000000E+00  0.00000000000E+00  0.60186927580E+03  0.60186927580E+03  0.25500000000E-02 0. -1.
          2   -1    0    0  501    0  0.00000000000E+00 -0.00000000000E+00 -0.26228078474E+03  0.26228078475E+03  0.25500000000E-02 0.  1.
    5000001    1    1    2    0    0 -0.15332697335E+03  0.31604268610E+03  0.26233697069E+03  0.46844191356E+03  0.16500000000E+03 0.  0.
   -5000001    1    1    2    0    0  0.15332697335E+03 -0.31604268610E+03  0.77251520370E+02  0.39570814699E+03  0.16500000000E+03 0.  0.
<mgrwt>
<rscale>  0 0.79462883E+03</rscale>
<asrwt>0</asrwt>
<pdfrwt beam="1">  1        2 0.37468684E-01 0.79462883E+03</pdfrwt>
<pdfrwt beam="2">  1       -2 0.85981325E-01 0.79462883E+03</pdfrwt>
<totfact> 0.16385282E+02</totfact>
</mgrwt>
</event>
<event>
 4    1  0.5531008E-005  0.6073177E+03  0.7818608E-02  0.9890339E-01
          2   -1    0    0  501    0  0.00000000000E+00  0.00000000000E+00  0.16112069635E+04  0.16112069635E+04  0.25500000000E-02 0.  1.
         -2   -1    0    0    0  501 -0.00000000000E+00 -0.00000000000E+00 -0.57229584776E+02  0.57229584832E+02  0.25500000000E-02 0. -1.
    5000001    1    1    2    0    0  0.25180895976E+03  0.37359364182E+02  0.74010717131E+03  0.79986692601E+03  0.16500000000E+03 0.  0.
   -5000001    1    1    2    0    0 -0.25180895976E+03 -0.37359364182E+02  0.81387020746E+03  0.86856962236E+03  0.16500000000E+03 0.  0.
<mgrwt>
<rscale>  0 0.60731773E+03</rscale>
<asrwt>0</asrwt>
<pdfrwt beam="1">  1        2 0.23017245E+00 0.60731773E+03</pdfrwt>
<pdfrwt beam="2">  1       -2 0.81756542E-02 0.60731773E+03</pdfrwt>
<totfact> 0.12337245E+03</totfact>
</mgrwt>
</event>
<event>
 4    1  0.5531008E-005  0.7932740E+03  0.7818608E-02  0.9569804E-01
         -2   -1    0    0    0  501 -0.00000000000E+00  0.00000000000E+00  0.23909247616E+03  0.23909247617E+03  0.25500000000E-02 0. -1.
          2   -1    0    0  501    0  0.00000000000E+00 -0.00000000000E+00 -0.65799195965E+03  0.65799195966E+03  0.25500000000E-02 0.  1.
    5000001    1    1    2    0    0  0.61460662396E+02  0.31734896435E+03 -0.39041665124E+03  0.53304590774E+03  0.16500000000E+03 0.  0.
   -5000001    1    1    2    0    0 -0.61460662396E+02 -0.31734896435E+03 -0.28482832256E+02  0.36403852809E+03  0.16500000000E+03 0.  0.
<mgrwt>
<rscale>  0 0.79327404E+03</rscale>
<asrwt>0</asrwt>
<pdfrwt beam="1">  1        2 0.93998851E-01 0.79327404E+03</pdfrwt>
<pdfrwt beam="2">  1       -2 0.34156068E-01 0.79327404E+03</pdfrwt>
<totfact> 0.39123550E+02</totfact>
</mgrwt>
</event>
<event>
 4    1  0.5531008E-005  0.4851058E+03  0.7818608E-02  0.1017741E+00
          2   -1    0    0  501    0  0.00000000000E+00  0.00000000000E+00  0.14240057930E+04  0.14240057930E+04  0.25500000000E-02 0.  1.
         -2   -1    0    0    0  501 -0.00000000000E+00 -0.00000000000E+00 -0.41314368399E+02  0.41314368478E+02  0.25500000000E-02 0. -1.
    5000001    1    1    2    0    0 -0.13263198650E+03  0.11598889536E+03  0.76296895681E+03  0.80024452310E+03  0.16500000000E+03 0.  0.
   -5000001    1    1    2    0    0  0.13263198650E+03 -0.11598889536E+03  0.61972246783E+03  0.66507563842E+03  0.16500000000E+03 0.  0.
<mgrwt>
<rscale>  0 0.48510576E+03</rscale>
<asrwt>0</asrwt>
<pdfrwt beam="1">  1        2 0.20342938E+00 0.48510576E+03</pdfrwt>
<pdfrwt beam="2">  1       -2 0.59020533E-02 0.48510576E+03</pdfrwt>
<totfact> 0.25871867E+03</totfact>
</mgrwt>
</event>
<event>
 4    1  0.5531008E-005  0.6743960E+03  0.7818608E-02  0.9762049E-01
         -2   -1    0    0    0  501 -0.00000000000E+00  0.00000000000E+00  0.22473038770E+03  0.22473038771E+03  0.25500000000E-02 0.  1.
          2   -1    0    0  501    0  0.00000000000E+00 -0.00000000000E+00 -0.50595063688E+03  0.50595063689E+03  0.25500000000E-02 0. -1.
    5000001    1    1    2    0    0 -0.15743649832E+03  0.24008340290E+03 -0.71649014742E+02  0.33879916273E+03  0.16500000000E+03 0.  0.
   -5000001    1    1    2    0    0  0.15743649832E+03 -0.24008340290E+03 -0.20957123444E+03  0.39188186187E+03  0.16500000000E+03 0.  0.
<mgrwt>
<rscale>  0 0.67439598E+03</rscale>
<asrwt>0</asrwt>
<pdfrwt beam="1">  1        2 0.72278662E-01 0.67439598E+03</pdfrwt>
<pdfrwt beam="2">  1       -2 0.32104341E-01 0.67439598E+03</pdfrwt>
<totfact> 0.60083490E+02</totfact>
</mgrwt>
</event>
<event>
 4    1  0.5531008E-005  0.1037377E+04  0.7818608E-02  0.9268474E-01
          2   -1    0    0  501    0  0.00000000000E+00  0.00000000000E+00  0.90354125057E+03  0.90354125057E+03  0.25500000000E-02 0.  1.
         -2   -1    0    0    0  501 -0.00000000000E+00 -0.00000000000E+00 -0.29775950622E+03  0.29775950623E+03  0.25500000000E-02 0. -1.
    5000001    1    1    2    0    0  0.73269100989E+02 -0.42303358947E+03  0.25239010639E+02  0.46063845545E+03  0.16500000000E+03 0.  0.
   -5000001    1    1    2    0    0 -0.73269100989E+02  0.42303358947E+03  0.58054273371E+03  0.74066230135E+03  0.16500000000E+03 0.  0.
<mgrwt>
<rscale>  0 0.10373775E+04</rscale>
<asrwt>0</asrwt>
<pdfrwt beam="1">  1        2 0.12907732E+00 0.10373775E+04</pdfrwt>
<pdfrwt beam="2">  1       -2 0.42537073E-01 0.10373775E+04</pdfrwt>
<totfact> 0.16865848E+02</totfact>
</mgrwt>
</event>
<event>
 4    1  0.5531008E-005  0.6093319E+03  0.7818608E-02  0.9886232E-01
          2   -1    0    0  501    0  0.00000000000E+00  0.00000000000E+00  0.65733488557E+03  0.65733488557E+03  0.25500000000E-02 0.  1.
         -2   -1    0    0    0  501 -0.00000000000E+00 -0.00000000000E+00 -0.14120860651E+03  0.14120860653E+03  0.25500000000E-02 0. -1.
    5000001    1    1    2    0    0 -0.22603371256E+00  0.22811959235E+03  0.41065745822E+03  0.49789873217E+03  0.16500000000E+03 0.  0.
   -5000001    1    1    2    0    0  0.22603371256E+00 -0.22811959235E+03  0.10546882084E+03  0.30064475993E+03  0.16500000000E+03 0.  0.
<mgrwt>
<rscale>  0 0.60933191E+03</rscale>
<asrwt>0</asrwt>
<pdfrwt beam="1">  1        2 0.93904984E-01 0.60933191E+03</pdfrwt>
<pdfrwt beam="2">  1       -2 0.20172658E-01 0.60933191E+03</pdfrwt>
<totfact> 0.10240950E+03</totfact>
</mgrwt>
</event>
<event>
 4    1  0.5531008E-005  0.7198260E+03  0.7818608E-02  0.9683915E-01
          2   -1    0    0  501    0  0.00000000000E+00  0.00000000000E+00  0.13790586007E+04  0.13790586007E+04  0.25500000000E-02 0.  1.
         -2   -1    0    0    0  501 -0.00000000000E+00 -0.00000000000E+00 -0.93931733795E+02  0.93931733829E+02  0.25500000000E-02 0. -1.
    5000001    1    1    2    0    0  0.94880095363E+02 -0.21601148074E+03  0.20059185093E+03  0.35089212440E+03  0.16500000000E+03 0.  0.
   -5000001    1    1    2    0    0 -0.94880095363E+02  0.21601148074E+03  0.10845350160E+04  0.11220982102E+04  0.16500000000E+03 0.  0.
<mgrwt>
<rscale>  0 0.71982599E+03</rscale>
<asrwt>0</asrwt>
<pdfrwt beam="1">  1        2 0.19700838E+00 0.71982599E+03</pdfrwt>
<pdfrwt beam="2">  1       -2 0.13418819E-01 0.71982599E+03</pdfrwt>
<totfact> 0.72408021E+02</totfact>
</mgrwt>
</event>
<event>
 4    1  0.5531008E-005  0.5219428E+03  0.7818608E-02  0.1008205E+00
          2   -1    0    0  501    0  0.00000000000E+00  0.00000000000E+00  0.28074990077E+03  0.28074990078E+03  0.25500000000E-02 0.  1.
         -2   -1    0    0    0  501 -0.00000000000E+00 -0.00000000000E+00 -0.24258629560E+03  0.24258629561E+03  0.25500000000E-02 0. -1.
    5000001    1    1    2    0    0  0.12782119465E+02 -0.20150192917E+03  0.29818721964E+02  0.26245107395E+03  0.16500000000E+03 0.  0.
   -5000001    1    1    2    0    0 -0.12782119465E+02  0.20150192917E+03  0.83448832055E+01  0.26088512244E+03  0.16500000000E+03 0.  0.
<mgrwt>
<rscale>  0 0.52194283E+03</rscale>
<asrwt>0</asrwt>
<pdfrwt beam="1">  1        2 0.40107129E-01 0.52194283E+03</pdfrwt>
<pdfrwt beam="2">  1       -2 0.34655185E-01 0.52194283E+03</pdfrwt>
<totfact> 0.10040620E+03</totfact>
</mgrwt>
</event>
<event>
 4    1  0.5531008E-005  0.5800093E+03  0.7818608E-02  0.9947771E-01
          2   -1    0    0  501    0  0.00000000000E+00  0.00000000000E+00  0.25043705483E+03  0.25043705484E+03  0.25500000000E-02 0.  1.
         -2   -1    0    0    0  501 -0.00000000000E+00 -0.00000000000E+00 -0.33582372777E+03  0.33582372778E+03  0.25500000000E-02 0. -1.
    5000001    1    1    2    0    0  0.17784547529E+03 -0.15173654204E+03  0.49819119407E+01  0.28618667110E+03  0.16500000000E+03 0.  0.
   -5000001    1    1    2    0    0 -0.17784547529E+03  0.15173654204E+03 -0.90368584882E+02  0.30007411152E+03  0.16500000000E+03 0.  0.
<mgrwt>
<rscale>  0 0.58000933E+03</rscale>
<asrwt>0</asrwt>
<pdfrwt beam="1">  1        2 0.35776722E-01 0.58000933E+03</pdfrwt>
<pdfrwt beam="2">  1       -2 0.47974818E-01 0.58000933E+03</pdfrwt>
<totfact> 0.60482813E+02</totfact>
</mgrwt>
</event>
<event>
 4    1  0.5531008E-005  0.9203587E+03  0.7818608E-02  0.9400484E-01
          2   -1    0    0  501    0  0.00000000000E+00  0.00000000000E+00  0.10858140266E+04  0.10858140266E+04  0.25500000000E-02 0.  1.
         -2   -1    0    0    0  501 -0.00000000000E+00 -0.00000000000E+00 -0.19502882394E+03  0.19502882396E+03  0.25500000000E-02 0. -1.
    5000001    1    1    2    0    0  0.12819913830E+03 -0.34208261793E+03  0.13084724001E+03  0.42166519511E+03  0.16500000000E+03 0.  0.
   -5000001    1    1    2    0    0 -0.12819913830E+03  0.34208261793E+03  0.75993796269E+03  0.85917765549E+03  0.16500000000E+03 0.  0.
<mgrwt>
<rscale>  0 0.92035870E+03</rscale>
<asrwt>0</asrwt>
<pdfrwt beam="1">  1        2 0.15511629E+00 0.92035870E+03</pdfrwt>
<pdfrwt beam="2">  1       -2 0.27861261E-01 0.92035870E+03</pdfrwt>
<totfact> 0.29262435E+02</totfact>
</mgrwt>
</event>
<event>
 4    1  0.5531008E-005  0.4212610E+03  0.7818608E-02  0.1036657E+00
          2   -1    0    0  501    0  0.00000000000E+00  0.00000000000E+00  0.97212868190E+02  0.97212868224E+02  0.25500000000E-02 0.  1.
         -2   -1    0    0    0  501 -0.00000000000E+00 -0.00000000000E+00 -0.45637184356E+03  0.45637184357E+03  0.25500000000E-02 0. -1.
    5000001    1    1    2    0    0 -0.15122537667E+02  0.12984455893E+03 -0.18904796824E+03  0.28293539002E+03  0.16500000000E+03 0.  0.
   -5000001    1    1    2    0    0  0.15122537667E+02 -0.12984455893E+03 -0.17011100713E+03  0.27064932177E+03  0.16500000000E+03 0.  0.
<mgrwt>
<rscale>  0 0.42126104E+03</rscale>
<asrwt>0</asrwt>
<pdfrwt beam="1">  1        2 0.13887553E-01 0.42126104E+03</pdfrwt>
<pdfrwt beam="2">  1       -2 0.65195977E-01 0.42126104E+03</pdfrwt>
<totfact> 0.95710949E+02</totfact>
</mgrwt>
</event>
<event>
 4    1  0.5531008E-005  0.4203674E+03  0.7818608E-02  0.1036947E+00
         -2   -1    0    0    0  501 -0.00000000000E+00  0.00000000000E+00  0.68278725118E+03  0.68278725119E+03  0.25500000000E-02 0. -1.
          2   -1    0    0  501    0  0.00000000000E+00 -0.00000000000E+00 -0.64701243242E+02  0.64701243292E+02  0.25500000000E-02 0.  1.
    5000001    1    1    2    0    0 -0.90471161424E+02  0.84158517365E+02  0.38202413944E+03  0.43409115426E+03  0.16500000000E+03 0.  0.
   -5000001    1    1    2    0    0  0.90471161424E+02 -0.84158517365E+02  0.23606186850E+03  0.31339734021E+03  0.16500000000E+03 0.  0.
<mgrwt>
<rscale>  0 0.42036738E+03</rscale>
<asrwt>0</asrwt>
<pdfrwt beam="1">  1        2 0.92430348E-02 0.42036738E+03</pdfrwt>
<pdfrwt beam="2">  1       -2 0.97541036E-01 0.42036738E+03</pdfrwt>
<totfact> 0.64760319E+02</totfact>
</mgrwt>
</event>
<event>
 4    1  0.5531008E-005  0.7656650E+03  0.7818608E-02  0.9611090E-01
         -2   -1    0    0    0  501 -0.00000000000E+00  0.00000000000E+00  0.11224397808E+03  0.11224397811E+03  0.25500000000E-02 0.  1.
          2   -1    0    0  501    0  0.00000000000E+00 -0.00000000000E+00 -0.13057335366E+04  0.13057335366E+04  0.25500000000E-02 0. -1.
    5000001    1    1    2    0    0 -0.26847268678E+03 -0.17151770494E+03 -0.84410267397E+03  0.91718603939E+03  0.16500000000E+03 0.  0.
   -5000001    1    1    2    0    0  0.26847268678E+03  0.17151770494E+03 -0.34938688451E+03  0.50079147529E+03  0.16500000000E+03 0.  0.
<mgrwt>
<rscale>  0 0.76566501E+03</rscale>
<asrwt>0</asrwt>
<pdfrwt beam="1">  1        2 0.18653335E+00 0.76566501E+03</pdfrwt>
<pdfrwt beam="2">  1       -2 0.16034855E-01 0.76566501E+03</pdfrwt>
<totfact> 0.58641610E+02</totfact>
</mgrwt>
</event>
<event>
 4    1  0.5531008E-005  0.1264667E+04  0.7818608E-02  0.9058064E-01
         -2   -1    0    0    0  501 -0.00000000000E+00  0.00000000000E+00  0.45139903552E+03  0.45139903553E+03  0.25500000000E-02 0. -1.
          2   -1    0    0  501    0  0.00000000000E+00 -0.00000000000E+00 -0.88579168614E+03  0.88579168614E+03  0.25500000000E-02 0.  1.
    5000001    1    1    2    0    0  0.30297232854E+03 -0.29391531498E+03 -0.68343936540E+03  0.82005658976E+03  0.16500000000E+03 0.  0.
   -5000001    1    1    2    0    0 -0.30297232854E+03  0.29391531498E+03  0.24904671479E+03  0.51713413191E+03  0.16500000000E+03 0.  0.
<mgrwt>
<rscale>  0 0.12646668E+04</rscale>
<asrwt>0</asrwt>
<pdfrwt beam="1">  1        2 0.12654167E+00 0.12646668E+04</pdfrwt>
<pdfrwt beam="2">  1       -2 0.64485577E-01 0.12646668E+04</pdfrwt>
<totfact> 0.72576626E+01</totfact>
</mgrwt>
</event>
<event>
 4    1  0.5531008E-005  0.8766854E+03  0.7818608E-02  0.9455204E-01
          2   -1    0    0  501    0  0.00000000000E+00  0.00000000000E+00  0.32307393897E+04  0.32307393897E+04  0.25500000000E-02 0.  1.
         -2   -1    0    0    0  501 -0.00000000000E+00 -0.00000000000E+00 -0.59473793625E+02  0.59473793680E+02  0.25500000000E-02 0. -1.
    5000001    1    1    2    0    0 -0.27614685001E+03 -0.22785493218E+03  0.86622409036E+03  0.95170590394E+03  0.16500000000E+03 0.  0.
   -5000001    1    1    2    0    0  0.27614685001E+03  0.22785493218E+03  0.23050415057E+04  0.23385072794E+04  0.16500000000E+03 0.  0.
<mgrwt>
<rscale>  0 0.87668541E+03</rscale>
<asrwt>0</asrwt>
<pdfrwt beam="1">  1        2 0.46153413E+00 0.87668541E+03</pdfrwt>
<pdfrwt beam="2">  1       -2 0.84962575E-02 0.87668541E+03</pdfrwt>
<totfact> 0.16192353E+02</totfact>
</mgrwt>
</event>
<event>
 4    1  0.5531008E-005  0.8812179E+03  0.7818608E-02  0.9449369E-01
         -2   -1    0    0    0  501 -0.00000000000E+00  0.00000000000E+00  0.15857759208E+03  0.15857759210E+03  0.25500000000E-02 0. -1.
          2   -1    0    0  501    0  0.00000000000E+00 -0.00000000000E+00 -0.12242351620E+04  0.12242351620E+04  0.25500000000E-02 0.  1.
    5000001    1    1    2    0    0  0.40230961523E+03  0.63062706926E+02 -0.58442997296E+03  0.73117256842E+03  0.16500000000E+03 0.  0.
   -5000001    1    1    2    0    0 -0.40230961523E+03 -0.63062706926E+02 -0.48122759695E+03  0.65164018567E+03  0.16500000000E+03 0.  0.
<mgrwt>
<rscale>  0 0.88121794E+03</rscale>
<asrwt>0</asrwt>
<pdfrwt beam="1">  1        2 0.17489073E+00 0.88121794E+03</pdfrwt>
<pdfrwt beam="2">  1       -2 0.22653942E-01 0.88121794E+03</pdfrwt>
<totfact> 0.35463447E+02</totfact>
</mgrwt>
</event>
<event>
 4    1  0.5531008E-005  0.6345760E+03  0.7818608E-02  0.9836159E-01
          2   -1    0    0  501    0  0.00000000000E+00  0.00000000000E+00  0.57507859895E+03  0.57507859896E+03  0.25500000000E-02 0.  1.
         -2   -1    0    0    0  501 -0.00000000000E+00 -0.00000000000E+00 -0.17505725570E+03  0.17505725572E+03  0.25500000000E-02 0. -1.
    5000001    1    1    2    0    0 -0.45557024985E+02 -0.22792569059E+03  0.35272824742E+02  0.28721896720E+03  0.16500000000E+03 0.  0.
   -5000001    1    1    2    0    0  0.45557024985E+02  0.22792569059E+03  0.36474851851E+03  0.46291688748E+03  0.16500000000E+03 0.  0.
<mgrwt>
<rscale>  0 0.63457602E+03</rscale>
<asrwt>0</asrwt>
<pdfrwt beam="1">  1        2 0.82154086E-01 0.63457602E+03</pdfrwt>
<pdfrwt beam="2">  1       -2 0.25008179E-01 0.63457602E+03</pdfrwt>
<totfact> 0.81989230E+02</totfact>
</mgrwt>
</event>
<event>
 4    1  0.5531008E-005  0.1105706E+04  0.7818608E-02  0.9199648E-01
         -2   -1    0    0    0  501 -0.00000000000E+00  0.00000000000E+00  0.10035260763E+03  0.10035260766E+03  0.25500000000E-02 0. -1.
          2   -1    0    0  501    0  0.00000000000E+00 -0.00000000000E+00 -0.30457243464E+04  0.30457243464E+04  0.25500000000E-02 0.  1.
    5000001    1    1    2    0    0 -0.88288597613E+02  0.47123086179E+03 -0.20997395657E+04  0.21600890364E+04  0.16500000000E+03 0.  0.
   -5000001    1    1    2    0    0  0.88288597613E+02 -0.47123086179E+03 -0.84563217307E+03  0.98598791763E+03  0.16500000000E+03 0.  0.
<mgrwt>
<rscale>  0 0.11057059E+04</rscale>
<asrwt>0</asrwt>
<pdfrwt beam="1">  1        2 0.43510342E+00 0.11057059E+04</pdfrwt>
<pdfrwt beam="2">  1       -2 0.14336089E-01 0.11057059E+04</pdfrwt>
<totfact> 0.84983815E+01</totfact>
</mgrwt>
</event>
<event>
 4    1  0.5531008E-005  0.4103819E+03  0.7818608E-02  0.1040243E+00
          2   -1    0    0  501    0  0.00000000000E+00  0.00000000000E+00  0.18479149841E+03  0.18479149843E+03  0.25500000000E-02 0.  1.
         -2   -1    0    0    0  501 -0.00000000000E+00 -0.00000000000E+00 -0.22784227986E+03  0.22784227987E+03  0.25500000000E-02 0. -1.
    5000001    1    1    2    0    0 -0.77604909179E+02 -0.90760433356E+02  0.34774662021E+01  0.20370829871E+03  0.16500000000E+03 0.  0.
   -5000001    1    1    2    0    0  0.77604909179E+02  0.90760433356E+02 -0.46528247650E+02  0.20892547959E+03  0.16500000000E+03 0.  0.
<mgrwt>
<rscale>  0 0.41038185E+03</rscale>
<asrwt>0</asrwt>
<pdfrwt beam="1">  1        2 0.26398786E-01 0.41038185E+03</pdfrwt>
<pdfrwt beam="2">  1       -2 0.32548897E-01 0.41038185E+03</pdfrwt>
<totfact> 0.17942332E+03</totfact>
</mgrwt>
</event>
<event>
 4    1  0.5531008E-005  0.6858345E+03  0.7818608E-02  0.9741769E-01
         -2   -1    0    0    0  501 -0.00000000000E+00  0.00000000000E+00  0.74446710055E+02  0.74446710098E+02  0.25500000000E-02 0. -1.
          2   -1    0    0  501    0  0.00000000000E+00 -0.00000000000E+00 -0.15795490957E+04  0.15795490957E+04  0.25500000000E-02 0.  1.
    5000001    1    1    2    0    0 -0.18349109422E+03 -0.15742748651E+03 -0.32171575993E+03  0.43494646263E+03  0.16500000000E+03 0.  0.
   -5000001    1    1    2    0    0  0.18349109422E+03  0.15742748651E+03 -0.11833866257E+04  0.12190493432E+04  0.16500000000E+03 0.  0.
<mgrwt>
<rscale>  0 0.68583448E+03</rscale>
<asrwt>0</asrwt>
<pdfrwt beam="1">  1        2 0.22564985E+00 0.68583448E+03</pdfrwt>
<pdfrwt beam="2">  1       -2 0.10635245E-01 0.68583448E+03</pdfrwt>
<totfact> 0.83485912E+02</totfact>
</mgrwt>
</event>
<event>
 4    1  0.5531008E-005  0.9392856E+03  0.7818608E-02  0.9377763E-01
          2   -1    0    0  501    0  0.00000000000E+00  0.00000000000E+00  0.68658869919E+03  0.68658869919E+03  0.25500000000E-02 0.  1.
         -2   -1    0    0    0  501 -0.00000000000E+00 -0.00000000000E+00 -0.32124668338E+03  0.32124668339E+03  0.25500000000E-02 0. -1.
    5000001    1    1    2    0    0  0.30564119432E+03 -0.64360832556E+02  0.51474164248E+03  0.62429385304E+03  0.16500000000E+03 0.  0.
   -5000001    1    1    2    0    0 -0.30564119432E+03  0.64360832556E+02 -0.14939962668E+03  0.38354152955E+03  0.16500000000E+03 0.  0.
<mgrwt>
<rscale>  0 0.93928556E+03</rscale>
<asrwt>0</asrwt>
<pdfrwt beam="1">  1        2 0.98084098E-01 0.93928556E+03</pdfrwt>
<pdfrwt beam="2">  1       -2 0.45892384E-01 0.93928556E+03</pdfrwt>
<totfact> 0.20765645E+02</totfact>
</mgrwt>
</event>
