<event>
 4    1  0.1195463E-003  0.4307687E+03  0.7818608E-02  0.1033617E+00
          2   -1    0    0  501    0  0.00000000000E+00  0.00000000000E+00  0.14768343244E+03  0.14768343246E+03  0.25500000000E-02 0.  1.
         -2   -1    0    0    0  501 -0.00000000000E+00 -0.00000000000E+00 -0.31412068635E+03  0.31412068636E+03  0.25500000000E-02 0. -1.
    5000001    1    1    2    0    0  0.72135541877E+02 -0.16842707322E+03  0.57690244253E+01  0.19883032223E+03  0.77000000000E+02 0.  0.
   -5000001    1    1    2    0    0 -0.72135541877E+02  0.16842707322E+03 -0.17220627833E+03  0.26297379659E+03  0.77000000000E+02 0.  0.
<mgrwt>
<rscale>  0 0.43076871E+03</rscale>
<asrwt>0</asrwt>
<pdfrwt beam="1">  1        2 0.22720528E-01 0.43076871E+03</pdfrwt>
<pdfrwt beam="2">  1       -2 0.48326259E-01 0.43076871E+03</pdfrwt>
<totfact> 0.99335019E+02</totfact>
</mgrwt>
</event>
<event>
 4    1  0.1195463E-003  0.2239198E+03  0.7818608E-02  0.1130994E+00
          2   -1    0    0  501    0  0.00000000000E+00  0.00000000000E+00  0.24727198478E+04  0.24727198478E+04  0.25500000000E-02 0.  1.
         -2   -1    0    0    0  501 -0.00000000000E+00 -0.00000000000E+00 -0.50693225200E+01  0.50693231613E+01  0.25500000000E-02 0. -1.
    5000001    1    1    2    0    0 -0.40098586847E+02  0.70615814024E+02  0.11962589163E+04  0.12014819535E+04  0.77000000000E+02 0.  0.
   -5000001    1    1    2    0    0  0.40098586847E+02 -0.70615814024E+02  0.12713916090E+04  0.12763072175E+04  0.77000000000E+02 0.  0.
<mgrwt>
<rscale>  0 0.22391976E+03</rscale>
<asrwt>0</asrwt>
<pdfrwt beam="1">  1        2 0.38041840E+00 0.22391976E+03</pdfrwt>
<pdfrwt beam="2">  1       -2 0.77989590E-03 0.22391976E+03</pdfrwt>
<totfact> 0.12654986E+04</totfact>
</mgrwt>
</event>
<event>
 4    1  0.1195463E-003  0.2170314E+03  0.7818608E-02  0.1136116E+00
         -2   -1    0    0    0  501 -0.00000000000E+00  0.00000000000E+00  0.12232185582E+02  0.12232185848E+02  0.25500000000E-02 0. -1.
          2   -1    0    0  501    0  0.00000000000E+00 -0.00000000000E+00 -0.96267810400E+03  0.96267810401E+03  0.25500000000E-02 0.  1.
    5000001    1    1    2    0    0  0.45150204667E+02  0.46666382086E+02 -0.65660092261E+03  0.66428161480E+03  0.77000000000E+02 0.  0.
   -5000001    1    1    2    0    0 -0.45150204667E+02 -0.46666382086E+02 -0.29384499581E+03  0.31062867505E+03  0.77000000000E+02 0.  0.
<mgrwt>
<rscale>  0 0.21703140E+03</rscale>
<asrwt>0</asrwt>
<pdfrwt beam="1">  1        2 0.14810426E+00 0.21703140E+03</pdfrwt>
<pdfrwt beam="2">  1       -2 0.18818755E-02 0.21703140E+03</pdfrwt>
<totfact> 0.23031302E+04</totfact>
</mgrwt>
</event>
<event>
 4    1  0.1195463E-003  0.2209615E+03  0.7818608E-02  0.1133168E+00
          2   -1    0    0  501    0  0.00000000000E+00  0.00000000000E+00  0.30504411575E+02  0.30504411682E+02  0.25500000000E-02 0.  1.
         -2   -1    0    0    0  501 -0.00000000000E+00 -0.00000000000E+00 -0.40013874918E+03  0.40013874919E+03  0.25500000000E-02 0. -1.
    5000001    1    1    2    0    0  0.51499895535E+02  0.57935510005E+02 -0.21673683136E+03  0.24271921355E+03  0.77000000000E+02 0.  0.
   -5000001    1    1    2    0    0 -0.51499895535E+02 -0.57935510005E+02 -0.15289750624E+03  0.18792394732E+03  0.77000000000E+02 0.  0.
<mgrwt>
<rscale>  0 0.22096151E+03</rscale>
<asrwt>0</asrwt>
<pdfrwt beam="1">  1        2 0.46929867E-02 0.22096151E+03</pdfrwt>
<pdfrwt beam="2">  1       -2 0.61559804E-01 0.22096151E+03</pdfrwt>
<totfact> 0.42172750E+03</totfact>
</mgrwt>
</event>
<event>
 4    1  0.1195463E-003  0.3682772E+03  0.7818608E-02  0.1055354E+00
          2   -1    0    0  501    0  0.00000000000E+00  0.00000000000E+00  0.10051338561E+03  0.10051338564E+03  0.25500000000E-02 0.  1.
         -2   -1    0    0    0  501 -0.00000000000E+00 -0.00000000000E+00 -0.33733843228E+03  0.33733843229E+03  0.25500000000E-02 0. -1.
    5000001    1    1    2    0    0  0.10992955798E+03  0.31009636041E+02  0.26868926700E+02  0.14034615943E+03  0.77000000000E+02 0.  0.
   -5000001    1    1    2    0    0 -0.10992955798E+03 -0.31009636041E+02 -0.26369397338E+03  0.29750565850E+03  0.77000000000E+02 0.  0.
<mgrwt>
<rscale>  0 0.36827722E+03</rscale>
<asrwt>0</asrwt>
<pdfrwt beam="1">  1        2 0.15463598E-01 0.36827722E+03</pdfrwt>
<pdfrwt beam="2">  1       -2 0.51898220E-01 0.36827722E+03</pdfrwt>
<totfact> 0.13471099E+03</totfact>
</mgrwt>
</event>
<event>
 4    1  0.1195463E-003  0.2319685E+03  0.7818608E-02  0.1125262E+00
         -2   -1    0    0    0  501 -0.00000000000E+00  0.00000000000E+00  0.21640234175E+02  0.21640234325E+02  0.25500000000E-02 0. -1.
          2   -1    0    0  501    0  0.00000000000E+00 -0.00000000000E+00 -0.62163586759E+03  0.62163586759E+03  0.25500000000E-02 0.  1.
    5000001    1    1    2    0    0 -0.35233432751E+02 -0.24706487568E+01 -0.80310704048E+02  0.11673177834E+03  0.77000000000E+02 0.  0.
   -5000001    1    1    2    0    0  0.35233432751E+02  0.24706487568E+01 -0.51968492936E+03  0.52654432358E+03  0.77000000000E+02 0.  0.
<mgrwt>
<rscale>  0 0.23196850E+03</rscale>
<asrwt>0</asrwt>
<pdfrwt beam="1">  1        2 0.95636274E-01 0.23196850E+03</pdfrwt>
<pdfrwt beam="2">  1       -2 0.33292673E-02 0.23196850E+03</pdfrwt>
<totfact> 0.17262078E+04</totfact>
</mgrwt>
</event>
<event>
 4    1  0.1195463E-003  0.3364306E+03  0.7818608E-02  0.1068326E+00
          2   -1    0    0  501    0  0.00000000000E+00  0.00000000000E+00  0.96135894675E+02  0.96135894709E+02  0.25500000000E-02 0.  1.
         -2   -1    0    0    0  501 -0.00000000000E+00 -0.00000000000E+00 -0.29433738474E+03  0.29433738475E+03  0.25500000000E-02 0. -1.
    5000001    1    1    2    0    0  0.77296809117E+02 -0.11866820438E+03 -0.43312337968E+02  0.16691883672E+03  0.77000000000E+02 0.  0.
   -5000001    1    1    2    0    0 -0.77296809117E+02  0.11866820438E+03 -0.15488915210E+03  0.22355444274E+03  0.77000000000E+02 0.  0.
<mgrwt>
<rscale>  0 0.33643060E+03</rscale>
<asrwt>0</asrwt>
<pdfrwt beam="1">  1        2 0.14790138E-01 0.33643060E+03</pdfrwt>
<pdfrwt beam="2">  1       -2 0.45282674E-01 0.33643060E+03</pdfrwt>
<totfact> 0.18620136E+03</totfact>
</mgrwt>
</event>
<event>
 4    1  0.1195463E-003  0.2077428E+03  0.7818608E-02  0.1143366E+00
          2   -1    0    0  501    0  0.00000000000E+00  0.00000000000E+00  0.18419307086E+04  0.18419307086E+04  0.25500000000E-02 0.  1.
         -2   -1    0    0    0  501 -0.00000000000E+00 -0.00000000000E+00 -0.58575833087E+01  0.58575838638E+01  0.25500000000E-02 0. -1.
    5000001    1    1    2    0    0 -0.29108609698E+02 -0.29791632663E+02  0.14152923667E+04  0.14179972975E+04  0.77000000000E+02 0.  0.
   -5000001    1    1    2    0    0  0.29108609698E+02  0.29791632663E+02  0.42078075858E+03  0.42979099494E+03  0.77000000000E+02 0.  0.
<mgrwt>
<rscale>  0 0.20774276E+03</rscale>
<asrwt>0</asrwt>
<pdfrwt beam="1">  1        2 0.28337434E+00 0.20774276E+03</pdfrwt>
<pdfrwt beam="2">  1       -2 0.90116549E-03 0.20774276E+03</pdfrwt>
<totfact> 0.22059901E+04</totfact>
</mgrwt>
</event>
<event>
 4    1  0.1195463E-003  0.2187745E+03  0.7818608E-02  0.1134800E+00
          2   -1    0    0  501    0  0.00000000000E+00  0.00000000000E+00  0.49832771933E+02  0.49832771998E+02  0.25500000000E-02 0.  1.
         -2   -1    0    0    0  501 -0.00000000000E+00 -0.00000000000E+00 -0.24011440295E+03  0.24011440296E+03  0.25500000000E-02 0. -1.
    5000001    1    1    2    0    0  0.49956200084E+02 -0.39486463535E+02 -0.36141336471E+02  0.10625440664E+03  0.77000000000E+02 0.  0.
   -5000001    1    1    2    0    0 -0.49956200084E+02  0.39486463535E+02 -0.15414029455E+03  0.18369276832E+03  0.77000000000E+02 0.  0.
<mgrwt>
<rscale>  0 0.21877446E+03</rscale>
<asrwt>0</asrwt>
<pdfrwt beam="1">  1        2 0.76665804E-02 0.21877446E+03</pdfrwt>
<pdfrwt beam="2">  1       -2 0.36940677E-01 0.21877446E+03</pdfrwt>
<totfact> 0.61029880E+03</totfact>
</mgrwt>
</event>
<event>
 4    1  0.1195463E-003  0.2004708E+03  0.7818608E-02  0.1149342E+00
         -2   -1    0    0    0  501 -0.00000000000E+00  0.00000000000E+00  0.11668304442E+02  0.11668304720E+02  0.25500000000E-02 0. -1.
          2   -1    0    0  501    0  0.00000000000E+00 -0.00000000000E+00 -0.86106173131E+03  0.86106173132E+03  0.25500000000E-02 0.  1.
    5000001    1    1    2    0    0 -0.30001326003E+01 -0.61874998992E+02 -0.35177048282E+03  0.36538881877E+03  0.77000000000E+02 0.  0.
   -5000001    1    1    2    0    0  0.30001326003E+01  0.61874998992E+02 -0.49762294405E+03  0.50734121727E+03  0.77000000000E+02 0.  0.
<mgrwt>
<rscale>  0 0.20047075E+03</rscale>
<asrwt>0</asrwt>
<pdfrwt beam="1">  1        2 0.13247099E+00 0.20047075E+03</pdfrwt>
<pdfrwt beam="2">  1       -2 0.17951244E-02 0.20047075E+03</pdfrwt>
<totfact> 0.28493923E+04</totfact>
</mgrwt>
</event>
<event>
 4    1  0.1195463E-003  0.2305841E+03  0.7818608E-02  0.1126229E+00
         -2   -1    0    0    0  501 -0.00000000000E+00  0.00000000000E+00  0.14539969572E+02  0.14539969795E+02  0.25500000000E-02 0. -1.
          2   -1    0    0  501    0  0.00000000000E+00 -0.00000000000E+00 -0.91418700614E+03  0.91418700615E+03  0.25500000000E-02 0.  1.
    5000001    1    1    2    0    0  0.35493043794E+02  0.77298712365E+02 -0.49546382136E+03  0.50857471955E+03  0.77000000000E+02 0.  0.
   -5000001    1    1    2    0    0 -0.35493043794E+02 -0.77298712365E+02 -0.40418321521E+03  0.42015225639E+03  0.77000000000E+02 0.  0.
<mgrwt>
<rscale>  0 0.23058405E+03</rscale>
<asrwt>0</asrwt>
<pdfrwt beam="1">  1        2 0.14064411E+00 0.23058405E+03</pdfrwt>
<pdfrwt beam="2">  1       -2 0.22369191E-02 0.23058405E+03</pdfrwt>
<totfact> 0.19237567E+04</totfact>
</mgrwt>
</event>
<event>
 4    1  0.1195463E-003  0.2758177E+03  0.7818608E-02  0.1097995E+00
          2   -1    0    0  501    0  0.00000000000E+00  0.00000000000E+00  0.38567531481E+04  0.38567531481E+04  0.25500000000E-02 0.  1.
         -2   -1    0    0    0  501 -0.00000000000E+00 -0.00000000000E+00 -0.49313107597E+01  0.49313114190E+01  0.25500000000E-02 0. -1.
    5000001    1    1    2    0    0  0.68809266455E+02 -0.44832828324E+00  0.64615789646E+03  0.65435765703E+03  0.77000000000E+02 0.  0.
   -5000001    1    1    2    0    0 -0.68809266455E+02  0.44832828324E+00  0.32056639409E+04  0.32073268025E+04  0.77000000000E+02 0.  0.
<mgrwt>
<rscale>  0 0.27581769E+03</rscale>
<asrwt>0</asrwt>
<pdfrwt beam="1">  1        2 0.59334645E+00 0.27581769E+03</pdfrwt>
<pdfrwt beam="2">  1       -2 0.75866349E-03 0.27581769E+03</pdfrwt>
<totfact> 0.18221886E+03</totfact>
</mgrwt>
</event>
<event>
 4    1  0.1195463E-003  0.1739950E+03  0.7818608E-02  0.1173745E+00
         -2   -1    0    0    0  501 -0.00000000000E+00  0.00000000000E+00  0.57730497131E+01  0.57730502763E+01  0.25500000000E-02 0. -1.
          2   -1    0    0  501    0  0.00000000000E+00 -0.00000000000E+00 -0.13110165464E+04  0.13110165464E+04  0.25500000000E-02 0.  1.
    5000001    1    1    2    0    0 -0.39269173022E+02 -0.65794582486E+01 -0.70834118633E+03  0.71362566761E+03  0.77000000000E+02 0.  0.
   -5000001    1    1    2    0    0  0.39269173022E+02  0.65794582486E+01 -0.59690231040E+03  0.60316392911E+03  0.77000000000E+02 0.  0.
<mgrwt>
<rscale>  0 0.17399499E+03</rscale>
<asrwt>0</asrwt>
<pdfrwt beam="1">  1        2 0.20169462E+00 0.17399499E+03</pdfrwt>
<pdfrwt beam="2">  1       -2 0.88816258E-03 0.17399499E+03</pdfrwt>
<totfact> 0.42433522E+04</totfact>
</mgrwt>
</event>
<event>
 4    1  0.1195463E-003  0.2249045E+03  0.7818608E-02  0.1130278E+00
         -2   -1    0    0    0  501 -0.00000000000E+00  0.00000000000E+00  0.51418945261E+02  0.51418945324E+02  0.25500000000E-02 0. -1.
          2   -1    0    0  501    0  0.00000000000E+00 -0.00000000000E+00 -0.24593096507E+03  0.24593096509E+03  0.25500000000E-02 0.  1.
    5000001    1    1    2    0    0  0.66388738110E+02  0.47719524750E+02 -0.89789476181E+02  0.14379070771E+03  0.77000000000E+02 0.  0.
   -5000001    1    1    2    0    0 -0.66388738110E+02 -0.47719524750E+02 -0.10472254363E+03  0.15355920270E+03  0.77000000000E+02 0.  0.
<mgrwt>
<rscale>  0 0.22490452E+03</rscale>
<asrwt>0</asrwt>
<pdfrwt beam="1">  1        2 0.37835532E-01 0.22490452E+03</pdfrwt>
<pdfrwt beam="2">  1       -2 0.79106071E-02 0.22490452E+03</pdfrwt>
<totfact> 0.12771723E+04</totfact>
</mgrwt>
</event>
<event>
 4    1  0.1195463E-003  0.2329451E+03  0.7818608E-02  0.1124584E+00
         -2   -1    0    0    0  501 -0.00000000000E+00  0.00000000000E+00  0.12356630121E+02  0.12356630384E+02  0.25500000000E-02 0. -1.
          2   -1    0    0  501    0  0.00000000000E+00 -0.00000000000E+00 -0.10978603063E+04  0.10978603063E+04  0.25500000000E-02 0.  1.
    5000001    1    1    2    0    0 -0.67503003564E+02  0.46214004680E+02 -0.68922127975E+03  0.69831752247E+03  0.77000000000E+02 0.  0.
   -5000001    1    1    2    0    0  0.67503003564E+02 -0.46214004680E+02 -0.39628239642E+03  0.41189941422E+03  0.77000000000E+02 0.  0.
<mgrwt>
<rscale>  0 0.23294509E+03</rscale>
<asrwt>0</asrwt>
<pdfrwt beam="1">  1        2 0.16890151E+00 0.23294509E+03</pdfrwt>
<pdfrwt beam="2">  1       -2 0.19010209E-02 0.23294509E+03</pdfrwt>
<totfact> 0.18892594E+04</totfact>
</mgrwt>
</event>
<event>
 4    1  0.1195463E-003  0.2011320E+03  0.7818608E-02  0.1148787E+00
          2   -1    0    0  501    0  0.00000000000E+00  0.00000000000E+00  0.62747940984E+03  0.62747940984E+03  0.25500000000E-02 0.  1.
         -2   -1    0    0    0  501 -0.00000000000E+00 -0.00000000000E+00 -0.16117699506E+02  0.16117699707E+02  0.25500000000E-02 0. -1.
    5000001    1    1    2    0    0 -0.59726094317E+02  0.75337188909E+01  0.38144162983E+03  0.39376475240E+03  0.77000000000E+02 0.  0.
   -5000001    1    1    2    0    0  0.59726094317E+02 -0.75337188909E+01  0.22992008050E+03  0.24983235715E+03  0.77000000000E+02 0.  0.
<mgrwt>
<rscale>  0 0.20113204E+03</rscale>
<asrwt>0</asrwt>
<pdfrwt beam="1">  1        2 0.96535298E-01 0.20113204E+03</pdfrwt>
<pdfrwt beam="2">  1       -2 0.24796460E-02 0.20113204E+03</pdfrwt>
<totfact> 0.26169344E+04</totfact>
</mgrwt>
</event>
<event>
 4    1  0.1195463E-003  0.3978415E+03  0.7818608E-02  0.1044530E+00
         -2   -1    0    0    0  501 -0.00000000000E+00  0.00000000000E+00  0.47034590862E+02  0.47034590931E+02  0.25500000000E-02 0. -1.
          2   -1    0    0  501    0  0.00000000000E+00 -0.00000000000E+00 -0.84128452678E+03  0.84128452678E+03  0.25500000000E-02 0.  1.
    5000001    1    1    2    0    0  0.14781661895E+03  0.10848656408E+03 -0.40745079670E+03  0.45339192666E+03  0.77000000000E+02 0.  0.
   -5000001    1    1    2    0    0 -0.14781661895E+03 -0.10848656408E+03 -0.38679913921E+03  0.43492719105E+03  0.77000000000E+02 0.  0.
<mgrwt>
<rscale>  0 0.39784154E+03</rscale>
<asrwt>0</asrwt>
<pdfrwt beam="1">  1        2 0.12942838E+00 0.39784154E+03</pdfrwt>
<pdfrwt beam="2">  1       -2 0.72360915E-02 0.39784154E+03</pdfrwt>
<totfact> 0.36956614E+03</totfact>
</mgrwt>
</event>
<event>
 4    1  0.1195463E-003  0.4778039E+03  0.7818608E-02  0.1019740E+00
         -2   -1    0    0    0  501 -0.00000000000E+00  0.00000000000E+00  0.74822999203E+02  0.74822999247E+02  0.25500000000E-02 0. -1.
          2   -1    0    0  501    0  0.00000000000E+00 -0.00000000000E+00 -0.76278861565E+03  0.76278861566E+03  0.25500000000E-02 0.  1.
    5000001    1    1    2    0    0 -0.16372067411E+03  0.14291576185E+01 -0.70493026102E+02  0.19417715713E+03  0.77000000000E+02 0.  0.
   -5000001    1    1    2    0    0  0.16372067411E+03 -0.14291576185E+01 -0.61747259035E+03  0.64343445778E+03  0.77000000000E+02 0.  0.
<mgrwt>
<rscale>  0 0.47780386E+03</rscale>
<asrwt>0</asrwt>
<pdfrwt beam="1">  1        2 0.11735209E+00 0.47780386E+03</pdfrwt>
<pdfrwt beam="2">  1       -2 0.11511231E-01 0.47780386E+03</pdfrwt>
<totfact> 0.20004937E+03</totfact>
</mgrwt>
</event>
<event>
 4    1  0.1195463E-003  0.1745046E+03  0.7818608E-02  0.1173230E+00
         -2   -1    0    0    0  501 -0.00000000000E+00  0.00000000000E+00  0.10645833722E+04  0.10645833722E+04  0.25500000000E-02 0. -1.
          2   -1    0    0  501    0  0.00000000000E+00 -0.00000000000E+00 -0.71511183123E+01  0.71511187669E+01  0.25500000000E-02 0.  1.
    5000001    1    1    2    0    0  0.30708683995E+02 -0.17548270651E+02  0.65651373822E+03  0.66195940476E+03  0.77000000000E+02 0.  0.
   -5000001    1    1    2    0    0 -0.30708683995E+02  0.17548270651E+02  0.40091851570E+03  0.40977508624E+03  0.77000000000E+02 0.  0.
<mgrwt>
<rscale>  0 0.17450458E+03</rscale>
<asrwt>0</asrwt>
<pdfrwt beam="1">  1        2 0.11001716E-02 0.17450458E+03</pdfrwt>
<pdfrwt beam="2">  1       -2 0.16378213E+00 0.17450458E+03</pdfrwt>
<totfact> 0.30819544E+03</totfact>
</mgrwt>
</event>
<event>
 4    1  0.1195463E-003  0.1668915E+03  0.7818608E-02  0.1181129E+00
          2   -1    0    0  501    0  0.00000000000E+00  0.00000000000E+00  0.19040732673E+03  0.19040732674E+03  0.25500000000E-02 0.  1.
         -2   -1    0    0    0  501 -0.00000000000E+00 -0.00000000000E+00 -0.36569990449E+02  0.36569990538E+02  0.25500000000E-02 0. -1.
    5000001    1    1    2    0    0 -0.10568244105E+02  0.50031039356E+01  0.36175062125E+02  0.85874058668E+02  0.77000000000E+02 0.  0.
   -5000001    1    1    2    0    0  0.10568244105E+02 -0.50031039356E+01  0.11766227415E+03  0.14110325861E+03  0.77000000000E+02 0.  0.
<mgrwt>
<rscale>  0 0.16689151E+03</rscale>
<asrwt>0</asrwt>
<pdfrwt beam="1">  1        2 0.29293435E-01 0.16689151E+03</pdfrwt>
<pdfrwt beam="2">  1       -2 0.56261523E-02 0.16689151E+03</pdfrwt>
<totfact> 0.27801247E+04</totfact>
</mgrwt>
</event>
<event>
 4    1  0.1195463E-003  0.2161069E+03  0.7818608E-02  0.1136819E+00
          2   -1    0    0  501    0  0.00000000000E+00  0.00000000000E+00  0.66618542441E+03  0.66618542441E+03  0.25500000000E-02 0.  1.
         -2   -1    0    0    0  501 -0.00000000000E+00 -0.00000000000E+00 -0.17525965701E+02  0.17525965887E+02  0.25500000000E-02 0. -1.
    5000001    1    1    2    0    0 -0.73553240209E+02  0.18339664421E+02  0.32542809627E+03  0.34289775192E+03  0.77000000000E+02 0.  0.
   -5000001    1    1    2    0    0  0.73553240209E+02 -0.18339664421E+02  0.32323136244E+03  0.34081363837E+03  0.77000000000E+02 0.  0.
<mgrwt>
<rscale>  0 0.21610685E+03</rscale>
<asrwt>0</asrwt>
<pdfrwt beam="1">  1        2 0.10249006E+00 0.21610685E+03</pdfrwt>
<pdfrwt beam="2">  1       -2 0.26963027E-02 0.21610685E+03</pdfrwt>
<totfact> 0.21661669E+04</totfact>
</mgrwt>
</event>
<event>
 4    1  0.1195463E-003  0.4067453E+03  0.7818608E-02  0.1041469E+00
          2   -1    0    0  501    0  0.00000000000E+00  0.00000000000E+00  0.16469087523E+04  0.16469087523E+04  0.25500000000E-02 0.  1.
         -2   -1    0    0    0  501 -0.00000000000E+00 -0.00000000000E+00 -0.25113983979E+02  0.25113984108E+02  0.25500000000E-02 0. -1.
    5000001    1    1    2    0    0  0.17723490970E+03 -0.27119030065E+02  0.57533444057E+03  0.60752479251E+03  0.77000000000E+02 0.  0.
   -5000001    1    1    2    0    0 -0.17723490970E+03  0.27119030065E+02  0.10464603277E+04  0.10644979439E+04  0.77000000000E+02 0.  0.
<mgrwt>
<rscale>  0 0.40674533E+03</rscale>
<asrwt>0</asrwt>
<pdfrwt beam="1">  1        2 0.25337068E+00 0.40674533E+03</pdfrwt>
<pdfrwt beam="2">  1       -2 0.38636883E-02 0.40674533E+03</pdfrwt>
<totfact> 0.32969808E+03</totfact>
</mgrwt>
</event>
<event>
 4    1  0.1195463E-003  0.1954525E+03  0.7818608E-02  0.1153633E+00
         -2   -1    0    0    0  501 -0.00000000000E+00  0.00000000000E+00  0.50050537636E+02  0.50050537701E+02  0.25500000000E-02 0. -1.
          2   -1    0    0  501    0  0.00000000000E+00 -0.00000000000E+00 -0.19081553328E+03  0.19081553329E+03  0.25500000000E-02 0.  1.
    5000001    1    1    2    0    0  0.21316161766E+02 -0.47477058182E+02 -0.10761847071E+03  0.14219418077E+03  0.77000000000E+02 0.  0.
   -5000001    1    1    2    0    0 -0.21316161766E+02  0.47477058182E+02 -0.33146524930E+02  0.98671890227E+02  0.77000000000E+02 0.  0.
<mgrwt>
<rscale>  0 0.19545250E+03</rscale>
<asrwt>0</asrwt>
<pdfrwt beam="1">  1        2 0.29356236E-01 0.19545250E+03</pdfrwt>
<pdfrwt beam="2">  1       -2 0.77000828E-02 0.19545250E+03</pdfrwt>
<totfact> 0.17374545E+04</totfact>
</mgrwt>
</event>
<event>
 4    1  0.1195463E-003  0.4759724E+03  0.7818608E-02  0.1020248E+00
         -2   -1    0    0    0  501 -0.00000000000E+00  0.00000000000E+00  0.42709035691E+02  0.42709035767E+02  0.25500000000E-02 0. -1.
          2   -1    0    0  501    0  0.00000000000E+00 -0.00000000000E+00 -0.13261229836E+04  0.13261229836E+04  0.25500000000E-02 0.  1.
    5000001    1    1    2    0    0 -0.22520527389E+02 -0.22246976098E+03 -0.56516006936E+03  0.61264579710E+03  0.77000000000E+02 0.  0.
   -5000001    1    1    2    0    0  0.22520527389E+02  0.22246976098E+03 -0.71825387855E+03  0.75618622228E+03  0.77000000000E+02 0.  0.
<mgrwt>
<rscale>  0 0.47597241E+03</rscale>
<asrwt>0</asrwt>
<pdfrwt beam="1">  1        2 0.20401889E+00 0.47597241E+03</pdfrwt>
<pdfrwt beam="2">  1       -2 0.65706219E-02 0.47597241E+03</pdfrwt>
<totfact> 0.21770368E+03</totfact>
</mgrwt>
</event>
<event>
 4    1  0.1195463E-003  0.3753136E+03  0.7818608E-02  0.1052680E+00
         -2   -1    0    0    0  501 -0.00000000000E+00  0.00000000000E+00  0.13727094422E+02  0.13727094659E+02  0.25500000000E-02 0. -1.
          2   -1    0    0  501    0  0.00000000000E+00 -0.00000000000E+00 -0.25653700166E+04  0.25653700166E+04  0.25500000000E-02 0.  1.
    5000001    1    1    2    0    0 -0.77445806418E+02 -0.79792569722E+02 -0.38191693558E+03  0.40515953993E+03  0.77000000000E+02 0.  0.
   -5000001    1    1    2    0    0  0.77445806418E+02  0.79792569722E+02 -0.21697259866E+04  0.21739375714E+04  0.77000000000E+02 0.  0.
<mgrwt>
<rscale>  0 0.37531361E+03</rscale>
<asrwt>0</asrwt>
<pdfrwt beam="1">  1        2 0.39467193E+00 0.37531361E+03</pdfrwt>
<pdfrwt beam="2">  1       -2 0.21118627E-02 0.37531361E+03</pdfrwt>
<totfact> 0.26127796E+03</totfact>
</mgrwt>
</event>
<event>
 4    1  0.1195463E-003  0.2492723E+03  0.7818608E-02  0.1113766E+00
          2   -1    0    0  501    0  0.00000000000E+00  0.00000000000E+00  0.26626992239E+03  0.26626992241E+03  0.25500000000E-02 0.  1.
         -2   -1    0    0    0  501 -0.00000000000E+00 -0.00000000000E+00 -0.58339928674E+02  0.58339928729E+02  0.25500000000E-02 0. -1.
    5000001    1    1    2    0    0 -0.54686553767E+02 -0.81079849738E+02  0.95666705917E+02  0.15698942581E+03  0.77000000000E+02 0.  0.
   -5000001    1    1    2    0    0  0.54686553767E+02  0.81079849738E+02  0.11226328780E+03  0.16762042532E+03  0.77000000000E+02 0.  0.
<mgrwt>
<rscale>  0 0.24927229E+03</rscale>
<asrwt>0</asrwt>
<pdfrwt beam="1">  1        2 0.40964603E-01 0.24927229E+03</pdfrwt>
<pdfrwt beam="2">  1       -2 0.89753737E-02 0.24927229E+03</pdfrwt>
<totfact> 0.96754101E+03</totfact>
</mgrwt>
</event>
<event>
 4    1  0.1195463E-003  0.5457273E+03  0.7818608E-02  0.1002488E+00
         -2   -1    0    0    0  501 -0.00000000000E+00  0.00000000000E+00  0.52711821347E+03  0.52711821347E+03  0.25500000000E-02 0. -1.
          2   -1    0    0  501    0  0.00000000000E+00 -0.00000000000E+00 -0.14124835845E+03  0.14124835847E+03  0.25500000000E-02 0.  1.
    5000001    1    1    2    0    0 -0.25686870336E+03 -0.50349766423E+02  0.18927043175E+03  0.33206765286E+03  0.77000000000E+02 0.  0.
   -5000001    1    1    2    0    0  0.25686870336E+03  0.50349766423E+02  0.19659942327E+03  0.33629891908E+03  0.77000000000E+02 0.  0.
<mgrwt>
<rscale>  0 0.54572734E+03</rscale>
<asrwt>0</asrwt>
<pdfrwt beam="1">  1        2 0.21730517E-01 0.54572734E+03</pdfrwt>
<pdfrwt beam="2">  1       -2 0.81095108E-01 0.54572734E+03</pdfrwt>
<totfact> 0.34930706E+02</totfact>
</mgrwt>
</event>
<event>
 4    1  0.1195463E-003  0.2946432E+03  0.7818608E-02  0.1087949E+00
         -2   -1    0    0    0  501 -0.00000000000E+00  0.00000000000E+00  0.25047373131E+02  0.25047373261E+02  0.25500000000E-02 0. -1.
          2   -1    0    0  501    0  0.00000000000E+00 -0.00000000000E+00 -0.86650444579E+03  0.86650444579E+03  0.25500000000E-02 0.  1.
    5000001    1    1    2    0    0 -0.14503101779E+02  0.11453131043E+03 -0.27105047701E+03  0.30450800008E+03  0.77000000000E+02 0.  0.
   -5000001    1    1    2    0    0  0.14503101779E+02 -0.11453131043E+03 -0.57040659565E+03  0.58704381897E+03  0.77000000000E+02 0.  0.
<mgrwt>
<rscale>  0 0.29464324E+03</rscale>
<asrwt>0</asrwt>
<pdfrwt beam="1">  1        2 0.13330835E+00 0.29464324E+03</pdfrwt>
<pdfrwt beam="2">  1       -2 0.38534427E-02 0.29464324E+03</pdfrwt>
<totfact> 0.92929859E+03</totfact>
</mgrwt>
</event>
<event>
 4    1  0.1195463E-003  0.3755000E+03  0.7818608E-02  0.1052610E+00
          2   -1    0    0  501    0  0.00000000000E+00  0.00000000000E+00  0.16020919503E+03  0.16020919505E+03  0.25500000000E-02 0.  1.
         -2   -1    0    0    0  501 -0.00000000000E+00 -0.00000000000E+00 -0.22002526979E+03  0.22002526980E+03  0.25500000000E-02 0. -1.
    5000001    1    1    2    0    0  0.89993954645E+02  0.14188250417E+03  0.35465931824E+01  0.18485436210E+03  0.77000000000E+02 0.  0.
   -5000001    1    1    2    0    0 -0.89993954645E+02 -0.14188250417E+03 -0.63362667941E+02  0.19538010275E+03  0.77000000000E+02 0.  0.
<mgrwt>
<rscale>  0 0.37550005E+03</rscale>
<asrwt>0</asrwt>
<pdfrwt beam="1">  1        2 0.24647569E-01 0.37550005E+03</pdfrwt>
<pdfrwt beam="2">  1       -2 0.33850041E-01 0.37550005E+03</pdfrwt>
<totfact> 0.17987567E+03</totfact>
</mgrwt>
</event>
<event>
 4    1  0.1195463E-003  0.2119701E+03  0.7818608E-02  0.1140015E+00
         -2   -1    0    0    0  501 -0.00000000000E+00  0.00000000000E+00  0.81133530371E+01  0.81133534379E+01  0.25500000000E-02 0. -1.
          2   -1    0    0  501    0  0.00000000000E+00 -0.00000000000E+00 -0.13844874219E+04  0.13844874219E+04  0.25500000000E-02 0.  1.
    5000001    1    1    2    0    0 -0.29524420512E+02  0.42468829431E+02 -0.35135805472E+03  0.36339616879E+03  0.77000000000E+02 0.  0.
   -5000001    1    1    2    0    0  0.29524420512E+02 -0.42468829431E+02 -0.10250160141E+04  0.10292046065E+04  0.77000000000E+02 0.  0.
<mgrwt>
<rscale>  0 0.21197014E+03</rscale>
<asrwt>0</asrwt>
<pdfrwt beam="1">  1        2 0.21299788E+00 0.21197014E+03</pdfrwt>
<pdfrwt beam="2">  1       -2 0.12482093E-02 0.21197014E+03</pdfrwt>
<totfact> 0.23996655E+04</totfact>
</mgrwt>
</event>
<event>
 4    1  0.1195463E-003  0.3805314E+03  0.7818608E-02  0.1050738E+00
          2   -1    0    0  501    0  0.00000000000E+00  0.00000000000E+00  0.60541710371E+03  0.60541710372E+03  0.25500000000E-02 0.  1.
         -2   -1    0    0    0  501 -0.00000000000E+00 -0.00000000000E+00 -0.59795202702E+02  0.59795202756E+02  0.25500000000E-02 0. -1.
    5000001    1    1    2    0    0  0.10894762699E+02  0.16279429928E+03  0.16717858244E+03  0.24596413999E+03  0.77000000000E+02 0.  0.
   -5000001    1    1    2    0    0 -0.10894762699E+02 -0.16279429928E+03  0.37844331856E+03  0.41924816648E+03  0.77000000000E+02 0.  0.
<mgrwt>
<rscale>  0 0.38053141E+03</rscale>
<asrwt>0</asrwt>
<pdfrwt beam="1">  1        2 0.93141090E-01 0.38053141E+03</pdfrwt>
<pdfrwt beam="2">  1       -2 0.91992622E-02 0.38053141E+03</pdfrwt>
<totfact> 0.38051500E+03</totfact>
</mgrwt>
</event>
<event>
 4    1  0.1195463E-003  0.2494568E+03  0.7818608E-02  0.1113649E+00
          2   -1    0    0  501    0  0.00000000000E+00  0.00000000000E+00  0.88923853611E+03  0.88923853611E+03  0.25500000000E-02 0.  1.
         -2   -1    0    0    0  501 -0.00000000000E+00 -0.00000000000E+00 -0.17494939192E+02  0.17494939378E+02  0.25500000000E-02 0. -1.
    5000001    1    1    2    0    0 -0.83879693007E+02  0.17511139799E+02  0.60965063409E+03  0.62043963330E+03  0.77000000000E+02 0.  0.
   -5000001    1    1    2    0    0  0.83879693007E+02 -0.17511139799E+02  0.26209296282E+03  0.28629384219E+03  0.77000000000E+02 0.  0.
<mgrwt>
<rscale>  0 0.24945680E+03</rscale>
<asrwt>0</asrwt>
<pdfrwt beam="1">  1        2 0.13680595E+00 0.24945680E+03</pdfrwt>
<pdfrwt beam="2">  1       -2 0.26915288E-02 0.24945680E+03</pdfrwt>
<totfact> 0.15249209E+04</totfact>
</mgrwt>
</event>
<event>
 4    1  0.1195463E-003  0.1928213E+03  0.7818608E-02  0.1155941E+00
         -2   -1    0    0    0  501 -0.00000000000E+00  0.00000000000E+00  0.23805368296E+02  0.23805368432E+02  0.25500000000E-02 0. -1.
          2   -1    0    0  501    0  0.00000000000E+00 -0.00000000000E+00 -0.39045887712E+03  0.39045887712E+03  0.25500000000E-02 0.  1.
    5000001    1    1    2    0    0  0.42730319803E+02 -0.24818332260E+02 -0.11801333656E+03  0.14932507309E+03  0.77000000000E+02 0.  0.
   -5000001    1    1    2    0    0 -0.42730319803E+02  0.24818332260E+02 -0.24864017226E+03  0.26493917247E+03  0.77000000000E+02 0.  0.
<mgrwt>
<rscale>  0 0.19282134E+03</rscale>
<asrwt>0</asrwt>
<pdfrwt beam="1">  1        2 0.60070592E-01 0.19282134E+03</pdfrwt>
<pdfrwt beam="2">  1       -2 0.36623646E-02 0.19282134E+03</pdfrwt>
<totfact> 0.24821222E+04</totfact>
</mgrwt>
</event>
<event>
 4    1  0.1195463E-003  0.4121799E+03  0.7818608E-02  0.1039642E+00
          2   -1    0    0  501    0  0.00000000000E+00  0.00000000000E+00  0.27563659579E+03  0.27563659580E+03  0.25500000000E-02 0.  1.
         -2   -1    0    0    0  501 -0.00000000000E+00 -0.00000000000E+00 -0.15409084008E+03  0.15409084010E+03  0.25500000000E-02 0. -1.
    5000001    1    1    2    0    0  0.10993756212E+03 -0.80811680048E+02 -0.78820054337E+02  0.17538071776E+03  0.77000000000E+02 0.  0.
   -5000001    1    1    2    0    0 -0.10993756212E+03  0.80811680048E+02  0.20036581005E+03  0.25434671815E+03  0.77000000000E+02 0.  0.
<mgrwt>
<rscale>  0 0.41217993E+03</rscale>
<asrwt>0</asrwt>
<pdfrwt beam="1">  1        2 0.42405630E-01 0.41217993E+03</pdfrwt>
<pdfrwt beam="2">  1       -2 0.23706283E-01 0.41217993E+03</pdfrwt>
<totfact> 0.18857528E+03</totfact>
</mgrwt>
</event>
<event>
 4    1  0.1195463E-003  0.2767677E+03  0.7818608E-02  0.1097468E+00
          2   -1    0    0  501    0  0.00000000000E+00  0.00000000000E+00  0.12023360160E+04  0.12023360160E+04  0.25500000000E-02 0.  1.
         -2   -1    0    0    0  501 -0.00000000000E+00 -0.00000000000E+00 -0.15927405758E+02  0.15927405962E+02  0.25500000000E-02 0. -1.
    5000001    1    1    2    0    0 -0.43563395638E+02  0.50549004479E+02  0.10053768500E+04  0.10105268833E+04  0.77000000000E+02 0.  0.
   -5000001    1    1    2    0    0  0.43563395638E+02 -0.50549004479E+02  0.18103176024E+03  0.20773653870E+03  0.77000000000E+02 0.  0.
<mgrwt>
<rscale>  0 0.27676773E+03</rscale>
<asrwt>0</asrwt>
<pdfrwt beam="1">  1        2 0.18497478E+00 0.27676773E+03</pdfrwt>
<pdfrwt beam="2">  1       -2 0.24503700E-02 0.27676773E+03</pdfrwt>
<totfact> 0.11392208E+04</totfact>
</mgrwt>
</event>
<event>
 4    1  0.1195463E-003  0.4309247E+03  0.7818608E-02  0.1033568E+00
          2   -1    0    0  501    0  0.00000000000E+00  0.00000000000E+00  0.14088614039E+03  0.14088614041E+03  0.25500000000E-02 0.  1.
         -2   -1    0    0    0  501 -0.00000000000E+00 -0.00000000000E+00 -0.32951453758E+03  0.32951453759E+03  0.25500000000E-02 0. -1.
    5000001    1    1    2    0    0 -0.93762816615E+02 -0.29793812845E+01  0.10002471225E+03  0.15727137550E+03  0.77000000000E+02 0.  0.
   -5000001    1    1    2    0    0  0.93762816615E+02  0.29793812845E+01 -0.28865310944E+03  0.31312930249E+03  0.77000000000E+02 0.  0.
<mgrwt>
<rscale>  0 0.43092473E+03</rscale>
<asrwt>0</asrwt>
<pdfrwt beam="1">  1        2 0.21674791E-01 0.43092473E+03</pdfrwt>
<pdfrwt beam="2">  1       -2 0.50694544E-01 0.43092473E+03</pdfrwt>
<totfact> 0.95241418E+02</totfact>
</mgrwt>
</event>
<event>
 4    1  0.1195463E-003  0.2521106E+03  0.7818608E-02  0.1111978E+00
         -2   -1    0    0    0  501 -0.00000000000E+00  0.00000000000E+00  0.22123709187E+02  0.22123709334E+02  0.25500000000E-02 0. -1.
          2   -1    0    0  501    0  0.00000000000E+00 -0.00000000000E+00 -0.71823116855E+03  0.71823116855E+03  0.25500000000E-02 0.  1.
    5000001    1    1    2    0    0  0.12875969868E+02 -0.94864843320E+02 -0.26521124292E+03  0.29228604563E+03  0.77000000000E+02 0.  0.
   -5000001    1    1    2    0    0 -0.12875969868E+02  0.94864843320E+02 -0.43089621644E+03  0.44806883225E+03  0.77000000000E+02 0.  0.
<mgrwt>
<rscale>  0 0.25211059E+03</rscale>
<asrwt>0</asrwt>
<pdfrwt beam="1">  1        2 0.11049709E+00 0.25211059E+03</pdfrwt>
<pdfrwt beam="2">  1       -2 0.34036481E-02 0.25211059E+03</pdfrwt>
<totfact> 0.14117909E+04</totfact>
</mgrwt>
</event>
<event>
 4    1  0.1195463E-003  0.2243473E+03  0.7818608E-02  0.1130683E+00
         -2   -1    0    0    0  501 -0.00000000000E+00  0.00000000000E+00  0.54264766493E+02  0.54264766553E+02  0.25500000000E-02 0. -1.
          2   -1    0    0  501    0  0.00000000000E+00 -0.00000000000E+00 -0.23188028775E+03  0.23188028777E+03  0.25500000000E-02 0.  1.
    5000001    1    1    2    0    0  0.53500393034E-01  0.75525998463E+02 -0.49500742399E+02  0.11867393481E+03  0.77000000000E+02 0.  0.
   -5000001    1    1    2    0    0 -0.53500393034E-01 -0.75525998463E+02 -0.12811477886E+03  0.16747111951E+03  0.77000000000E+02 0.  0.
<mgrwt>
<rscale>  0 0.22434732E+03</rscale>
<asrwt>0</asrwt>
<pdfrwt beam="1">  1        2 0.35673890E-01 0.22434732E+03</pdfrwt>
<pdfrwt beam="2">  1       -2 0.83484258E-02 0.22434732E+03</pdfrwt>
<totfact> 0.12510717E+04</totfact>
</mgrwt>
</event>
<event>
 4    1  0.1195463E-003  0.2321132E+03  0.7818608E-02  0.1125161E+00
          2   -1    0    0  501    0  0.00000000000E+00  0.00000000000E+00  0.27162121259E+03  0.27162121260E+03  0.25500000000E-02 0.  1.
         -2   -1    0    0    0  501 -0.00000000000E+00 -0.00000000000E+00 -0.49587929618E+02  0.49587929683E+02  0.25500000000E-02 0. -1.
    5000001    1    1    2    0    0 -0.73506638022E+02  0.13499221553E+02  0.49834345615E+02  0.11831279229E+03  0.77000000000E+02 0.  0.
   -5000001    1    1    2    0    0  0.73506638022E+02 -0.13499221553E+02  0.17219893736E+03  0.20289635000E+03  0.77000000000E+02 0.  0.
<mgrwt>
<rscale>  0 0.23211319E+03</rscale>
<asrwt>0</asrwt>
<pdfrwt beam="1">  1        2 0.41787880E-01 0.23211319E+03</pdfrwt>
<pdfrwt beam="2">  1       -2 0.76289121E-02 0.23211319E+03</pdfrwt>
<totfact> 0.12166019E+04</totfact>
</mgrwt>
</event>
<event>
 4    1  0.1195463E-003  0.2101004E+03  0.7818608E-02  0.1141487E+00
         -2   -1    0    0    0  501 -0.00000000000E+00  0.00000000000E+00  0.43774576307E+02  0.43774576381E+02  0.25500000000E-02 0. -1.
          2   -1    0    0  501    0  0.00000000000E+00 -0.00000000000E+00 -0.25209934374E+03  0.25209934376E+03  0.25500000000E-02 0.  1.
    5000001    1    1    2    0    0 -0.21026016397E+02 -0.33421582938E+01 -0.80986674053E+01  0.80298516806E+02  0.77000000000E+02 0.  0.
   -5000001    1    1    2    0    0  0.21026016397E+02  0.33421582938E+01 -0.20022610003E+03  0.21557540333E+03  0.77000000000E+02 0.  0.
<mgrwt>
<rscale>  0 0.21010038E+03</rscale>
<asrwt>0</asrwt>
<pdfrwt beam="1">  1        2 0.38784514E-01 0.21010038E+03</pdfrwt>
<pdfrwt beam="2">  1       -2 0.67345504E-02 0.21010038E+03</pdfrwt>
<totfact> 0.15883553E+04</totfact>
</mgrwt>
</event>
<event>
 4    1  0.1195463E-003  0.5224518E+03  0.7818608E-02  0.1008079E+00
          2   -1    0    0  501    0  0.00000000000E+00  0.00000000000E+00  0.67120226712E+02  0.67120226761E+02  0.25500000000E-02 0.  1.
         -2   -1    0    0    0  501 -0.00000000000E+00 -0.00000000000E+00 -0.10166676601E+04  0.10166676601E+04  0.25500000000E-02 0. -1.
    5000001    1    1    2    0    0  0.22137516993E+03 -0.11347954477E+03 -0.51755878150E+03  0.57937955198E+03  0.77000000000E+02 0.  0.
   -5000001    1    1    2    0    0 -0.22137516993E+03  0.11347954477E+03 -0.43198865189E+03  0.50440833489E+03  0.77000000000E+02 0.  0.
<mgrwt>
<rscale>  0 0.52245177E+03</rscale>
<asrwt>0</asrwt>
<pdfrwt beam="1">  1        2 0.10326189E-01 0.52245177E+03</pdfrwt>
<pdfrwt beam="2">  1       -2 0.15641040E+00 0.52245177E+03</pdfrwt>
<totfact> 0.17415015E+02</totfact>
</mgrwt>
</event>
<event>
 4    1  0.1195463E-003  0.2406761E+03  0.7818608E-02  0.1119343E+00
         -2   -1    0    0    0  501 -0.00000000000E+00  0.00000000000E+00  0.15743899172E+02  0.15743899379E+02  0.25500000000E-02 0. -1.
          2   -1    0    0  501    0  0.00000000000E+00 -0.00000000000E+00 -0.91980069208E+03  0.91980069208E+03  0.25500000000E-02 0.  1.
    5000001    1    1    2    0    0 -0.27676760533E+01  0.52105665766E+02 -0.15523758683E+03  0.18097062966E+03  0.77000000000E+02 0.  0.
   -5000001    1    1    2    0    0  0.27676760533E+01 -0.52105665766E+02 -0.74881920608E+03  0.75457396180E+03  0.77000000000E+02 0.  0.
<mgrwt>
<rscale>  0 0.24067613E+03</rscale>
<asrwt>0</asrwt>
<pdfrwt beam="1">  1        2 0.14150776E+00 0.24067613E+03</pdfrwt>
<pdfrwt beam="2">  1       -2 0.24221391E-02 0.24067613E+03</pdfrwt>
<totfact> 0.17006140E+04</totfact>
</mgrwt>
</event>
<event>
 4    1  0.1195463E-003  0.2213427E+03  0.7818608E-02  0.1132886E+00
         -2   -1    0    0    0  501 -0.00000000000E+00  0.00000000000E+00  0.17216048758E+02  0.17216048947E+02  0.25500000000E-02 0. -1.
          2   -1    0    0  501    0  0.00000000000E+00 -0.00000000000E+00 -0.71143797067E+03  0.71143797067E+03  0.25500000000E-02 0.  1.
    5000001    1    1    2    0    0  0.54025560700E+02  0.37395009990E+02 -0.49440611363E+03  0.50466182060E+03  0.77000000000E+02 0.  0.
   -5000001    1    1    2    0    0 -0.54025560700E+02 -0.37395009990E+02 -0.19981580829E+03  0.22399219902E+03  0.77000000000E+02 0.  0.
<mgrwt>
<rscale>  0 0.22134273E+03</rscale>
<asrwt>0</asrwt>
<pdfrwt beam="1">  1        2 0.10945197E+00 0.22134273E+03</pdfrwt>
<pdfrwt beam="2">  1       -2 0.26486234E-02 0.22134273E+03</pdfrwt>
<totfact> 0.20584443E+04</totfact>
</mgrwt>
</event>
<event>
 4    1  0.1195463E-003  0.2366398E+03  0.7818608E-02  0.1122052E+00
         -2   -1    0    0    0  501 -0.00000000000E+00  0.00000000000E+00  0.10471316345E+02  0.10471316655E+02  0.25500000000E-02 0. -1.
          2   -1    0    0  501    0  0.00000000000E+00 -0.00000000000E+00 -0.13369468939E+04  0.13369468939E+04  0.25500000000E-02 0.  1.
    5000001    1    1    2    0    0 -0.27323161436E+02 -0.82838553454E+02 -0.78560012634E+03  0.79416959120E+03  0.77000000000E+02 0.  0.
   -5000001    1    1    2    0    0  0.27323161436E+02  0.82838553454E+02 -0.54087545124E+03  0.55324861937E+03  0.77000000000E+02 0.  0.
<mgrwt>
<rscale>  0 0.23663976E+03</rscale>
<asrwt>0</asrwt>
<pdfrwt beam="1">  1        2 0.20568400E+00 0.23663976E+03</pdfrwt>
<pdfrwt beam="2">  1       -2 0.16109728E-02 0.23663976E+03</pdfrwt>
<totfact> 0.17660144E+04</totfact>
</mgrwt>
</event>
<event>
 4    1  0.1195463E-003  0.3000437E+03  0.7818608E-02  0.1085219E+00
         -2   -1    0    0    0  501 -0.00000000000E+00  0.00000000000E+00  0.13406610013E+02  0.13406610255E+02  0.25500000000E-02 0. -1.
          2   -1    0    0  501    0  0.00000000000E+00 -0.00000000000E+00 -0.16787658053E+04  0.16787658053E+04  0.25500000000E-02 0.  1.
    5000001    1    1    2    0    0 -0.97679390615E+02 -0.81502171251E+02 -0.94458164379E+03  0.95621511652E+03  0.77000000000E+02 0.  0.
   -5000001    1    1    2    0    0  0.97679390615E+02  0.81502171251E+02 -0.72077755151E+03  0.73595729905E+03  0.77000000000E+02 0.  0.
<mgrwt>
<rscale>  0 0.30004372E+03</rscale>
<asrwt>0</asrwt>
<pdfrwt beam="1">  1        2 0.25827150E+00 0.30004372E+03</pdfrwt>
<pdfrwt beam="2">  1       -2 0.20625567E-02 0.30004372E+03</pdfrwt>
<totfact> 0.81095857E+03</totfact>
</mgrwt>
</event>
<event>
 4    1  0.1195463E-003  0.1913804E+03  0.7818608E-02  0.1157222E+00
         -2   -1    0    0    0  501 -0.00000000000E+00  0.00000000000E+00  0.39931632272E+01  0.39931640414E+01  0.25500000000E-02 0. -1.
          2   -1    0    0  501    0  0.00000000000E+00 -0.00000000000E+00 -0.22930727104E+04  0.22930727104E+04  0.25500000000E-02 0.  1.
    5000001    1    1    2    0    0  0.20675938074E+02 -0.52655722083E+02 -0.12074764009E+04  0.12112507495E+04  0.77000000000E+02 0.  0.
   -5000001    1    1    2    0    0 -0.20675938074E+02  0.52655722083E+02 -0.10816031463E+04  0.10858151249E+04  0.77000000000E+02 0.  0.
<mgrwt>
<rscale>  0 0.19138040E+03</rscale>
<asrwt>0</asrwt>
<pdfrwt beam="1">  1        2 0.35277937E+00 0.19138040E+03</pdfrwt>
<pdfrwt beam="2">  1       -2 0.61433470E-03 0.19138040E+03</pdfrwt>
<totfact> 0.22156154E+04</totfact>
</mgrwt>
</event>
<event>
 4    1  0.1195463E-003  0.4105143E+03  0.7818608E-02  0.1040199E+00
         -2   -1    0    0    0  501 -0.00000000000E+00  0.00000000000E+00  0.12054274714E+02  0.12054274984E+02  0.25500000000E-02 0. -1.
          2   -1    0    0  501    0  0.00000000000E+00 -0.00000000000E+00 -0.34950670442E+04  0.34950670442E+04  0.25500000000E-02 0.  1.
    5000001    1    1    2    0    0  0.40811320821E+02 -0.17639911897E+03 -0.12419434737E+04  0.12574318291E+04  0.77000000000E+02 0.  0.
   -5000001    1    1    2    0    0 -0.40811320821E+02  0.17639911897E+03 -0.22410692959E+04  0.22496894901E+04  0.77000000000E+02 0.  0.
<mgrwt>
<rscale>  0 0.41051431E+03</rscale>
<asrwt>0</asrwt>
<pdfrwt beam="1">  1        2 0.53770181E+00 0.41051431E+03</pdfrwt>
<pdfrwt beam="2">  1       -2 0.18545066E-02 0.41051431E+03</pdfrwt>
<totfact> 0.86081411E+02</totfact>
</mgrwt>
</event>
<event>
 4    1  0.1195463E-003  0.1806598E+03  0.7818608E-02  0.1167166E+00
          2   -1    0    0  501    0  0.00000000000E+00  0.00000000000E+00  0.15120165317E+04  0.15120165317E+04  0.25500000000E-02 0.  1.
         -2   -1    0    0    0  501 -0.00000000000E+00 -0.00000000000E+00 -0.53964316640E+01  0.53964322665E+01  0.25500000000E-02 0. -1.
    5000001    1    1    2    0    0 -0.25896208325E+02  0.29160138016E+02  0.97704761356E+03  0.98085267315E+03  0.77000000000E+02 0.  0.
   -5000001    1    1    2    0    0  0.25896208325E+02 -0.29160138016E+02  0.52957248645E+03  0.53656029079E+03  0.77000000000E+02 0.  0.
<mgrwt>
<rscale>  0 0.18065984E+03</rscale>
<asrwt>0</asrwt>
<pdfrwt beam="1">  1        2 0.23261791E+00 0.18065984E+03</pdfrwt>
<pdfrwt beam="2">  1       -2 0.83022036E-03 0.18065984E+03</pdfrwt>
<totfact> 0.36608511E+04</totfact>
</mgrwt>
</event>
<event>
 4    1  0.1195463E-003  0.3946709E+03  0.7818608E-02  0.1045641E+00
          2   -1    0    0  501    0  0.00000000000E+00  0.00000000000E+00  0.93170047782E+03  0.93170047782E+03  0.25500000000E-02 0.  1.
         -2   -1    0    0    0  501 -0.00000000000E+00 -0.00000000000E+00 -0.41795929861E+02  0.41795929939E+02  0.25500000000E-02 0. -1.
    5000001    1    1    2    0    0  0.35946135484E+02  0.97328062541E+02  0.77044515942E+02  0.15043182460E+03  0.77000000000E+02 0.  0.
   -5000001    1    1    2    0    0 -0.35946135484E+02 -0.97328062541E+02  0.81286003201E+03  0.82306458316E+03  0.77000000000E+02 0.  0.
<mgrwt>
<rscale>  0 0.39467094E+03</rscale>
<asrwt>0</asrwt>
<pdfrwt beam="1">  1        2 0.14333853E+00 0.39467094E+03</pdfrwt>
<pdfrwt beam="2">  1       -2 0.64301432E-02 0.39467094E+03</pdfrwt>
<totfact> 0.38715763E+03</totfact>
</mgrwt>
</event>
<event>
 4    1  0.1195463E-003  0.2741584E+03  0.7818608E-02  0.1098923E+00
          2   -1    0    0  501    0  0.00000000000E+00  0.00000000000E+00  0.61829795946E+03  0.61829795946E+03  0.25500000000E-02 0.  1.
         -2   -1    0    0    0  501 -0.00000000000E+00 -0.00000000000E+00 -0.30391025374E+02  0.30391025481E+02  0.25500000000E-02 0. -1.
    5000001    1    1    2    0    0 -0.67918771707E+01  0.11261557848E+03  0.26663427989E+03  0.29958510865E+03  0.77000000000E+02 0.  0.
   -5000001    1    1    2    0    0  0.67918771707E+01 -0.11261557848E+03  0.32127265420E+03  0.34910387630E+03  0.77000000000E+02 0.  0.
<mgrwt>
<rscale>  0 0.27415841E+03</rscale>
<asrwt>0</asrwt>
<pdfrwt beam="1">  1        2 0.95122751E-01 0.27415841E+03</pdfrwt>
<pdfrwt beam="2">  1       -2 0.46755429E-02 0.27415841E+03</pdfrwt>
<totfact> 0.10512730E+04</totfact>
</mgrwt>
</event>
<event>
 4    1  0.1195463E-003  0.3402730E+03  0.7818608E-02  0.1066680E+00
         -2   -1    0    0    0  501 -0.00000000000E+00  0.00000000000E+00  0.25782250074E+02  0.25782250200E+02  0.25500000000E-02 0. -1.
          2   -1    0    0  501    0  0.00000000000E+00 -0.00000000000E+00 -0.11227267979E+04  0.11227267979E+04  0.25500000000E-02 0.  1.
    5000001    1    1    2    0    0  0.13133139158E+03 -0.71564863813E+02 -0.46255495155E+03  0.49219462345E+03  0.77000000000E+02 0.  0.
   -5000001    1    1    2    0    0 -0.13133139158E+03  0.71564863813E+02 -0.63438959626E+03  0.65631442464E+03  0.77000000000E+02 0.  0.
<mgrwt>
<rscale>  0 0.34027297E+03</rscale>
<asrwt>0</asrwt>
<pdfrwt beam="1">  1        2 0.17272716E+00 0.34027297E+03</pdfrwt>
<pdfrwt beam="2">  1       -2 0.39665009E-02 0.34027297E+03</pdfrwt>
<totfact> 0.61890226E+03</totfact>
</mgrwt>
</event>
<event>
 4    1  0.1195463E-003  0.1932312E+03  0.7818608E-02  0.1155579E+00
          2   -1    0    0  501    0  0.00000000000E+00  0.00000000000E+00  0.45600437924E+02  0.45600437995E+02  0.25500000000E-02 0.  1.
         -2   -1    0    0    0  501 -0.00000000000E+00 -0.00000000000E+00 -0.20470362907E+03  0.20470362908E+03  0.25500000000E-02 0. -1.
    5000001    1    1    2    0    0 -0.29919787952E+02  0.49920246271E+02 -0.85100585015E+02  0.12867919128E+03  0.77000000000E+02 0.  0.
   -5000001    1    1    2    0    0  0.29919787952E+02 -0.49920246271E+02 -0.74002606127E+02  0.12162487580E+03  0.77000000000E+02 0.  0.
<mgrwt>
<rscale>  0 0.19323121E+03</rscale>
<asrwt>0</asrwt>
<pdfrwt beam="1">  1        2 0.70154521E-02 0.19323121E+03</pdfrwt>
<pdfrwt beam="2">  1       -2 0.31492866E-01 0.19323121E+03</pdfrwt>
<totfact> 0.91105888E+03</totfact>
</mgrwt>
</event>
<event>
 4    1  0.1195463E-003  0.1953971E+03  0.7818608E-02  0.1153682E+00
          2   -1    0    0  501    0  0.00000000000E+00  0.00000000000E+00  0.13180211599E+04  0.13180211599E+04  0.25500000000E-02 0.  1.
         -2   -1    0    0    0  501 -0.00000000000E+00 -0.00000000000E+00 -0.72419203196E+01  0.72419207686E+01  0.25500000000E-02 0. -1.
    5000001    1    1    2    0    0 -0.10683401008E+02 -0.58276809677E+02  0.58566495610E+03  0.59366889964E+03  0.77000000000E+02 0.  0.
   -5000001    1    1    2    0    0  0.10683401008E+02  0.58276809677E+02  0.72511428353E+03  0.73159418107E+03  0.77000000000E+02 0.  0.
<mgrwt>
<rscale>  0 0.19539708E+03</rscale>
<asrwt>0</asrwt>
<pdfrwt beam="1">  1        2 0.20277243E+00 0.19539708E+03</pdfrwt>
<pdfrwt beam="2">  1       -2 0.11141419E-02 0.19539708E+03</pdfrwt>
<totfact> 0.30590674E+04</totfact>
</mgrwt>
</event>
<event>
 4    1  0.1195463E-003  0.1821117E+03  0.7818608E-02  0.1165775E+00
         -2   -1    0    0    0  501 -0.00000000000E+00  0.00000000000E+00  0.72075530548E+01  0.72075535059E+01  0.25500000000E-02 0. -1.
          2   -1    0    0  501    0  0.00000000000E+00 -0.00000000000E+00 -0.11503444558E+04  0.11503444558E+04  0.25500000000E-02 0.  1.
    5000001    1    1    2    0    0  0.10581190875E+02  0.45570151205E+02 -0.48782741862E+03  0.49607780704E+03  0.77000000000E+02 0.  0.
   -5000001    1    1    2    0    0 -0.10581190875E+02 -0.45570151205E+02 -0.65530948413E+03  0.66147420227E+03  0.77000000000E+02 0.  0.
<mgrwt>
<rscale>  0 0.18211171E+03</rscale>
<asrwt>0</asrwt>
<pdfrwt beam="1">  1        2 0.17697592E+00 0.18211171E+03</pdfrwt>
<pdfrwt beam="2">  1       -2 0.11088553E-02 0.18211171E+03</pdfrwt>
<totfact> 0.37994546E+04</totfact>
</mgrwt>
</event>
<event>
 4    1  0.1195463E-003  0.2538701E+03  0.7818608E-02  0.1110883E+00
          2   -1    0    0  501    0  0.00000000000E+00  0.00000000000E+00  0.19983923177E+04  0.19983923177E+04  0.25500000000E-02 0.  1.
         -2   -1    0    0    0  501 -0.00000000000E+00 -0.00000000000E+00 -0.80627321573E+01  0.80627325606E+01  0.25500000000E-02 0. -1.
    5000001    1    1    2    0    0 -0.54460251973E+02 -0.81920434263E+02  0.11730589151E+04  0.11796919491E+04  0.77000000000E+02 0.  0.
   -5000001    1    1    2    0    0  0.54460251973E+02  0.81920434263E+02  0.81727067049E+03  0.82676310116E+03  0.77000000000E+02 0.  0.
<mgrwt>
<rscale>  0 0.25387006E+03</rscale>
<asrwt>0</asrwt>
<pdfrwt beam="1">  1        2 0.30744470E+00 0.25387006E+03</pdfrwt>
<pdfrwt beam="2">  1       -2 0.12404215E-02 0.25387006E+03</pdfrwt>
<totfact> 0.11576502E+04</totfact>
</mgrwt>
</event>
<event>
 4    1  0.1195463E-003  0.2703939E+03  0.7818608E-02  0.1101054E+00
          2   -1    0    0  501    0  0.00000000000E+00  0.00000000000E+00  0.76118441485E+03  0.76118441486E+03  0.25500000000E-02 0.  1.
         -2   -1    0    0    0  501 -0.00000000000E+00 -0.00000000000E+00 -0.24012865447E+02  0.24012865582E+02  0.25500000000E-02 0. -1.
    5000001    1    1    2    0    0  0.11110308375E+03 -0.17042535740E+01  0.36406902654E+03  0.38835815400E+03  0.77000000000E+02 0.  0.
   -5000001    1    1    2    0    0 -0.11110308375E+03  0.17042535740E+01  0.37310252287E+03  0.39683912644E+03  0.77000000000E+02 0.  0.
<mgrwt>
<rscale>  0 0.27039393E+03</rscale>
<asrwt>0</asrwt>
<pdfrwt beam="1">  1        2 0.11710532E+00 0.27039393E+03</pdfrwt>
<pdfrwt beam="2">  1       -2 0.36942863E-02 0.27039393E+03</pdfrwt>
<totfact> 0.11658807E+04</totfact>
</mgrwt>
</event>
<event>
 4    1  0.1195463E-003  0.2519665E+03  0.7818608E-02  0.1112068E+00
          2   -1    0    0  501    0  0.00000000000E+00  0.00000000000E+00  0.87394827695E+02  0.87394827733E+02  0.25500000000E-02 0.  1.
         -2   -1    0    0    0  501 -0.00000000000E+00 -0.00000000000E+00 -0.18161003678E+03  0.18161003679E+03  0.25500000000E-02 0. -1.
    5000001    1    1    2    0    0 -0.16200763995E+02  0.73550950381E+02  0.22661044516E+02  0.11006693416E+03  0.77000000000E+02 0.  0.
   -5000001    1    1    2    0    0  0.16200763995E+02 -0.73550950381E+02 -0.11687625360E+03  0.15893793037E+03  0.77000000000E+02 0.  0.
<mgrwt>
<rscale>  0 0.25196649E+03</rscale>
<asrwt>0</asrwt>
<pdfrwt beam="1">  1        2 0.13445358E-01 0.25196649E+03</pdfrwt>
<pdfrwt beam="2">  1       -2 0.27940006E-01 0.25196649E+03</pdfrwt>
<totfact> 0.51181831E+03</totfact>
</mgrwt>
</event>
<event>
 4    1  0.1195463E-003  0.1866275E+03  0.7818608E-02  0.1161539E+00
         -2   -1    0    0    0  501 -0.00000000000E+00  0.00000000000E+00  0.36520513173E+02  0.36520513262E+02  0.25500000000E-02 0. -1.
          2   -1    0    0  501    0  0.00000000000E+00 -0.00000000000E+00 -0.23842641310E+03  0.23842641311E+03  0.25500000000E-02 0.  1.
    5000001    1    1    2    0    0  0.51538182013E+02  0.61576357471E+01 -0.87422044957E+02  0.12753711079E+03  0.77000000000E+02 0.  0.
   -5000001    1    1    2    0    0 -0.51538182013E+02 -0.61576357471E+01 -0.11448385497E+03  0.14740981559E+03  0.77000000000E+02 0.  0.
<mgrwt>
<rscale>  0 0.18662749E+03</rscale>
<asrwt>0</asrwt>
<pdfrwt beam="1">  1        2 0.36680986E-01 0.18662749E+03</pdfrwt>
<pdfrwt beam="2">  1       -2 0.56185406E-02 0.18662749E+03</pdfrwt>
<totfact> 0.22054234E+04</totfact>
</mgrwt>
</event>
<event>
 4    1  0.1195463E-003  0.2618463E+03  0.7818608E-02  0.1106039E+00
         -2   -1    0    0    0  501 -0.00000000000E+00  0.00000000000E+00  0.79217429023E+02  0.79217429064E+02  0.25500000000E-02 0. -1.
          2   -1    0    0  501    0  0.00000000000E+00 -0.00000000000E+00 -0.21637754228E+03  0.21637754229E+03  0.25500000000E-02 0.  1.
    5000001    1    1    2    0    0 -0.10517464853E+03  0.11394524666E+02 -0.63489948982E+02  0.14543560605E+03  0.77000000000E+02 0.  0.
   -5000001    1    1    2    0    0  0.10517464853E+03 -0.11394524666E+02 -0.73670164271E+02  0.15015936531E+03  0.77000000000E+02 0.  0.
<mgrwt>
<rscale>  0 0.26184631E+03</rscale>
<asrwt>0</asrwt>
<pdfrwt beam="1">  1        2 0.33288852E-01 0.26184631E+03</pdfrwt>
<pdfrwt beam="2">  1       -2 0.12187297E-01 0.26184631E+03</pdfrwt>
<totfact> 0.74525173E+03</totfact>
</mgrwt>
</event>
<event>
 4    1  0.1195463E-003  0.2450718E+03  0.7818608E-02  0.1116459E+00
          2   -1    0    0  501    0  0.00000000000E+00  0.00000000000E+00  0.21819244624E+04  0.21819244624E+04  0.25500000000E-02 0.  1.
         -2   -1    0    0    0  501 -0.00000000000E+00 -0.00000000000E+00 -0.68815634242E+01  0.68815638967E+01  0.25500000000E-02 0. -1.
    5000001    1    1    2    0    0 -0.82775407392E+02  0.31816720047E+02  0.77531205311E+03  0.78415677733E+03  0.77000000000E+02 0.  0.
   -5000001    1    1    2    0    0  0.82775407392E+02 -0.31816720047E+02  0.13997308459E+04  0.14046492490E+04  0.77000000000E+02 0.  0.
<mgrwt>
<rscale>  0 0.24507184E+03</rscale>
<asrwt>0</asrwt>
<pdfrwt beam="1">  1        2 0.33568069E+00 0.24507184E+03</pdfrwt>
<pdfrwt beam="2">  1       -2 0.10587021E-02 0.24507184E+03</pdfrwt>
<totfact> 0.11657842E+04</totfact>
</mgrwt>
</event>
<event>
 4    1  0.1195463E-003  0.2542076E+03  0.7818608E-02  0.1110674E+00
          2   -1    0    0  501    0  0.00000000000E+00  0.00000000000E+00  0.22213994406E+04  0.22213994406E+04  0.25500000000E-02 0.  1.
         -2   -1    0    0    0  501 -0.00000000000E+00 -0.00000000000E+00 -0.72726140823E+01  0.72726145294E+01  0.25500000000E-02 0. -1.
    5000001    1    1    2    0    0 -0.39896296042E+02  0.59717661572E+02  0.48290344448E+03  0.49424958293E+03  0.77000000000E+02 0.  0.
   -5000001    1    1    2    0    0  0.39896296042E+02 -0.59717661572E+02  0.17312233821E+04  0.17344224722E+04  0.77000000000E+02 0.  0.
<mgrwt>
<rscale>  0 0.25420764E+03</rscale>
<asrwt>0</asrwt>
<pdfrwt beam="1">  1        2 0.34175435E+00 0.25420764E+03</pdfrwt>
<pdfrwt beam="2">  1       -2 0.11188618E-02 0.25420764E+03</pdfrwt>
<totfact> 0.10258067E+04</totfact>
</mgrwt>
</event>
<event>
 4    1  0.1195463E-003  0.2674945E+03  0.7818608E-02  0.1102722E+00
          2   -1    0    0  501    0  0.00000000000E+00  0.00000000000E+00  0.60301606973E+03  0.60301606973E+03  0.25500000000E-02 0.  1.
         -2   -1    0    0    0  501 -0.00000000000E+00 -0.00000000000E+00 -0.29664749982E+02  0.29664750092E+02  0.25500000000E-02 0. -1.
    5000001    1    1    2    0    0 -0.83695639753E+02  0.70383960128E+02  0.28827812029E+03  0.31779259997E+03  0.77000000000E+02 0.  0.
   -5000001    1    1    2    0    0  0.83695639753E+02 -0.70383960128E+02  0.28507319945E+03  0.31488821985E+03  0.77000000000E+02 0.  0.
<mgrwt>
<rscale>  0 0.26749446E+03</rscale>
<asrwt>0</asrwt>
<pdfrwt beam="1">  1        2 0.92771698E-01 0.26749446E+03</pdfrwt>
<pdfrwt beam="2">  1       -2 0.45638079E-02 0.26749446E+03</pdfrwt>
<totfact> 0.11216898E+04</totfact>
</mgrwt>
</event>
<event>
 4    1  0.1195463E-003  0.3571269E+03  0.7818608E-02  0.1059727E+00
         -2   -1    0    0    0  501 -0.00000000000E+00  0.00000000000E+00  0.42419641569E+02  0.42419641646E+02  0.25500000000E-02 0. -1.
          2   -1    0    0  501    0  0.00000000000E+00 -0.00000000000E+00 -0.75165432575E+03  0.75165432576E+03  0.25500000000E-02 0.  1.
    5000001    1    1    2    0    0 -0.82175666348E+02  0.11287164003E+03 -0.53337204378E+03  0.55669343839E+03  0.77000000000E+02 0.  0.
   -5000001    1    1    2    0    0  0.82175666348E+02 -0.11287164003E+03 -0.17586264041E+03  0.23738052901E+03  0.77000000000E+02 0.  0.
<mgrwt>
<rscale>  0 0.35712691E+03</rscale>
<asrwt>0</asrwt>
<pdfrwt beam="1">  1        2 0.11563912E+00 0.35712691E+03</pdfrwt>
<pdfrwt beam="2">  1       -2 0.65260993E-02 0.35712691E+03</pdfrwt>
<totfact> 0.50122956E+03</totfact>
</mgrwt>
</event>
<event>
 4    1  0.1195463E-003  0.3275193E+03  0.7818608E-02  0.1072240E+00
         -2   -1    0    0    0  501 -0.00000000000E+00  0.00000000000E+00  0.55169048151E+03  0.55169048151E+03  0.25500000000E-02 0. -1.
          2   -1    0    0  501    0  0.00000000000E+00 -0.00000000000E+00 -0.48609168741E+02  0.48609168808E+02  0.25500000000E-02 0.  1.
    5000001    1    1    2    0    0 -0.38427210691E+02  0.12691154414E+03  0.14617025422E+03  0.21184412613E+03  0.77000000000E+02 0.  0.
   -5000001    1    1    2    0    0  0.38427210691E+02 -0.12691154414E+03  0.35691105855E+03  0.38845552419E+03  0.77000000000E+02 0.  0.
<mgrwt>
<rscale>  0 0.32751926E+03</rscale>
<asrwt>0</asrwt>
<pdfrwt beam="1">  1        2 0.74783335E-02 0.32751926E+03</pdfrwt>
<pdfrwt beam="2">  1       -2 0.84875461E-01 0.32751926E+03</pdfrwt>
<totfact> 0.11624037E+03</totfact>
</mgrwt>
</event>
<event>
 4    1  0.1195463E-003  0.2406502E+03  0.7818608E-02  0.1119360E+00
          2   -1    0    0  501    0  0.00000000000E+00  0.00000000000E+00  0.39819801556E+03  0.39819801557E+03  0.25500000000E-02 0. -1.
         -2   -1    0    0    0  501 -0.00000000000E+00 -0.00000000000E+00 -0.36359120310E+02  0.36359120400E+02  0.25500000000E-02 0.  1.
    5000001    1    1    2    0    0 -0.28682220154E+02  0.52693028319E+02  0.53874009667E+02  0.11149275270E+03  0.77000000000E+02 0.  0.
   -5000001    1    1    2    0    0  0.28682220154E+02 -0.52693028319E+02  0.30796488558E+03  0.32306438327E+03  0.77000000000E+02 0.  0.
<mgrwt>
<rscale>  0 0.24065020E+03</rscale>
<asrwt>0</asrwt>
<pdfrwt beam="1">  1        2 0.61261233E-01 0.24065020E+03</pdfrwt>
<pdfrwt beam="2">  1       -2 0.55937108E-02 0.24065020E+03</pdfrwt>
<totfact> 0.13022937E+04</totfact>
</mgrwt>
</event>
<event>
 4    1  0.1195463E-003  0.2147924E+03  0.7818608E-02  0.1137826E+00
          2   -1    0    0  501    0  0.00000000000E+00  0.00000000000E+00  0.27329971523E+03  0.27329971524E+03  0.25500000000E-02 0.  1.
         -2   -1    0    0    0  501 -0.00000000000E+00 -0.00000000000E+00 -0.42202533258E+02  0.42202533335E+02  0.25500000000E-02 0. -1.
    5000001    1    1    2    0    0  0.50237327187E+02  0.38884152749E+02  0.57362503071E+02  0.11513132995E+03  0.77000000000E+02 0.  0.
   -5000001    1    1    2    0    0 -0.50237327187E+02 -0.38884152749E+02  0.17373467890E+03  0.20037091862E+03  0.77000000000E+02 0.  0.
<mgrwt>
<rscale>  0 0.21479237E+03</rscale>
<asrwt>0</asrwt>
<pdfrwt beam="1">  1        2 0.42046111E-01 0.21479237E+03</pdfrwt>
<pdfrwt beam="2">  1       -2 0.64926973E-02 0.21479237E+03</pdfrwt>
<totfact> 0.15430491E+04</totfact>
</mgrwt>
</event>
<event>
 4    1  0.1195463E-003  0.2923695E+03  0.7818608E-02  0.1089118E+00
         -2   -1    0    0    0  501 -0.00000000000E+00  0.00000000000E+00  0.21860732193E+02  0.21860732342E+02  0.25500000000E-02 0. -1.
          2   -1    0    0  501    0  0.00000000000E+00 -0.00000000000E+00 -0.97755090626E+03  0.97755090626E+03  0.25500000000E-02 0.  1.
    5000001    1    1    2    0    0 -0.11441075985E+03  0.34064564092E+02 -0.59580240058E+03  0.61250283022E+03  0.77000000000E+02 0.  0.
   -5000001    1    1    2    0    0  0.11441075985E+03 -0.34064564092E+02 -0.35988777349E+03  0.38690880838E+03  0.77000000000E+02 0.  0.
<mgrwt>
<rscale>  0 0.29236948E+03</rscale>
<asrwt>0</asrwt>
<pdfrwt beam="1">  1        2 0.15039241E+00 0.29236948E+03</pdfrwt>
<pdfrwt beam="2">  1       -2 0.33631903E-02 0.29236948E+03</pdfrwt>
<totfact> 0.96754369E+03</totfact>
</mgrwt>
</event>
<event>
 4    1  0.1195463E-003  0.2219226E+03  0.7818608E-02  0.1132458E+00
          2   -1    0    0  501    0  0.00000000000E+00  0.00000000000E+00  0.49104706631E+02  0.49104706698E+02  0.25500000000E-02 0.  1.
         -2   -1    0    0    0  501 -0.00000000000E+00 -0.00000000000E+00 -0.25073780866E+03  0.25073780868E+03  0.25500000000E-02 0. -1.
    5000001    1    1    2    0    0 -0.52377344274E+02  0.55554152923E+02 -0.13261098817E+03  0.17130185137E+03  0.77000000000E+02 0.  0.
   -5000001    1    1    2    0    0  0.52377344274E+02 -0.55554152923E+02 -0.69022113866E+02  0.12854066400E+03  0.77000000000E+02 0.  0.
<mgrwt>
<rscale>  0 0.22192257E+03</rscale>
<asrwt>0</asrwt>
<pdfrwt beam="1">  1        2 0.75545704E-02 0.22192257E+03</pdfrwt>
<pdfrwt beam="2">  1       -2 0.38575047E-01 0.22192257E+03</pdfrwt>
<totfact> 0.57357060E+03</totfact>
</mgrwt>
</event>
<event>
 4    1  0.1195463E-003  0.1575552E+03  0.7818608E-02  0.1191485E+00
          2   -1    0    0  501    0  0.00000000000E+00  0.00000000000E+00  0.46536421595E+03  0.46536421596E+03  0.25500000000E-02 0.  1.
         -2   -1    0    0    0  501 -0.00000000000E+00 -0.00000000000E+00 -0.13335599356E+02  0.13335599600E+02  0.25500000000E-02 0. -1.
    5000001    1    1    2    0    0 -0.12250972721E+02 -0.10446896208E+02  0.21323652706E+03  0.22728405233E+03  0.77000000000E+02 0.  0.
   -5000001    1    1    2    0    0  0.12250972721E+02  0.10446896208E+02  0.23879208954E+03  0.25141576322E+03  0.77000000000E+02 0.  0.
<mgrwt>
<rscale>  0 0.15755521E+03</rscale>
<asrwt>0</asrwt>
<pdfrwt beam="1">  1        2 0.71594489E-01 0.15755521E+03</pdfrwt>
<pdfrwt beam="2">  1       -2 0.20516308E-02 0.15755521E+03</pdfrwt>
<totfact> 0.47313501E+04</totfact>
</mgrwt>
</event>
<event>
 4    1  0.1195463E-003  0.2416464E+03  0.7818608E-02  0.1118701E+00
         -2   -1    0    0    0  501 -0.00000000000E+00  0.00000000000E+00  0.14071607420E+02  0.14071607651E+02  0.25500000000E-02 0. -1.
          2   -1    0    0  501    0  0.00000000000E+00 -0.00000000000E+00 -0.10374254113E+04  0.10374254113E+04  0.25500000000E-02 0.  1.
    5000001    1    1    2    0    0  0.35861980810E+02  0.43748811170E+02 -0.18987413229E+03  0.21255875955E+03  0.77000000000E+02 0.  0.
   -5000001    1    1    2    0    0 -0.35861980810E+02 -0.43748811170E+02 -0.83347967161E+03  0.83893825943E+03  0.77000000000E+02 0.  0.
<mgrwt>
<rscale>  0 0.24164638E+03</rscale>
<asrwt>0</asrwt>
<pdfrwt beam="1">  1        2 0.15960385E+00 0.24164638E+03</pdfrwt>
<pdfrwt beam="2">  1       -2 0.21648635E-02 0.24164638E+03</pdfrwt>
<totfact> 0.16980529E+04</totfact>
</mgrwt>
</event>
<event>
 4    1  0.1195463E-003  0.2557943E+03  0.7818608E-02  0.1109697E+00
          2   -1    0    0  501    0  0.00000000000E+00  0.00000000000E+00  0.44797305401E+03  0.44797305402E+03  0.25500000000E-02 0.  1.
         -2   -1    0    0    0  501 -0.00000000000E+00 -0.00000000000E+00 -0.36514888429E+02  0.36514888518E+02  0.25500000000E-02 0. -1.
    5000001    1    1    2    0    0 -0.93603129025E+02  0.38924461628E+02  0.22908257760E+03  0.26207725357E+03  0.77000000000E+02 0.  0.
   -5000001    1    1    2    0    0  0.93603129025E+02 -0.38924461628E+02  0.18237558798E+03  0.22241068896E+03  0.77000000000E+02 0.  0.
<mgrwt>
<rscale>  0 0.25579434E+03</rscale>
<asrwt>0</asrwt>
<pdfrwt beam="1">  1        2 0.68918931E-01 0.25579434E+03</pdfrwt>
<pdfrwt beam="2">  1       -2 0.56176752E-02 0.25579434E+03</pdfrwt>
<totfact> 0.11412381E+04</totfact>
</mgrwt>
</event>
<event>
 4    1  0.1195463E-003  0.1932599E+03  0.7818608E-02  0.1155554E+00
         -2   -1    0    0    0  501 -0.00000000000E+00  0.00000000000E+00  0.11215911589E+03  0.11215911592E+03  0.25500000000E-02 0. -1.
          2   -1    0    0  501    0  0.00000000000E+00 -0.00000000000E+00 -0.83250864635E+02  0.83250864674E+02  0.25500000000E-02 0.  1.
    5000001    1    1    2    0    0  0.36887553627E+02  0.32702537511E+02  0.46078211429E+02  0.10238334406E+03  0.77000000000E+02 0.  0.
   -5000001    1    1    2    0    0 -0.36887553627E+02 -0.32702537511E+02 -0.17169960174E+02  0.93026636533E+02  0.77000000000E+02 0.  0.
<mgrwt>
<rscale>  0 0.19325986E+03</rscale>
<asrwt>0</asrwt>
<pdfrwt beam="1">  1        2 0.12807825E-01 0.19325986E+03</pdfrwt>
<pdfrwt beam="2">  1       -2 0.17255248E-01 0.19325986E+03</pdfrwt>
<totfact> 0.12296583E+04</totfact>
</mgrwt>
</event>
<event>
 4    1  0.1195463E-003  0.1672780E+03  0.7818608E-02  0.1180717E+00
          2   -1    0    0  501    0  0.00000000000E+00  0.00000000000E+00  0.59373496585E+03  0.59373496586E+03  0.25500000000E-02 0.  1.
         -2   -1    0    0    0  501 -0.00000000000E+00 -0.00000000000E+00 -0.11782167637E+02  0.11782167913E+02  0.25500000000E-02 0. -1.
    5000001    1    1    2    0    0 -0.19777683904E+02 -0.17088596994E+02  0.22010655124E+03  0.23464669362E+03  0.77000000000E+02 0.  0.
   -5000001    1    1    2    0    0  0.19777683904E+02  0.17088596994E+02  0.36184624698E+03  0.37087044015E+03  0.77000000000E+02 0.  0.
<mgrwt>
<rscale>  0 0.16727803E+03</rscale>
<asrwt>0</asrwt>
<pdfrwt beam="1">  1        2 0.91343826E-01 0.16727803E+03</pdfrwt>
<pdfrwt beam="2">  1       -2 0.18126415E-02 0.16727803E+03</pdfrwt>
<totfact> 0.43440027E+04</totfact>
</mgrwt>
</event>
<event>
 4    1  0.1195463E-003  0.2118354E+03  0.7818608E-02  0.1140121E+00
         -2   -1    0    0    0  501 -0.00000000000E+00  0.00000000000E+00  0.25157536754E+02  0.25157536883E+02  0.25500000000E-02 0. -1.
          2   -1    0    0  501    0  0.00000000000E+00 -0.00000000000E+00 -0.44593223188E+03  0.44593223188E+03  0.25500000000E-02 0.  1.
    5000001    1    1    2    0    0  0.50920533146E+02 -0.51912378877E+02 -0.20743643496E+03  0.23290914608E+03  0.77000000000E+02 0.  0.
   -5000001    1    1    2    0    0 -0.50920533146E+02  0.51912378877E+02 -0.21333826016E+03  0.23818062269E+03  0.77000000000E+02 0.  0.
<mgrwt>
<rscale>  0 0.21183538E+03</rscale>
<asrwt>0</asrwt>
<pdfrwt beam="1">  1        2 0.68604953E-01 0.21183538E+03</pdfrwt>
<pdfrwt beam="2">  1       -2 0.38703906E-02 0.21183538E+03</pdfrwt>
<totfact> 0.19924331E+04</totfact>
</mgrwt>
</event>
<event>
 4    1  0.1195463E-003  0.2364879E+03  0.7818608E-02  0.1122155E+00
         -2   -1    0    0    0  501 -0.00000000000E+00  0.00000000000E+00  0.74264989654E+01  0.74264994032E+01  0.25500000000E-02 0. -1.
          2   -1    0    0  501    0  0.00000000000E+00 -0.00000000000E+00 -0.18826676826E+04  0.18826676826E+04  0.25500000000E-02 0.  1.
    5000001    1    1    2    0    0 -0.47858424166E+02  0.55999884954E+02 -0.52803976908E+03  0.53868489269E+03  0.77000000000E+02 0.  0.
   -5000001    1    1    2    0    0  0.47858424166E+02 -0.55999884954E+02 -0.13472014146E+04  0.13514092893E+04  0.77000000000E+02 0.  0.
<mgrwt>
<rscale>  0 0.23648789E+03</rscale>
<asrwt>0</asrwt>
<pdfrwt beam="1">  1        2 0.28964080E+00 0.23648789E+03</pdfrwt>
<pdfrwt beam="2">  1       -2 0.11425398E-02 0.23648789E+03</pdfrwt>
<totfact> 0.14972390E+04</totfact>
</mgrwt>
</event>
<event>
 4    1  0.1195463E-003  0.6742848E+03  0.7818608E-02  0.9762248E-01
          2   -1    0    0  501    0  0.00000000000E+00  0.00000000000E+00  0.99538949542E+03  0.99538949542E+03  0.25500000000E-02 0.  1.
         -2   -1    0    0    0  501 -0.00000000000E+00 -0.00000000000E+00 -0.11419148715E+03  0.11419148718E+03  0.25500000000E-02 0. -1.
    5000001    1    1    2    0    0  0.26128241706E+03 -0.11568854081E+03  0.17483268577E+03  0.34372635620E+03  0.77000000000E+02 0.  0.
   -5000001    1    1    2    0    0 -0.26128241706E+03  0.11568854081E+03  0.70636532250E+03  0.76585462640E+03  0.77000000000E+02 0.  0.
<mgrwt>
<rscale>  0 0.67428483E+03</rscale>
<asrwt>0</asrwt>
<pdfrwt beam="1">  1        2 0.15313686E+00 0.67428483E+03</pdfrwt>
<pdfrwt beam="2">  1       -2 0.17567920E-01 0.67428483E+03</pdfrwt>
<totfact> 0.68321265E+02</totfact>
</mgrwt>
</event>
<event>
 4    1  0.1195463E-003  0.4166433E+03  0.7818608E-02  0.1038164E+00
          2   -1    0    0  501    0  0.00000000000E+00  0.00000000000E+00  0.33599597167E+04  0.33599597167E+04  0.25500000000E-02 0.  1.
         -2   -1    0    0    0  501 -0.00000000000E+00 -0.00000000000E+00 -0.12916202274E+02  0.12916202526E+02  0.25500000000E-02 0. -1.
    5000001    1    1    2    0    0  0.10367512323E+03 -0.88486900561E+02  0.56087541323E+03  0.58231322492E+03  0.77000000000E+02 0.  0.
   -5000001    1    1    2    0    0 -0.10367512323E+03  0.88486900561E+02  0.27861681012E+04  0.27905626943E+04  0.77000000000E+02 0.  0.
<mgrwt>
<rscale>  0 0.41664335E+03</rscale>
<asrwt>0</asrwt>
<pdfrwt beam="1">  1        2 0.51691633E+00 0.41664335E+03</pdfrwt>
<pdfrwt beam="2">  1       -2 0.19871102E-02 0.41664335E+03</pdfrwt>
<totfact> 0.95270709E+02</totfact>
</mgrwt>
</event>
<event>
 4    1  0.1195463E-003  0.4335839E+03  0.7818608E-02  0.1032734E+00
          2   -1    0    0  501    0  0.00000000000E+00  0.00000000000E+00  0.12488979626E+04  0.12488979626E+04  0.25500000000E-02 0.  1.
         -2   -1    0    0    0  501 -0.00000000000E+00 -0.00000000000E+00 -0.37632170058E+02  0.37632170144E+02  0.25500000000E-02 0. -1.
    5000001    1    1    2    0    0 -0.16349056099E+03 -0.11911955364E+03  0.64210761841E+03  0.67760595128E+03  0.77000000000E+02 0.  0.
   -5000001    1    1    2    0    0  0.16349056099E+03  0.11911955364E+03  0.56915817413E+03  0.60892418147E+03  0.77000000000E+02 0.  0.
<mgrwt>
<rscale>  0 0.43358386E+03</rscale>
<asrwt>0</asrwt>
<pdfrwt beam="1">  1        2 0.19213812E+00 0.43358386E+03</pdfrwt>
<pdfrwt beam="2">  1       -2 0.57895654E-02 0.43358386E+03</pdfrwt>
<totfact> 0.29349736E+03</totfact>
</mgrwt>
</event>
<event>
 4    1  0.1195463E-003  0.3831086E+03  0.7818608E-02  0.1049791E+00
          2   -1    0    0  501    0  0.00000000000E+00  0.00000000000E+00  0.70174951688E+03  0.70174951688E+03  0.25500000000E-02 0.  1.
         -2   -1    0    0    0  501 -0.00000000000E+00 -0.00000000000E+00 -0.52287957277E+02  0.52287957339E+02  0.25500000000E-02 0. -1.
    5000001    1    1    2    0    0  0.15339388917E+03  0.42412772399E+02  0.17962269983E+03  0.25203539987E+03  0.77000000000E+02 0.  0.
   -5000001    1    1    2    0    0 -0.15339388917E+03 -0.42412772399E+02  0.46983885978E+03  0.50200207435E+03  0.77000000000E+02 0.  0.
<mgrwt>
<rscale>  0 0.38310859E+03</rscale>
<asrwt>0</asrwt>
<pdfrwt beam="1">  1        2 0.10796146E+00 0.38310859E+03</pdfrwt>
<pdfrwt beam="2">  1       -2 0.80443018E-02 0.38310859E+03</pdfrwt>
<totfact> 0.39399560E+03</totfact>
</mgrwt>
</event>
<event>
 4    1  0.1195463E-003  0.1586784E+03  0.7818608E-02  0.1190197E+00
         -2   -1    0    0    0  501 -0.00000000000E+00  0.00000000000E+00  0.27616598057E+03  0.27616598058E+03  0.25500000000E-02 0. -1.
          2   -1    0    0  501    0  0.00000000000E+00 -0.00000000000E+00 -0.22793211122E+02  0.22793211264E+02  0.25500000000E-02 0.  1.
    5000001    1    1    2    0    0  0.12090055283E+02 -0.14154972600E+02  0.13493692814E+03  0.15647206543E+03  0.77000000000E+02 0.  0.
   -5000001    1    1    2    0    0 -0.12090055283E+02  0.14154972600E+02  0.11843584131E+03  0.14248712641E+03  0.77000000000E+02 0.  0.
<mgrwt>
<rscale>  0 0.15867841E+03</rscale>
<asrwt>0</asrwt>
<pdfrwt beam="1">  1        2 0.35066480E-02 0.15867841E+03</pdfrwt>
<pdfrwt beam="2">  1       -2 0.42487073E-01 0.15867841E+03</pdfrwt>
<totfact> 0.12722965E+04</totfact>
</mgrwt>
</event>
<event>
 4    1  0.1195463E-003  0.2717054E+03  0.7818608E-02  0.1100308E+00
         -2   -1    0    0    0  501 -0.00000000000E+00  0.00000000000E+00  0.60938907410E+01  0.60938912746E+01  0.25500000000E-02 0. -1.
          2   -1    0    0  501    0  0.00000000000E+00 -0.00000000000E+00 -0.30285988455E+04  0.30285988455E+04  0.25500000000E-02 0.  1.
    5000001    1    1    2    0    0  0.95321705671E+02 -0.40151785795E+02 -0.10336452848E+04  0.10416573181E+04  0.77000000000E+02 0.  0.
   -5000001    1    1    2    0    0 -0.95321705671E+02  0.40151785795E+02 -0.19888596699E+04  0.19930354187E+04  0.77000000000E+02 0.  0.
<mgrwt>
<rscale>  0 0.27170536E+03</rscale>
<asrwt>0</asrwt>
<pdfrwt beam="1">  1        2 0.46593708E+00 0.27170536E+03</pdfrwt>
<pdfrwt beam="2">  1       -2 0.93752411E-03 0.27170536E+03</pdfrwt>
<totfact> 0.46927670E+03</totfact>
</mgrwt>
</event>
<event>
 4    1  0.1195463E-003  0.3093767E+03  0.7818608E-02  0.1080645E+00
          2   -1    0    0  501    0  0.00000000000E+00  0.00000000000E+00  0.31786483869E+04  0.31786483869E+04  0.25500000000E-02 0.  1.
         -2   -1    0    0    0  501 -0.00000000000E+00 -0.00000000000E+00 -0.75278805250E+01  0.75278809569E+01  0.25500000000E-02 0. -1.
    5000001    1    1    2    0    0  0.12949714595E+03  0.31374608687E+02  0.17469605829E+04  0.17537257925E+04  0.77000000000E+02 0.  0.
   -5000001    1    1    2    0    0 -0.12949714595E+03 -0.31374608687E+02  0.14241599234E+04  0.14324504754E+04  0.77000000000E+02 0.  0.
<mgrwt>
<rscale>  0 0.30937670E+03</rscale>
<asrwt>0</asrwt>
<pdfrwt beam="1">  1        2 0.48902173E+00 0.30937670E+03</pdfrwt>
<pdfrwt beam="2">  1       -2 0.11581381E-02 0.30937670E+03</pdfrwt>
<totfact> 0.27884342E+03</totfact>
</mgrwt>
</event>
<event>
 4    1  0.1195463E-003  0.2743965E+03  0.7818608E-02  0.1098789E+00
          2   -1    0    0  501    0  0.00000000000E+00  0.00000000000E+00  0.82725511043E+03  0.82725511044E+03  0.25500000000E-02 0.  1.
         -2   -1    0    0    0  501 -0.00000000000E+00 -0.00000000000E+00 -0.22753989888E+02  0.22753990031E+02  0.25500000000E-02 0. -1.
    5000001    1    1    2    0    0 -0.10116211098E+03 -0.49286797330E+02  0.35512890424E+03  0.38040570410E+03  0.77000000000E+02 0.  0.
   -5000001    1    1    2    0    0  0.10116211098E+03  0.49286797330E+02  0.44937221631E+03  0.46960339636E+03  0.77000000000E+02 0.  0.
<mgrwt>
<rscale>  0 0.27439646E+03</rscale>
<asrwt>0</asrwt>
<pdfrwt beam="1">  1        2 0.12727000E+00 0.27439646E+03</pdfrwt>
<pdfrwt beam="2">  1       -2 0.35006143E-02 0.27439646E+03</pdfrwt>
<totfact> 0.11377405E+04</totfact>
</mgrwt>
</event>
<event>
 4    1  0.1195463E-003  0.2072379E+03  0.7818608E-02  0.1143772E+00
         -2   -1    0    0    0  501 -0.00000000000E+00  0.00000000000E+00  0.15430552359E+03  0.15430552361E+03  0.25500000000E-02 0.  1.
          2   -1    0    0  501    0  0.00000000000E+00 -0.00000000000E+00 -0.69582021971E+02  0.69582022017E+02  0.25500000000E-02 0. -1.
    5000001    1    1    2    0    0 -0.66293831914E+02  0.36271682912E+01  0.63964830182E+02  0.12011880785E+03  0.77000000000E+02 0.  0.
   -5000001    1    1    2    0    0  0.66293831914E+02 -0.36271682912E+01  0.20758671436E+02  0.10376873777E+03  0.77000000000E+02 0.  0.
<mgrwt>
<rscale>  0 0.20723793E+03</rscale>
<asrwt>0</asrwt>
<pdfrwt beam="1">  1        2 0.10704927E-01 0.20723793E+03</pdfrwt>
<pdfrwt beam="2">  1       -2 0.23739311E-01 0.20723793E+03</pdfrwt>
<totfact> 0.89130221E+03</totfact>
</mgrwt>
</event>
<event>
 4    1  0.1195463E-003  0.2645779E+03  0.7818608E-02  0.1104424E+00
         -2   -1    0    0    0  501 -0.00000000000E+00  0.00000000000E+00  0.87489891453E+01  0.87489895169E+01  0.25500000000E-02 0. -1.
          2   -1    0    0  501    0  0.00000000000E+00 -0.00000000000E+00 -0.20002722175E+04  0.20002722175E+04  0.25500000000E-02 0.  1.
    5000001    1    1    2    0    0  0.66354742685E+02  0.41239118948E+02 -0.43428057322E+03  0.44791989584E+03  0.77000000000E+02 0.  0.
   -5000001    1    1    2    0    0 -0.66354742685E+02 -0.41239118948E+02 -0.15572426551E+04  0.15611013112E+04  0.77000000000E+02 0.  0.
<mgrwt>
<rscale>  0 0.26457785E+03</rscale>
<asrwt>0</asrwt>
<pdfrwt beam="1">  1        2 0.30773382E+00 0.26457785E+03</pdfrwt>
<pdfrwt beam="2">  1       -2 0.13459999E-02 0.26457785E+03</pdfrwt>
<totfact> 0.10260901E+04</totfact>
</mgrwt>
</event>
<event>
 4    1  0.1195463E-003  0.2549777E+03  0.7818608E-02  0.1110199E+00
          2   -1    0    0  501    0  0.00000000000E+00  0.00000000000E+00  0.29917008285E+04  0.29917008285E+04  0.25500000000E-02 0.  1.
         -2   -1    0    0    0  501 -0.00000000000E+00 -0.00000000000E+00 -0.54328328025E+01  0.54328334010E+01  0.25500000000E-02 0. -1.
    5000001    1    1    2    0    0 -0.67103945752E+02 -0.43223040068E+02  0.22321953202E+04  0.22349487954E+04  0.77000000000E+02 0.  0.
   -5000001    1    1    2    0    0  0.67103945752E+02  0.43223040068E+02  0.75407267553E+03  0.76218486649E+03  0.77000000000E+02 0.  0.
<mgrwt>
<rscale>  0 0.25497773E+03</rscale>
<asrwt>0</asrwt>
<pdfrwt beam="1">  1        2 0.46026163E+00 0.25497773E+03</pdfrwt>
<pdfrwt beam="2">  1       -2 0.83582055E-03 0.25497773E+03</pdfrwt>
<totfact> 0.58346856E+03</totfact>
</mgrwt>
</event>
<event>
 4    1  0.1195463E-003  0.1662083E+03  0.7818608E-02  0.1181861E+00
         -2   -1    0    0    0  501 -0.00000000000E+00  0.00000000000E+00  0.45425427992E+01  0.45425435149E+01  0.25500000000E-02 0. -1.
          2   -1    0    0  501    0  0.00000000000E+00 -0.00000000000E+00 -0.15203596679E+04  0.15203596679E+04  0.25500000000E-02 0.  1.
    5000001    1    1    2    0    0 -0.20291583466E+02  0.22417025347E+02 -0.83074624915E+03  0.83485483879E+03  0.77000000000E+02 0.  0.
   -5000001    1    1    2    0    0  0.20291583466E+02 -0.22417025347E+02 -0.68507087597E+03  0.69004737264E+03  0.77000000000E+02 0.  0.
<mgrwt>
<rscale>  0 0.16620830E+03</rscale>
<asrwt>0</asrwt>
<pdfrwt beam="1">  1        2 0.23390108E+00 0.16620830E+03</pdfrwt>
<pdfrwt beam="2">  1       -2 0.69885400E-03 0.16620830E+03</pdfrwt>
<totfact> 0.46111997E+04</totfact>
</mgrwt>
</event>
<event>
 4    1  0.1195463E-003  0.1839529E+03  0.7818608E-02  0.1164031E+00
         -2   -1    0    0    0  501 -0.00000000000E+00  0.00000000000E+00  0.12633001458E+02  0.12633001715E+02  0.25500000000E-02 0. -1.
          2   -1    0    0  501    0  0.00000000000E+00 -0.00000000000E+00 -0.66964831922E+03  0.66964831922E+03  0.25500000000E-02 0.  1.
    5000001    1    1    2    0    0 -0.32555968507E+02 -0.36916577429E+02 -0.28997268379E+03  0.30403269909E+03  0.77000000000E+02 0.  0.
   -5000001    1    1    2    0    0  0.32555968507E+02  0.36916577429E+02 -0.36704263397E+03  0.37824862184E+03  0.77000000000E+02 0.  0.
<mgrwt>
<rscale>  0 0.18395291E+03</rscale>
<asrwt>0</asrwt>
<pdfrwt beam="1">  1        2 0.10302279E+00 0.18395291E+03</pdfrwt>
<pdfrwt beam="2">  1       -2 0.19435392E-02 0.18395291E+03</pdfrwt>
<totfact> 0.34408397E+04</totfact>
</mgrwt>
</event>
<event>
 4    1  0.1195463E-003  0.3465748E+03  0.7818608E-02  0.1064030E+00
          2   -1    0    0  501    0  0.00000000000E+00  0.00000000000E+00  0.90641198023E+03  0.90641198024E+03  0.25500000000E-02 0.  1.
         -2   -1    0    0    0  501 -0.00000000000E+00 -0.00000000000E+00 -0.33128999783E+02  0.33128999881E+02  0.25500000000E-02 0. -1.
    5000001    1    1    2    0    0  0.10337611022E+03  0.50029794681E+02  0.71979996888E+03  0.73296015971E+03  0.77000000000E+02 0.  0.
   -5000001    1    1    2    0    0 -0.10337611022E+03 -0.50029794681E+02  0.15348301157E+03  0.20658082041E+03  0.77000000000E+02 0.  0.
<mgrwt>
<rscale>  0 0.34657480E+03</rscale>
<asrwt>0</asrwt>
<pdfrwt beam="1">  1        2 0.13944800E+00 0.34657480E+03</pdfrwt>
<pdfrwt beam="2">  1       -2 0.50967690E-02 0.34657480E+03</pdfrwt>
<totfact> 0.57448436E+03</totfact>
</mgrwt>
</event>
<event>
 4    1  0.1195463E-003  0.5058497E+03  0.7818608E-02  0.1012263E+00
         -2   -1    0    0    0  501 -0.00000000000E+00  0.00000000000E+00  0.12092669226E+03  0.12092669228E+03  0.25500000000E-02 0. -1.
          2   -1    0    0  501    0  0.00000000000E+00 -0.00000000000E+00 -0.52900636801E+03  0.52900636801E+03  0.25500000000E-02 0.  1.
    5000001    1    1    2    0    0 -0.87702933151E+02 -0.20461647183E+03 -0.32237219976E+03  0.39926499997E+03  0.77000000000E+02 0.  0.
   -5000001    1    1    2    0    0  0.87702933151E+02  0.20461647183E+03 -0.85707475994E+02  0.25066806033E+03  0.77000000000E+02 0.  0.
<mgrwt>
<rscale>  0 0.50584974E+03</rscale>
<asrwt>0</asrwt>
<pdfrwt beam="1">  1        2 0.81385594E-01 0.50584974E+03</pdfrwt>
<pdfrwt beam="2">  1       -2 0.18604107E-01 0.50584974E+03</pdfrwt>
<totfact> 0.13957060E+03</totfact>
</mgrwt>
</event>
<event>
 4    1  0.1195463E-003  0.2879890E+03  0.7818608E-02  0.1091404E+00
         -2   -1    0    0    0  501 -0.00000000000E+00  0.00000000000E+00  0.10133534244E+02  0.10133534564E+02  0.25500000000E-02 0. -1.
          2   -1    0    0  501    0  0.00000000000E+00 -0.00000000000E+00 -0.20461195486E+04  0.20461195486E+04  0.25500000000E-02 0.  1.
    5000001    1    1    2    0    0 -0.95075154171E+02 -0.62455040419E+02 -0.13263820227E+04  0.13334759792E+04  0.77000000000E+02 0.  0.
   -5000001    1    1    2    0    0  0.95075154171E+02  0.62455040419E+02 -0.70960399166E+03  0.72277710395E+03  0.77000000000E+02 0.  0.
<mgrwt>
<rscale>  0 0.28798905E+03</rscale>
<asrwt>0</asrwt>
<pdfrwt beam="1">  1        2 0.31478729E+00 0.28798905E+03</pdfrwt>
<pdfrwt beam="2">  1       -2 0.15590069E-02 0.28798905E+03</pdfrwt>
<totfact> 0.78356399E+03</totfact>
</mgrwt>
</event>
<event>
 4    1  0.1195463E-003  0.1743266E+03  0.7818608E-02  0.1173409E+00
          2   -1    0    0  501    0  0.00000000000E+00  0.00000000000E+00  0.32037874429E+03  0.32037874430E+03  0.25500000000E-02 0.  1.
         -2   -1    0    0    0  501 -0.00000000000E+00 -0.00000000000E+00 -0.23713948892E+02  0.23713949029E+02  0.25500000000E-02 0. -1.
    5000001    1    1    2    0    0  0.45683926783E+01  0.29167148895E+02  0.20405105104E+03  0.22008503860E+03  0.77000000000E+02 0.  0.
   -5000001    1    1    2    0    0 -0.45683926783E+01 -0.29167148895E+02  0.92613744355E+02  0.12400765472E+03  0.77000000000E+02 0.  0.
<mgrwt>
<rscale>  0 0.17432665E+03</rscale>
<asrwt>0</asrwt>
<pdfrwt beam="1">  1        2 0.49289035E-01 0.17432665E+03</pdfrwt>
<pdfrwt beam="2">  1       -2 0.36483000E-02 0.17432665E+03</pdfrwt>
<totfact> 0.30591204E+04</totfact>
</mgrwt>
</event>
<event>
 4    1  0.1195463E-003  0.2258243E+03  0.7818608E-02  0.1129614E+00
          2   -1    0    0  501    0  0.00000000000E+00  0.00000000000E+00  0.23975861708E+03  0.23975861709E+03  0.25500000000E-02 0.  1.
         -2   -1    0    0    0  501 -0.00000000000E+00 -0.00000000000E+00 -0.53174975093E+02  0.53174975154E+02  0.25500000000E-02 0. -1.
    5000001    1    1    2    0    0  0.62680885018E+02 -0.52432131122E+02  0.10875688282E+03  0.15631724563E+03  0.77000000000E+02 0.  0.
   -5000001    1    1    2    0    0 -0.62680885018E+02  0.52432131122E+02  0.77826759166E+02  0.13661634662E+03  0.77000000000E+02 0.  0.
<mgrwt>
<rscale>  0 0.22582434E+03</rscale>
<asrwt>0</asrwt>
<pdfrwt beam="1">  1        2 0.36885940E-01 0.22582434E+03</pdfrwt>
<pdfrwt beam="2">  1       -2 0.81807656E-02 0.22582434E+03</pdfrwt>
<totfact> 0.12460505E+04</totfact>
</mgrwt>
</event>
<event>
 4    1  0.1195463E-003  0.1883878E+03  0.7818608E-02  0.1159923E+00
          2   -1    0    0  501    0  0.00000000000E+00  0.00000000000E+00  0.41674970609E+03  0.41674970609E+03  0.25500000000E-02 0.  1.
         -2   -1    0    0    0  501 -0.00000000000E+00 -0.00000000000E+00 -0.21289744302E+02  0.21289744455E+02  0.25500000000E-02 0. -1.
    5000001    1    1    2    0    0 -0.18321514720E+02  0.50257230853E+02  0.17667085919E+03  0.20000764896E+03  0.77000000000E+02 0.  0.
   -5000001    1    1    2    0    0  0.18321514720E+02 -0.50257230853E+02  0.21878910259E+03  0.23803180159E+03  0.77000000000E+02 0.  0.
<mgrwt>
<rscale>  0 0.18838784E+03</rscale>
<asrwt>0</asrwt>
<pdfrwt beam="1">  1        2 0.64115342E-01 0.18838784E+03</pdfrwt>
<pdfrwt beam="2">  1       -2 0.32753452E-02 0.18838784E+03</pdfrwt>
<totfact> 0.27263209E+04</totfact>
</mgrwt>
</event>
<event>
 4    1  0.1195463E-003  0.1868838E+03  0.7818608E-02  0.1161302E+00
         -2   -1    0    0    0  501 -0.00000000000E+00  0.00000000000E+00  0.11534798167E+02  0.11534798449E+02  0.25500000000E-02 0. -1.
          2   -1    0    0  501    0  0.00000000000E+00 -0.00000000000E+00 -0.75696099308E+03  0.75696099308E+03  0.25500000000E-02 0.  1.
    5000001    1    1    2    0    0  0.24715890085E+02  0.43299808686E+02 -0.29953936773E+03  0.31327077980E+03  0.77000000000E+02 0.  0.
   -5000001    1    1    2    0    0 -0.24715890085E+02 -0.43299808686E+02 -0.44588682718E+03  0.45522501173E+03  0.77000000000E+02 0.  0.
<mgrwt>
<rscale>  0 0.18688384E+03</rscale>
<asrwt>0</asrwt>
<pdfrwt beam="1">  1        2 0.11645550E+00 0.18688384E+03</pdfrwt>
<pdfrwt beam="2">  1       -2 0.17745849E-02 0.18688384E+03</pdfrwt>
<totfact> 0.33928332E+04</totfact>
</mgrwt>
</event>
<event>
 4    1  0.1195463E-003  0.1858131E+03  0.7818608E-02  0.1162293E+00
          2   -1    0    0  501    0  0.00000000000E+00  0.00000000000E+00  0.11670922056E+04  0.11670922056E+04  0.25500000000E-02 0.  1.
         -2   -1    0    0    0  501 -0.00000000000E+00 -0.00000000000E+00 -0.73958391015E+01  0.73958395411E+01  0.25500000000E-02 0. -1.
    5000001    1    1    2    0    0 -0.34734441318E+02  0.35166524021E+02  0.47803406634E+03  0.48671216792E+03  0.77000000000E+02 0.  0.
   -5000001    1    1    2    0    0  0.34734441318E+02 -0.35166524021E+02  0.68166230013E+03  0.68777587719E+03  0.77000000000E+02 0.  0.
<mgrwt>
<rscale>  0 0.18581309E+03</rscale>
<asrwt>0</asrwt>
<pdfrwt beam="1">  1        2 0.17955263E+00 0.18581309E+03</pdfrwt>
<pdfrwt beam="2">  1       -2 0.11378215E-02 0.18581309E+03</pdfrwt>
<totfact> 0.35866793E+04</totfact>
</mgrwt>
</event>
<event>
 4    1  0.1195463E-003  0.2731082E+03  0.7818608E-02  0.1099514E+00
          2   -1    0    0  501    0  0.00000000000E+00  0.00000000000E+00  0.25606897492E+04  0.25606897492E+04  0.25500000000E-02 0.  1.
         -2   -1    0    0    0  501 -0.00000000000E+00 -0.00000000000E+00 -0.72820310552E+01  0.72820315017E+01  0.25500000000E-02 0. -1.
    5000001    1    1    2    0    0  0.10912875795E+02 -0.10266090102E+03  0.84997258866E+03  0.85967479486E+03  0.77000000000E+02 0.  0.
   -5000001    1    1    2    0    0 -0.10912875795E+02  0.10266090102E+03  0.17034351295E+04  0.17082969859E+04  0.77000000000E+02 0.  0.
<mgrwt>
<rscale>  0 0.27310820E+03</rscale>
<asrwt>0</asrwt>
<pdfrwt beam="1">  1        2 0.39395289E+00 0.27310820E+03</pdfrwt>
<pdfrwt beam="2">  1       -2 0.11203107E-02 0.27310820E+03</pdfrwt>
<totfact> 0.67113634E+03</totfact>
</mgrwt>
</event>
<event>
 4    1  0.1195463E-003  0.2798385E+03  0.7818608E-02  0.1095777E+00
          2   -1    0    0  501    0  0.00000000000E+00  0.00000000000E+00  0.51770893731E+02  0.51770893794E+02  0.25500000000E-02 0.  1.
         -2   -1    0    0    0  501 -0.00000000000E+00 -0.00000000000E+00 -0.37815448929E+03  0.37815448930E+03  0.25500000000E-02 0. -1.
    5000001    1    1    2    0    0 -0.19714694228E+02 -0.76601107538E+02 -0.29528075818E+03  0.31523978968E+03  0.77000000000E+02 0.  0.
   -5000001    1    1    2    0    0  0.19714694228E+02  0.76601107538E+02 -0.31102837383E+02  0.11468559342E+03  0.77000000000E+02 0.  0.
<mgrwt>
<rscale>  0 0.27983850E+03</rscale>
<asrwt>0</asrwt>
<pdfrwt beam="1">  1        2 0.79647531E-02 0.27983850E+03</pdfrwt>
<pdfrwt beam="2">  1       -2 0.58177612E-01 0.27983850E+03</pdfrwt>
<totfact> 0.24061506E+03</totfact>
</mgrwt>
</event>
<event>
 4    1  0.1195463E-003  0.3344112E+03  0.7818608E-02  0.1069202E+00
         -2   -1    0    0    0  501 -0.00000000000E+00  0.00000000000E+00  0.37370363396E+02  0.37370363483E+02  0.25500000000E-02 0. -1.
          2   -1    0    0  501    0  0.00000000000E+00 -0.00000000000E+00 -0.74812510754E+03  0.74812510755E+03  0.25500000000E-02 0.  1.
    5000001    1    1    2    0    0 -0.11565338854E+02 -0.61976770233E+02 -0.39769673123E+02  0.10717044374E+03  0.77000000000E+02 0.  0.
   -5000001    1    1    2    0    0  0.11565338854E+02  0.61976770233E+02 -0.67098507102E+03  0.67832502729E+03  0.77000000000E+02 0.  0.
<mgrwt>
<rscale>  0 0.33441117E+03</rscale>
<asrwt>0</asrwt>
<pdfrwt beam="1">  1        2 0.11509616E+00 0.33441117E+03</pdfrwt>
<pdfrwt beam="2">  1       -2 0.57492872E-02 0.33441117E+03</pdfrwt>
<totfact> 0.61254318E+03</totfact>
</mgrwt>
</event>
<event>
 4    1  0.1195463E-003  0.2481478E+03  0.7818608E-02  0.1114481E+00
          2   -1    0    0  501    0  0.00000000000E+00  0.00000000000E+00  0.18654502304E+04  0.18654502304E+04  0.25500000000E-02 0.  1.
         -2   -1    0    0    0  501 -0.00000000000E+00 -0.00000000000E+00 -0.82523441045E+01  0.82523444985E+01  0.25500000000E-02 0. -1.
    5000001    1    1    2    0    0  0.41525219489E+01 -0.93129926975E+02  0.11387908665E+04  0.11451917151E+04  0.77000000000E+02 0.  0.
   -5000001    1    1    2    0    0 -0.41525219489E+01  0.93129926975E+02  0.71840701972E+03  0.72851085971E+03  0.77000000000E+02 0.  0.
<mgrwt>
<rscale>  0 0.24814784E+03</rscale>
<asrwt>0</asrwt>
<pdfrwt beam="1">  1        2 0.28699216E+00 0.24814784E+03</pdfrwt>
<pdfrwt beam="2">  1       -2 0.12695922E-02 0.24814784E+03</pdfrwt>
<totfact> 0.13130781E+04</totfact>
</mgrwt>
</event>
<event>
 4    1  0.1195463E-003  0.2473656E+03  0.7818608E-02  0.1114981E+00
         -2   -1    0    0    0  501 -0.00000000000E+00  0.00000000000E+00  0.11929563117E+02  0.11929563390E+02  0.25500000000E-02 0. -1.
          2   -1    0    0  501    0  0.00000000000E+00 -0.00000000000E+00 -0.12823133619E+04  0.12823133619E+04  0.25500000000E-02 0.  1.
    5000001    1    1    2    0    0  0.55762443353E+02 -0.79025687587E+02 -0.65471892428E+03  0.66628851048E+03  0.77000000000E+02 0.  0.
   -5000001    1    1    2    0    0 -0.55762443353E+02  0.79025687587E+02 -0.61566487454E+03  0.62795441485E+03  0.77000000000E+02 0.  0.
<mgrwt>
<rscale>  0 0.24736563E+03</rscale>
<asrwt>0</asrwt>
<pdfrwt beam="1">  1        2 0.19727887E+00 0.24736563E+03</pdfrwt>
<pdfrwt beam="2">  1       -2 0.18353184E-02 0.24736563E+03</pdfrwt>
<totfact> 0.15666958E+04</totfact>
</mgrwt>
</event>
<event>
 4    1  0.1195463E-003  0.4314896E+03  0.7818608E-02  0.1033390E+00
          2   -1    0    0  501    0  0.00000000000E+00  0.00000000000E+00  0.17310835515E+04  0.17310835515E+04  0.25500000000E-02 0.  1.
         -2   -1    0    0    0  501 -0.00000000000E+00 -0.00000000000E+00 -0.26888256799E+02  0.26888256920E+02  0.25500000000E-02 0. -1.
    5000001    1    1    2    0    0 -0.62020436422E+02  0.14792129510E+03  0.35495305027E+03  0.39704900449E+03  0.77000000000E+02 0.  0.
   -5000001    1    1    2    0    0  0.62020436422E+02 -0.14792129510E+03  0.13492422444E+04  0.13609228039E+04  0.77000000000E+02 0.  0.
<mgrwt>
<rscale>  0 0.43148960E+03</rscale>
<asrwt>0</asrwt>
<pdfrwt beam="1">  1        2 0.26632059E+00 0.43148960E+03</pdfrwt>
<pdfrwt beam="2">  1       -2 0.41366543E-02 0.43148960E+03</pdfrwt>
<totfact> 0.26765261E+03</totfact>
</mgrwt>
</event>
<event>
 4    1  0.1195463E-003  0.2326767E+03  0.7818608E-02  0.1124770E+00
         -2   -1    0    0    0  501 -0.00000000000E+00  0.00000000000E+00  0.96383672326E+02  0.96383672360E+02  0.25500000000E-02 0. -1.
          2   -1    0    0  501    0  0.00000000000E+00 -0.00000000000E+00 -0.14042436568E+03  0.14042436570E+03  0.25500000000E-02 0.  1.
    5000001    1    1    2    0    0  0.45715546882E+02  0.74004431021E+02 -0.15660472421E+02  0.11722123286E+03  0.77000000000E+02 0.  0.
   -5000001    1    1    2    0    0 -0.45715546882E+02 -0.74004431021E+02 -0.28380220932E+02  0.11958680520E+03  0.77000000000E+02 0.  0.
<mgrwt>
<rscale>  0 0.23267674E+03</rscale>
<asrwt>0</asrwt>
<pdfrwt beam="1">  1        2 0.21603749E-01 0.23267674E+03</pdfrwt>
<pdfrwt beam="2">  1       -2 0.14828257E-01 0.23267674E+03</pdfrwt>
<totfact> 0.86918427E+03</totfact>
</mgrwt>
</event>
<event>
 4    1  0.1195463E-003  0.2416571E+03  0.7818608E-02  0.1118694E+00
          2   -1    0    0  501    0  0.00000000000E+00  0.00000000000E+00  0.15461213066E+03  0.15461213068E+03  0.25500000000E-02 0.  1.
         -2   -1    0    0    0  501 -0.00000000000E+00 -0.00000000000E+00 -0.94426843966E+02  0.94426844000E+02  0.25500000000E-02 0. -1.
    5000001    1    1    2    0    0  0.39347384126E+02  0.19465286262E+02  0.11471945100E+03  0.14497126075E+03  0.77000000000E+02 0.  0.
   -5000001    1    1    2    0    0 -0.39347384126E+02 -0.19465286262E+02 -0.54534164301E+02  0.10406771393E+03  0.77000000000E+02 0.  0.
<mgrwt>
<rscale>  0 0.24165708E+03</rscale>
<asrwt>0</asrwt>
<pdfrwt beam="1">  1        2 0.23786482E-01 0.24165708E+03</pdfrwt>
<pdfrwt beam="2">  1       -2 0.14527207E-01 0.24165708E+03</pdfrwt>
<totfact> 0.80813966E+03</totfact>
</mgrwt>
</event>
<event>
 4    1  0.1195463E-003  0.3996073E+03  0.7818608E-02  0.1043916E+00
          2   -1    0    0  501    0  0.00000000000E+00  0.00000000000E+00  0.22624867683E+04  0.22624867683E+04  0.25500000000E-02 0.  1.
         -2   -1    0    0    0  501 -0.00000000000E+00 -0.00000000000E+00 -0.17644960632E+02  0.17644960817E+02  0.25500000000E-02 0. -1.
    5000001    1    1    2    0    0 -0.97510622635E+02 -0.71626382517E+02  0.32862284780E+03  0.35855353337E+03  0.77000000000E+02 0.  0.
   -5000001    1    1    2    0    0  0.97510622635E+02  0.71626382517E+02  0.19162189598E+04  0.19215781957E+04  0.77000000000E+02 0.  0.
<mgrwt>
<rscale>  0 0.39960726E+03</rscale>
<asrwt>0</asrwt>
<pdfrwt beam="1">  1        2 0.34807498E+00 0.39960726E+03</pdfrwt>
<pdfrwt beam="2">  1       -2 0.27146086E-02 0.39960726E+03</pdfrwt>
<totfact> 0.26306183E+03</totfact>
</mgrwt>
</event>
<event>
 4    1  0.1195463E-003  0.2035438E+03  0.7818608E-02  0.1146783E+00
         -2   -1    0    0    0  501 -0.00000000000E+00  0.00000000000E+00  0.52401911701E+02  0.52401911763E+02  0.25500000000E-02 0. -1.
          2   -1    0    0  501    0  0.00000000000E+00 -0.00000000000E+00 -0.19765537779E+03  0.19765537780E+03  0.25500000000E-02 0.  1.
    5000001    1    1    2    0    0 -0.39543045844E+02  0.65397128303E+01 -0.73636194321E+01  0.87118558354E+02  0.77000000000E+02 0.  0.
   -5000001    1    1    2    0    0  0.39543045844E+02 -0.65397128303E+01 -0.13788984665E+03  0.16293873121E+03  0.77000000000E+02 0.  0.
<mgrwt>
<rscale>  0 0.20354380E+03</rscale>
<asrwt>0</asrwt>
<pdfrwt beam="1">  1        2 0.30408519E-01 0.20354380E+03</pdfrwt>
<pdfrwt beam="2">  1       -2 0.80618327E-02 0.20354380E+03</pdfrwt>
<totfact> 0.15613256E+04</totfact>
</mgrwt>
</event>
<event>
 4    1  0.1195463E-003  0.4839603E+03  0.7818608E-02  0.1018052E+00
          2   -1    0    0  501    0  0.00000000000E+00  0.00000000000E+00  0.26764108139E+04  0.26764108139E+04  0.25500000000E-02 0.  1.
         -2   -1    0    0    0  501 -0.00000000000E+00 -0.00000000000E+00 -0.21877952890E+02  0.21877953038E+02  0.25500000000E-02 0. -1.
    5000001    1    1    2    0    0  0.95942086511E+01  0.20473942378E+03  0.75283137277E+03  0.78402446155E+03  0.77000000000E+02 0.  0.
   -5000001    1    1    2    0    0 -0.95942086511E+01 -0.20473942378E+03  0.19017014883E+04  0.19142643054E+04  0.77000000000E+02 0.  0.
<mgrwt>
<rscale>  0 0.48396029E+03</rscale>
<asrwt>0</asrwt>
<pdfrwt beam="1">  1        2 0.41175540E+00 0.48396029E+03</pdfrwt>
<pdfrwt beam="2">  1       -2 0.33658398E-02 0.48396029E+03</pdfrwt>
<totfact> 0.11121032E+03</totfact>
</mgrwt>
</event>
<event>
 4    1  0.1195463E-003  0.2119836E+03  0.7818608E-02  0.1140005E+00
         -2   -1    0    0    0  501 -0.00000000000E+00  0.00000000000E+00  0.39363769679E+02  0.39363769762E+02  0.25500000000E-02 0. -1.
          2   -1    0    0  501    0  0.00000000000E+00 -0.00000000000E+00 -0.28539598455E+03  0.28539598456E+03  0.25500000000E-02 0.  1.
    5000001    1    1    2    0    0 -0.15030369038E+02  0.58599554041E+02 -0.18516039869E+03  0.20945928714E+03  0.77000000000E+02 0.  0.
   -5000001    1    1    2    0    0  0.15030369038E+02 -0.58599554041E+02 -0.60871816184E+02  0.11530046718E+03  0.77000000000E+02 0.  0.
<mgrwt>
<rscale>  0 0.21198360E+03</rscale>
<asrwt>0</asrwt>
<pdfrwt beam="1">  1        2 0.43907073E-01 0.21198360E+03</pdfrwt>
<pdfrwt beam="2">  1       -2 0.60559647E-02 0.21198360E+03</pdfrwt>
<totfact> 0.16375883E+04</totfact>
</mgrwt>
</event>
<event>
 4    1  0.1195463E-003  0.2144680E+03  0.7818608E-02  0.1138076E+00
          2   -1    0    0  501    0  0.00000000000E+00  0.00000000000E+00  0.99217825810E+02  0.99217825843E+02  0.25500000000E-02 0.  1.
         -2   -1    0    0    0  501 -0.00000000000E+00 -0.00000000000E+00 -0.11589784034E+03  0.11589784037E+03  0.25500000000E-02 0. -1.
    5000001    1    1    2    0    0  0.54118841274E+01  0.74429577491E+02 -0.93829771665E+01  0.10763870473E+03  0.77000000000E+02 0.  0.
   -5000001    1    1    2    0    0 -0.54118841274E+01 -0.74429577491E+02 -0.72970373645E+01  0.10747696148E+03  0.77000000000E+02 0.  0.
<mgrwt>
<rscale>  0 0.21446801E+03</rscale>
<asrwt>0</asrwt>
<pdfrwt beam="1">  1        2 0.15264281E-01 0.21446801E+03</pdfrwt>
<pdfrwt beam="2">  1       -2 0.17830437E-01 0.21446801E+03</pdfrwt>
<totfact> 0.95105889E+03</totfact>
</mgrwt>
</event>
<event>
 4    1  0.1195463E-003  0.2757378E+03  0.7818608E-02  0.1098040E+00
         -2   -1    0    0    0  501 -0.00000000000E+00  0.00000000000E+00  0.66913615851E+01  0.66913620710E+01  0.25500000000E-02 0. -1.
          2   -1    0    0  501    0  0.00000000000E+00 -0.00000000000E+00 -0.28406531317E+04  0.28406531317E+04  0.25500000000E-02 0.  1.
    5000001    1    1    2    0    0 -0.79932700218E+02  0.80432747873E+02 -0.12637567742E+04  0.12711683004E+04  0.77000000000E+02 0.  0.
   -5000001    1    1    2    0    0  0.79932700218E+02 -0.80432747873E+02 -0.15702049959E+04  0.15761761934E+04  0.77000000000E+02 0.  0.
<mgrwt>
<rscale>  0 0.27573783E+03</rscale>
<asrwt>0</asrwt>
<pdfrwt beam="1">  1        2 0.43702260E+00 0.27573783E+03</pdfrwt>
<pdfrwt beam="2">  1       -2 0.10294425E-02 0.27573783E+03</pdfrwt>
<totfact> 0.52772699E+03</totfact>
</mgrwt>
</event>
<event>
 4    1  0.1195463E-003  0.2225305E+03  0.7818608E-02  0.1132010E+00
          2   -1    0    0  501    0  0.00000000000E+00  0.00000000000E+00  0.29923851087E+02  0.29923851195E+02  0.25500000000E-02 0.  1.
         -2   -1    0    0    0  501 -0.00000000000E+00 -0.00000000000E+00 -0.41371529504E+03  0.41371529505E+03  0.25500000000E-02 0. -1.
    5000001    1    1    2    0    0 -0.67310799790E+02  0.38800126377E+02 -0.15129446643E+03  0.18669549846E+03  0.77000000000E+02 0.  0.
   -5000001    1    1    2    0    0  0.67310799790E+02 -0.38800126377E+02 -0.23249697752E+03  0.25694364778E+03  0.77000000000E+02 0.  0.
<mgrwt>
<rscale>  0 0.22253049E+03</rscale>
<asrwt>0</asrwt>
<pdfrwt beam="1">  1        2 0.46036697E-02 0.22253049E+03</pdfrwt>
<pdfrwt beam="2">  1       -2 0.63648503E-01 0.22253049E+03</pdfrwt>
<totfact> 0.40367588E+03</totfact>
</mgrwt>
</event>
<event>
 4    1  0.1195463E-003  0.2859894E+03  0.7818608E-02  0.1092462E+00
          2   -1    0    0  501    0  0.00000000000E+00  0.00000000000E+00  0.38304220190E+03  0.38304220191E+03  0.25500000000E-02 0. -1.
         -2   -1    0    0    0  501 -0.00000000000E+00 -0.00000000000E+00 -0.53381797070E+02  0.53381797131E+02  0.25500000000E-02 0.  1.
    5000001    1    1    2    0    0  0.96688548937E+02  0.22794718006E+02  0.26889284201E+03  0.29681751152E+03  0.77000000000E+02 0.  0.
   -5000001    1    1    2    0    0 -0.96688548937E+02 -0.22794718006E+02  0.60767562819E+02  0.13960648751E+03  0.77000000000E+02 0.  0.
<mgrwt>
<rscale>  0 0.28598938E+03</rscale>
<asrwt>0</asrwt>
<pdfrwt beam="1">  1        2 0.58929569E-01 0.28598938E+03</pdfrwt>
<pdfrwt beam="2">  1       -2 0.82125843E-02 0.28598938E+03</pdfrwt>
<totfact> 0.75606496E+03</totfact>
</mgrwt>
</event>
<event>
 4    1  0.1195463E-003  0.2465240E+03  0.7818608E-02  0.1115522E+00
         -2   -1    0    0    0  501 -0.00000000000E+00  0.00000000000E+00  0.13447797334E+03  0.13447797336E+03  0.25500000000E-02 0. -1.
          2   -1    0    0  501    0  0.00000000000E+00 -0.00000000000E+00 -0.11298144094E+03  0.11298144097E+03  0.25500000000E-02 0.  1.
    5000001    1    1    2    0    0  0.44321878529E+02 -0.66783729501E+02 -0.42745790540E+02  0.11908273616E+03  0.77000000000E+02 0.  0.
   -5000001    1    1    2    0    0 -0.44321878529E+02  0.66783729501E+02  0.64242322938E+02  0.12837667817E+03  0.77000000000E+02 0.  0.
<mgrwt>
<rscale>  0 0.24652396E+03</rscale>
<asrwt>0</asrwt>
<pdfrwt beam="1">  1        2 0.17381760E-01 0.24652396E+03</pdfrwt>
<pdfrwt beam="2">  1       -2 0.20688919E-01 0.24652396E+03</pdfrwt>
<totfact> 0.63932692E+03</totfact>
</mgrwt>
</event>
<event>
 4    1  0.1195463E-003  0.1692453E+03  0.7818608E-02  0.1178637E+00
          2   -1    0    0  501    0  0.00000000000E+00  0.00000000000E+00  0.14394147485E+04  0.14394147485E+04  0.25500000000E-02 0.  1.
         -2   -1    0    0    0  501 -0.00000000000E+00 -0.00000000000E+00 -0.49749304337E+01  0.49749310872E+01  0.25500000000E-02 0. -1.
    5000001    1    1    2    0    0 -0.28612171428E+02 -0.16855043057E+02  0.62019881592E+03  0.62584208879E+03  0.77000000000E+02 0.  0.
   -5000001    1    1    2    0    0  0.28612171428E+02  0.16855043057E+02  0.81424100214E+03  0.81854759080E+03  0.77000000000E+02 0.  0.
<mgrwt>
<rscale>  0 0.16924525E+03</rscale>
<asrwt>0</asrwt>
<pdfrwt beam="1">  1        2 0.22144869E+00 0.16924525E+03</pdfrwt>
<pdfrwt beam="2">  1       -2 0.76537303E-03 0.16924525E+03</pdfrwt>
<totfact> 0.44727421E+04</totfact>
</mgrwt>
</event>
<event>
 4    1  0.1195463E-003  0.3366347E+03  0.7818608E-02  0.1068238E+00
          2   -1    0    0  501    0  0.00000000000E+00  0.00000000000E+00  0.10728593822E+04  0.10728593822E+04  0.25500000000E-02 0.  1.
         -2   -1    0    0    0  501 -0.00000000000E+00 -0.00000000000E+00 -0.26406743984E+02  0.26406744107E+02  0.25500000000E-02 0. -1.
    5000001    1    1    2    0    0  0.14408948496E+03  0.40018430659E+02  0.54347969485E+03  0.56891337933E+03  0.77000000000E+02 0.  0.
   -5000001    1    1    2    0    0 -0.14408948496E+03 -0.40018430659E+02  0.50297294337E+03  0.53035274698E+03  0.77000000000E+02 0.  0.
<mgrwt>
<rscale>  0 0.33663466E+03</rscale>
<asrwt>0</asrwt>
<pdfrwt beam="1">  1        2 0.16505527E+00 0.33663466E+03</pdfrwt>
<pdfrwt beam="2">  1       -2 0.40625765E-02 0.33663466E+03</pdfrwt>
<totfact> 0.63886092E+03</totfact>
</mgrwt>
</event>
<event>
 4    1  0.1195463E-003  0.2138197E+03  0.7818608E-02  0.1138576E+00
         -2   -1    0    0    0  501 -0.00000000000E+00  0.00000000000E+00  0.67968446453E+02  0.67968446500E+02  0.25500000000E-02 0. -1.
          2   -1    0    0  501    0  0.00000000000E+00 -0.00000000000E+00 -0.16816203517E+03  0.16816203519E+03  0.25500000000E-02 0.  1.
    5000001    1    1    2    0    0  0.50813639378E+02  0.41488975798E+02 -0.11883437441E+02  0.10185075918E+03  0.77000000000E+02 0.  0.
   -5000001    1    1    2    0    0 -0.50813639378E+02 -0.41488975798E+02 -0.88310151277E+02  0.13427972251E+03  0.77000000000E+02 0.  0.
<mgrwt>
<rscale>  0 0.21381967E+03</rscale>
<asrwt>0</asrwt>
<pdfrwt beam="1">  1        2 0.25871082E-01 0.21381967E+03</pdfrwt>
<pdfrwt beam="2">  1       -2 0.10456684E-01 0.21381967E+03</pdfrwt>
<totfact> 0.12429763E+04</totfact>
</mgrwt>
</event>
<event>
 4    1  0.1195463E-003  0.2642047E+03  0.7818608E-02  0.1104643E+00
          2   -1    0    0  501    0  0.00000000000E+00  0.00000000000E+00  0.16702884286E+03  0.16702884288E+03  0.25500000000E-02 0.  1.
         -2   -1    0    0    0  501 -0.00000000000E+00 -0.00000000000E+00 -0.10447912858E+03  0.10447912861E+03  0.25500000000E-02 0. -1.
    5000001    1    1    2    0    0  0.45986728582E+02 -0.67342590496E+02 -0.40455949882E+02  0.11922871962E+03  0.77000000000E+02 0.  0.
   -5000001    1    1    2    0    0 -0.45986728582E+02  0.67342590496E+02  0.10300566417E+03  0.15227925188E+03  0.77000000000E+02 0.  0.
<mgrwt>
<rscale>  0 0.26420468E+03</rscale>
<asrwt>0</asrwt>
<pdfrwt beam="1">  1        2 0.25696745E-01 0.26420468E+03</pdfrwt>
<pdfrwt beam="2">  1       -2 0.16073712E-01 0.26420468E+03</pdfrwt>
<totfact> 0.62956308E+03</totfact>
</mgrwt>
</event>
<event>
 4    1  0.1195463E-003  0.2915167E+03  0.7818608E-02  0.1089560E+00
         -2   -1    0    0    0  501 -0.00000000000E+00  0.00000000000E+00  0.24159496617E+02  0.24159496752E+02  0.25500000000E-02 0. -1.
          2   -1    0    0  501    0  0.00000000000E+00 -0.00000000000E+00 -0.87938480340E+03  0.87938480341E+03  0.25500000000E-02 0.  1.
    5000001    1    1    2    0    0  0.19431886683E+02 -0.12017518740E+03 -0.49669796603E+03  0.51716297561E+03  0.77000000000E+02 0.  0.
   -5000001    1    1    2    0    0 -0.19431886683E+02  0.12017518740E+03 -0.35852734075E+03  0.38638132454E+03  0.77000000000E+02 0.  0.
<mgrwt>
<rscale>  0 0.29151668E+03</rscale>
<asrwt>0</asrwt>
<pdfrwt beam="1">  1        2 0.13528995E+00 0.29151668E+03</pdfrwt>
<pdfrwt beam="2">  1       -2 0.37168463E-02 0.29151668E+03</pdfrwt>
<totfact> 0.96185152E+03</totfact>
</mgrwt>
</event>
<event>
 4    1  0.1195463E-003  0.2844953E+03  0.7818608E-02  0.1093259E+00
          2   -1    0    0  501    0  0.00000000000E+00  0.00000000000E+00  0.26108507332E+04  0.26108507332E+04  0.25500000000E-02 0.  1.
         -2   -1    0    0    0  501 -0.00000000000E+00 -0.00000000000E+00 -0.77501174067E+01  0.77501178262E+01  0.25500000000E-02 0. -1.
    5000001    1    1    2    0    0 -0.50494843356E+02 -0.10753623362E+03  0.14289667119E+04  0.14359626160E+04  0.77000000000E+02 0.  0.
   -5000001    1    1    2    0    0  0.50494843356E+02  0.10753623362E+03  0.11741339039E+04  0.11826382350E+04  0.77000000000E+02 0.  0.
<mgrwt>
<rscale>  0 0.28449534E+03</rscale>
<asrwt>0</asrwt>
<pdfrwt beam="1">  1        2 0.40166954E+00 0.28449534E+03</pdfrwt>
<pdfrwt beam="2">  1       -2 0.11923252E-02 0.28449534E+03</pdfrwt>
<totfact> 0.57470550E+03</totfact>
</mgrwt>
</event>
<event>
 4    1  0.1195463E-003  0.2157821E+03  0.7818608E-02  0.1137067E+00
          2   -1    0    0  501    0  0.00000000000E+00  0.00000000000E+00  0.14011307933E+04  0.14011307933E+04  0.25500000000E-02 0.  1.
         -2   -1    0    0    0  501 -0.00000000000E+00 -0.00000000000E+00 -0.83079133586E+01  0.83079137500E+01  0.25500000000E-02 0. -1.
    5000001    1    1    2    0    0  0.54998232356E+02  0.51724345329E+02  0.67449343406E+03  0.68305973827E+03  0.77000000000E+02 0.  0.
   -5000001    1    1    2    0    0 -0.54998232356E+02 -0.51724345329E+02  0.71832944589E+03  0.72637896878E+03  0.77000000000E+02 0.  0.
<mgrwt>
<rscale>  0 0.21578205E+03</rscale>
<asrwt>0</asrwt>
<pdfrwt beam="1">  1        2 0.21555853E+00 0.21578205E+03</pdfrwt>
<pdfrwt beam="2">  1       -2 0.12781409E-02 0.21578205E+03</pdfrwt>
<totfact> 0.22732449E+04</totfact>
</mgrwt>
</event>
<event>
 4    1  0.1195463E-003  0.2959922E+03  0.7818608E-02  0.1087261E+00
         -2   -1    0    0    0  501 -0.00000000000E+00  0.00000000000E+00  0.17788817883E+02  0.17788818066E+02  0.25500000000E-02 0. -1.
          2   -1    0    0  501    0  0.00000000000E+00 -0.00000000000E+00 -0.12312707100E+04  0.12312707100E+04  0.25500000000E-02 0.  1.
    5000001    1    1    2    0    0  0.97686931968E+02 -0.67717452651E+02 -0.42545873290E+03  0.44841110989E+03  0.77000000000E+02 0.  0.
   -5000001    1    1    2    0    0 -0.97686931968E+02  0.67717452651E+02 -0.78802315924E+03  0.80064841821E+03  0.77000000000E+02 0.  0.
<mgrwt>
<rscale>  0 0.29599223E+03</rscale>
<asrwt>0</asrwt>
<pdfrwt beam="1">  1        2 0.18942620E+00 0.29599223E+03</pdfrwt>
<pdfrwt beam="2">  1       -2 0.27367422E-02 0.29599223E+03</pdfrwt>
<totfact> 0.93264300E+03</totfact>
</mgrwt>
</event>
<event>
 4    1  0.1195463E-003  0.2165696E+03  0.7818608E-02  0.1136467E+00
         -2   -1    0    0    0  501 -0.00000000000E+00  0.00000000000E+00  0.68490141411E+03  0.68490141412E+03  0.25500000000E-02 0. -1.
          2   -1    0    0  501    0  0.00000000000E+00 -0.00000000000E+00 -0.17120132080E+02  0.17120132270E+02  0.25500000000E-02 0.  1.
    5000001    1    1    2    0    0  0.63443018826E+02  0.39352636149E+02  0.28548872355E+03  0.30496960157E+03  0.77000000000E+02 0.  0.
   -5000001    1    1    2    0    0 -0.63443018826E+02 -0.39352636149E+02  0.38229255848E+03  0.39705194481E+03  0.77000000000E+02 0.  0.
<mgrwt>
<rscale>  0 0.21656964E+03</rscale>
<asrwt>0</asrwt>
<pdfrwt beam="1">  1        2 0.26338664E-02 0.21656964E+03</pdfrwt>
<pdfrwt beam="2">  1       -2 0.10536945E+00 0.21656964E+03</pdfrwt>
<totfact> 0.27994268E+03</totfact>
</mgrwt>
</event>
<event>
 4    1  0.1195463E-003  0.2365633E+03  0.7818608E-02  0.1122104E+00
         -2   -1    0    0    0  501 -0.00000000000E+00  0.00000000000E+00  0.78245053216E+01  0.78245057371E+01  0.25500000000E-02 0. -1.
          2   -1    0    0  501    0  0.00000000000E+00 -0.00000000000E+00 -0.17880422608E+04  0.17880422608E+04  0.25500000000E-02 0.  1.
    5000001    1    1    2    0    0  0.75049474524E+02  0.35611406114E+02 -0.11487714929E+04  0.11543420372E+04  0.77000000000E+02 0.  0.
   -5000001    1    1    2    0    0 -0.75049474524E+02 -0.35611406114E+02 -0.63144626262E+03  0.64152472941E+03  0.77000000000E+02 0.  0.
<mgrwt>
<rscale>  0 0.23656328E+03</rscale>
<asrwt>0</asrwt>
<pdfrwt beam="1">  1        2 0.27508310E+00 0.23656328E+03</pdfrwt>
<pdfrwt beam="2">  1       -2 0.12037715E-02 0.23656328E+03</pdfrwt>
<totfact> 0.15552166E+04</totfact>
</mgrwt>
</event>
<event>
 4    1  0.1195463E-003  0.2081380E+03  0.7818608E-02  0.1143049E+00
         -2   -1    0    0    0  501 -0.00000000000E+00  0.00000000000E+00  0.59547289268E+01  0.59547294728E+01  0.25500000000E-02 0. -1.
          2   -1    0    0  501    0  0.00000000000E+00 -0.00000000000E+00 -0.18187820643E+04  0.18187820643E+04  0.25500000000E-02 0.  1.
    5000001    1    1    2    0    0  0.23071479433E+02 -0.60040104602E+02 -0.66405092218E+03  0.67158747350E+03  0.77000000000E+02 0.  0.
   -5000001    1    1    2    0    0 -0.23071479433E+02  0.60040104602E+02 -0.11487764132E+04  0.11531493202E+04  0.77000000000E+02 0.  0.
<mgrwt>
<rscale>  0 0.20813798E+03</rscale>
<asrwt>0</asrwt>
<pdfrwt beam="1">  1        2 0.27981218E+00 0.20813798E+03</pdfrwt>
<pdfrwt beam="2">  1       -2 0.91611364E-03 0.20813798E+03</pdfrwt>
<totfact> 0.22149784E+04</totfact>
</mgrwt>
</event>
<event>
 4    1  0.1195463E-003  0.1033452E+04  0.7818608E-02  0.9272597E-01
         -2   -1    0    0    0  501 -0.00000000000E+00  0.00000000000E+00  0.14955726179E+03  0.14955726181E+03  0.25500000000E-02 0. -1.
          2   -1    0    0  501    0  0.00000000000E+00 -0.00000000000E+00 -0.17853086352E+04  0.17853086352E+04  0.25500000000E-02 0.  1.
    5000001    1    1    2    0    0  0.26038112862E+03  0.91849552752E+02 -0.16228110943E+04  0.16479318918E+04  0.77000000000E+02 0.  0.
   -5000001    1    1    2    0    0 -0.26038112862E+03 -0.91849552752E+02 -0.12940279112E+02  0.28693400514E+03  0.77000000000E+02 0.  0.
<mgrwt>
<rscale>  0 0.10334522E+04</rscale>
<asrwt>0</asrwt>
<pdfrwt beam="1">  1        2 0.27466285E+00 0.10334522E+04</pdfrwt>
<pdfrwt beam="2">  1       -2 0.23008811E-01 0.10334522E+04</pdfrwt>
<totfact> 0.14615234E+02</totfact>
</mgrwt>
</event>
<event>
 4    1  0.1195463E-003  0.4809505E+03  0.7818608E-02  0.1018874E+00
         -2   -1    0    0    0  501 -0.00000000000E+00  0.00000000000E+00  0.17244976578E+03  0.17244976580E+03  0.25500000000E-02 0. -1.
          2   -1    0    0  501    0  0.00000000000E+00 -0.00000000000E+00 -0.33533449259E+03  0.33533449260E+03  0.25500000000E-02 0.  1.
    5000001    1    1    2    0    0  0.93821426229E+02 -0.16570121901E+03 -0.21347983636E+03  0.29624650974E+03  0.77000000000E+02 0.  0.
   -5000001    1    1    2    0    0 -0.93821426229E+02  0.16570121901E+03  0.50595109549E+02  0.21153774867E+03  0.77000000000E+02 0.  0.
<mgrwt>
<rscale>  0 0.48095054E+03</rscale>
<asrwt>0</asrwt>
<pdfrwt beam="1">  1        2 0.51589922E-01 0.48095054E+03</pdfrwt>
<pdfrwt beam="2">  1       -2 0.26530733E-01 0.48095054E+03</pdfrwt>
<totfact> 0.12457110E+03</totfact>
</mgrwt>
</event>
<event>
 4    1  0.1195463E-003  0.2911456E+03  0.7818608E-02  0.1089753E+00
         -2   -1    0    0    0  501 -0.00000000000E+00  0.00000000000E+00  0.10818926249E+02  0.10818926549E+02  0.25500000000E-02 0. -1.
          2   -1    0    0  501    0  0.00000000000E+00 -0.00000000000E+00 -0.19587373895E+04  0.19587373895E+04  0.25500000000E-02 0.  1.
    5000001    1    1    2    0    0  0.11920633235E+03  0.25974289125E+02 -0.84250122982E+03  0.85476437432E+03  0.77000000000E+02 0.  0.
   -5000001    1    1    2    0    0 -0.11920633235E+03 -0.25974289125E+02 -0.11054172334E+04  0.11147919417E+04  0.77000000000E+02 0.  0.
<mgrwt>
<rscale>  0 0.29114557E+03</rscale>
<asrwt>0</asrwt>
<pdfrwt beam="1">  1        2 0.30134393E+00 0.29114557E+03</pdfrwt>
<pdfrwt beam="2">  1       -2 0.16644518E-02 0.29114557E+03</pdfrwt>
<totfact> 0.79154854E+03</totfact>
</mgrwt>
</event>
<event>
 4    1  0.1195463E-003  0.2370102E+03  0.7818608E-02  0.1121801E+00
         -2   -1    0    0    0  501 -0.00000000000E+00  0.00000000000E+00  0.14967413333E+02  0.14967413550E+02  0.25500000000E-02 0. -1.
          2   -1    0    0  501    0  0.00000000000E+00 -0.00000000000E+00 -0.93826900675E+03  0.93826900676E+03  0.25500000000E-02 0.  1.
    5000001    1    1    2    0    0 -0.44041176368E+02 -0.77823774391E+02 -0.50539463549E+03  0.51898834539E+03  0.77000000000E+02 0.  0.
   -5000001    1    1    2    0    0  0.44041176368E+02  0.77823774391E+02 -0.41790695793E+03  0.43424807491E+03  0.77000000000E+02 0.  0.
<mgrwt>
<rscale>  0 0.23701021E+03</rscale>
<asrwt>0</asrwt>
<pdfrwt beam="1">  1        2 0.14434903E+00 0.23701021E+03</pdfrwt>
<pdfrwt beam="2">  1       -2 0.23026797E-02 0.23701021E+03</pdfrwt>
<totfact> 0.17823062E+04</totfact>
</mgrwt>
</event>
<event>
 4    1  0.1195463E-003  0.2804203E+03  0.7818608E-02  0.1095460E+00
         -2   -1    0    0    0  501 -0.00000000000E+00  0.00000000000E+00  0.87089627561E+02  0.87089627599E+02  0.25500000000E-02 0. -1.
          2   -1    0    0  501    0  0.00000000000E+00 -0.00000000000E+00 -0.22573170438E+03  0.22573170439E+03  0.25500000000E-02 0.  1.
    5000001    1    1    2    0    0 -0.81158170741E+02 -0.36926886479E+02 -0.15412917177E+03  0.19399753920E+03  0.77000000000E+02 0.  0.
   -5000001    1    1    2    0    0  0.81158170741E+02  0.36926886479E+02  0.15487094959E+02  0.11882379279E+03  0.77000000000E+02 0.  0.
<mgrwt>
<rscale>  0 0.28042033E+03</rscale>
<asrwt>0</asrwt>
<pdfrwt beam="1">  1        2 0.34727954E-01 0.28042033E+03</pdfrwt>
<pdfrwt beam="2">  1       -2 0.13398404E-01 0.28042033E+03</pdfrwt>
<totfact> 0.61181555E+03</totfact>
</mgrwt>
</event>
<event>
 4    1  0.1195463E-003  0.2620426E+03  0.7818608E-02  0.1105922E+00
         -2   -1    0    0    0  501 -0.00000000000E+00  0.00000000000E+00  0.15691802032E+03  0.15691802034E+03  0.25500000000E-02 0. -1.
          2   -1    0    0  501    0  0.00000000000E+00 -0.00000000000E+00 -0.10939837191E+03  0.10939837194E+03  0.25500000000E-02 0.  1.
    5000001    1    1    2    0    0  0.94118435202E+02  0.16557827671E+02  0.70389885138E+02  0.14147854053E+03  0.77000000000E+02 0.  0.
   -5000001    1    1    2    0    0 -0.94118435202E+02 -0.16557827671E+02 -0.22870236727E+02  0.12483785175E+03  0.77000000000E+02 0.  0.
<mgrwt>
<rscale>  0 0.26204256E+03</rscale>
<asrwt>0</asrwt>
<pdfrwt beam="1">  1        2 0.16830519E-01 0.26204256E+03</pdfrwt>
<pdfrwt beam="2">  1       -2 0.24141234E-01 0.26204256E+03</pdfrwt>
<totfact> 0.50917103E+03</totfact>
</mgrwt>
</event>
<event>
 4    1  0.1195463E-003  0.1927137E+03  0.7818608E-02  0.1156036E+00
          2   -1    0    0  501    0  0.00000000000E+00  0.00000000000E+00  0.21452676899E+04  0.21452676899E+04  0.25500000000E-02 0.  1.
         -2   -1    0    0    0  501 -0.00000000000E+00 -0.00000000000E+00 -0.43279642543E+01  0.43279650055E+01  0.25500000000E-02 0. -1.
    5000001    1    1    2    0    0 -0.21978443885E+02 -0.52359324356E+02  0.94275777082E+03  0.94760000278E+03  0.77000000000E+02 0.  0.
   -5000001    1    1    2    0    0  0.21978443885E+02  0.52359324356E+02  0.11981819548E+04  0.12019956521E+04  0.77000000000E+02 0.  0.
<mgrwt>
<rscale>  0 0.19271370E+03</rscale>
<asrwt>0</asrwt>
<pdfrwt beam="1">  1        2 0.33004114E+00 0.19271370E+03</pdfrwt>
<pdfrwt beam="2">  1       -2 0.66584079E-03 0.19271370E+03</pdfrwt>
<totfact> 0.23619599E+04</totfact>
</mgrwt>
</event>
<event>
 4    1  0.1195463E-003  0.2141603E+03  0.7818608E-02  0.1138313E+00
         -2   -1    0    0    0  501 -0.00000000000E+00  0.00000000000E+00  0.77103760541E+01  0.77103764757E+01  0.25500000000E-02 0. -1.
          2   -1    0    0  501    0  0.00000000000E+00 -0.00000000000E+00 -0.14871075926E+04  0.14871075926E+04  0.25500000000E-02 0.  1.
    5000001    1    1    2    0    0  0.56110316520E+02 -0.46932618864E+02 -0.83492267723E+03  0.84165070860E+03  0.77000000000E+02 0.  0.
   -5000001    1    1    2    0    0 -0.56110316520E+02  0.46932618864E+02 -0.64447453927E+03  0.65316726043E+03  0.77000000000E+02 0.  0.
<mgrwt>
<rscale>  0 0.21416031E+03</rscale>
<asrwt>0</asrwt>
<pdfrwt beam="1">  1        2 0.22878556E+00 0.21416031E+03</pdfrwt>
<pdfrwt beam="2">  1       -2 0.11862129E-02 0.21416031E+03</pdfrwt>
<totfact> 0.22777304E+04</totfact>
</mgrwt>
</event>
<event>
 4    1  0.1195463E-003  0.3264587E+03  0.7818608E-02  0.1072715E+00
          2   -1    0    0  501    0  0.00000000000E+00  0.00000000000E+00  0.35162393173E+03  0.35162393174E+03  0.25500000000E-02 0.  1.
         -2   -1    0    0    0  501 -0.00000000000E+00 -0.00000000000E+00 -0.75773647036E+02  0.75773647079E+02  0.25500000000E-02 0. -1.
    5000001    1    1    2    0    0  0.18642661879E+02  0.85723394436E+02 -0.11453625483E+02  0.11728697597E+03  0.77000000000E+02 0.  0.
   -5000001    1    1    2    0    0 -0.18642661879E+02 -0.85723394436E+02  0.28730391018E+03  0.31011060285E+03  0.77000000000E+02 0.  0.
<mgrwt>
<rscale>  0 0.32645874E+03</rscale>
<asrwt>0</asrwt>
<pdfrwt beam="1">  1        2 0.54095990E-01 0.32645874E+03</pdfrwt>
<pdfrwt beam="2">  1       -2 0.11657484E-01 0.32645874E+03</pdfrwt>
<totfact> 0.47704373E+03</totfact>
</mgrwt>
</event>
<event>
 4    1  0.1195463E-003  0.2230043E+03  0.7818608E-02  0.1131663E+00
          2   -1    0    0  501    0  0.00000000000E+00  0.00000000000E+00  0.67088612496E+02  0.67088612544E+02  0.25500000000E-02 0.  1.
         -2   -1    0    0    0  501 -0.00000000000E+00 -0.00000000000E+00 -0.18531798310E+03  0.18531798312E+03  0.25500000000E-02 0. -1.
    5000001    1    1    2    0    0  0.39197832296E+02 -0.61929183079E+02 -0.97196442642E+02  0.14404111300E+03  0.77000000000E+02 0.  0.
   -5000001    1    1    2    0    0 -0.39197832296E+02  0.61929183079E+02 -0.21032927966E+02  0.10836548266E+03  0.77000000000E+02 0.  0.
<mgrwt>
<rscale>  0 0.22300427E+03</rscale>
<asrwt>0</asrwt>
<pdfrwt beam="1">  1        2 0.10321325E-01 0.22300427E+03</pdfrwt>
<pdfrwt beam="2">  1       -2 0.28510459E-01 0.22300427E+03</pdfrwt>
<totfact> 0.67708185E+03</totfact>
</mgrwt>
</event>
<event>
 4    1  0.1195463E-003  0.1729442E+03  0.7818608E-02  0.1174812E+00
          2   -1    0    0  501    0  0.00000000000E+00  0.00000000000E+00  0.21154793262E+04  0.21154793262E+04  0.25500000000E-02 0.  1.
         -2   -1    0    0    0  501 -0.00000000000E+00 -0.00000000000E+00 -0.35346227612E+01  0.35346236810E+01  0.25500000000E-02 0. -1.
    5000001    1    1    2    0    0  0.20652837301E+01 -0.28283481113E+02  0.72172099462E+03  0.72637071443E+03  0.77000000000E+02 0.  0.
   -5000001    1    1    2    0    0 -0.20652837301E+01  0.28283481113E+02  0.13902237088E+04  0.13926432355E+04  0.77000000000E+02 0.  0.
<mgrwt>
<rscale>  0 0.17294418E+03</rscale>
<asrwt>0</asrwt>
<pdfrwt beam="1">  1        2 0.32545806E+00 0.17294418E+03</pdfrwt>
<pdfrwt beam="2">  1       -2 0.54378868E-03 0.17294418E+03</pdfrwt>
<totfact> 0.32535079E+04</totfact>
</mgrwt>
</event>
<event>
 4    1  0.1195463E-003  0.3854141E+03  0.7818608E-02  0.1048951E+00
          2   -1    0    0  501    0  0.00000000000E+00  0.00000000000E+00  0.23520665135E+03  0.23520665136E+03  0.25500000000E-02 0.  1.
         -2   -1    0    0    0  501 -0.00000000000E+00 -0.00000000000E+00 -0.15788673445E+03  0.15788673447E+03  0.25500000000E-02 0. -1.
    5000001    1    1    2    0    0  0.86359989816E+02  0.87262367934E+02  0.16821144346E+03  0.22202895850E+03  0.77000000000E+02 0.  0.
   -5000001    1    1    2    0    0 -0.86359989816E+02 -0.87262367934E+02 -0.90891526572E+02  0.17106442734E+03  0.77000000000E+02 0.  0.
<mgrwt>
<rscale>  0 0.38541412E+03</rscale>
<asrwt>0</asrwt>
<pdfrwt beam="1">  1        2 0.36185639E-01 0.38541412E+03</pdfrwt>
<pdfrwt beam="2">  1       -2 0.24290267E-01 0.38541412E+03</pdfrwt>
<totfact> 0.21465757E+03</totfact>
</mgrwt>
</event>
<event>
 4    1  0.1195463E-003  0.3588333E+03  0.7818608E-02  0.1059047E+00
         -2   -1    0    0    0  501 -0.00000000000E+00  0.00000000000E+00  0.15390080249E+02  0.15390080461E+02  0.25500000000E-02 0. -1.
          2   -1    0    0  501    0  0.00000000000E+00 -0.00000000000E+00 -0.20916286589E+04  0.20916286589E+04  0.25500000000E-02 0.  1.
    5000001    1    1    2    0    0 -0.12278210622E+03 -0.97540927417E+02 -0.12781954259E+04  0.12900783794E+04  0.77000000000E+02 0.  0.
   -5000001    1    1    2    0    0  0.12278210622E+03  0.97540927417E+02 -0.79804315277E+03  0.81694036001E+03  0.77000000000E+02 0.  0.
<mgrwt>
<rscale>  0 0.35883329E+03</rscale>
<asrwt>0</asrwt>
<pdfrwt beam="1">  1        2 0.32178880E+00 0.35883329E+03</pdfrwt>
<pdfrwt beam="2">  1       -2 0.23677063E-02 0.35883329E+03</pdfrwt>
<totfact> 0.39946908E+03</totfact>
</mgrwt>
</event>
<event>
 4    1  0.1195463E-003  0.2476117E+03  0.7818608E-02  0.1114824E+00
         -2   -1    0    0    0  501 -0.00000000000E+00  0.00000000000E+00  0.31172091791E+02  0.31172091896E+02  0.25500000000E-02 0. -1.
          2   -1    0    0  501    0  0.00000000000E+00 -0.00000000000E+00 -0.49171820097E+03  0.49171820098E+03  0.25500000000E-02 0.  1.
    5000001    1    1    2    0    0 -0.17577904214E+02 -0.70217638050E+02 -0.94080283729E+02  0.14149063289E+03  0.77000000000E+02 0.  0.
   -5000001    1    1    2    0    0  0.17577904214E+02  0.70217638050E+02 -0.36646582545E+03  0.38139965998E+03  0.77000000000E+02 0.  0.
<mgrwt>
<rscale>  0 0.24761167E+03</rscale>
<asrwt>0</asrwt>
<pdfrwt beam="1">  1        2 0.75648948E-01 0.24761167E+03</pdfrwt>
<pdfrwt beam="2">  1       -2 0.47957068E-02 0.24761167E+03</pdfrwt>
<totfact> 0.13074625E+04</totfact>
</mgrwt>
</event>
<event>
 4    1  0.1195463E-003  0.2808109E+03  0.7818608E-02  0.1095247E+00
         -2   -1    0    0    0  501 -0.00000000000E+00  0.00000000000E+00  0.40435099084E+03  0.40435099085E+03  0.25500000000E-02 0. -1.
          2   -1    0    0  501    0  0.00000000000E+00 -0.00000000000E+00 -0.48753904092E+02  0.48753904159E+02  0.25500000000E-02 0.  1.
    5000001    1    1    2    0    0  0.10462898214E+03 -0.28234671250E+02  0.25068192348E+03  0.28375138295E+03  0.77000000000E+02 0.  0.
   -5000001    1    1    2    0    0 -0.10462898214E+03  0.28234671250E+02  0.10491516327E+03  0.16935351206E+03  0.77000000000E+02 0.  0.
<mgrwt>
<rscale>  0 0.28081089E+03</rscale>
<asrwt>0</asrwt>
<pdfrwt beam="1">  1        2 0.75006006E-02 0.28081089E+03</pdfrwt>
<pdfrwt beam="2">  1       -2 0.62207845E-01 0.28081089E+03</pdfrwt>
<totfact> 0.22612076E+03</totfact>
</mgrwt>
</event>
<event>
 4    1  0.1195463E-003  0.4127873E+03  0.7818608E-02  0.1039440E+00
          2   -1    0    0  501    0  0.00000000000E+00  0.00000000000E+00  0.27226276493E+04  0.27226276493E+04  0.25500000000E-02 0.  1.
         -2   -1    0    0    0  501 -0.00000000000E+00 -0.00000000000E+00 -0.15646035851E+02  0.15646036059E+02  0.25500000000E-02 0. -1.
    5000001    1    1    2    0    0 -0.13006497498E+03 -0.22099103232E+02  0.43277732218E+03  0.45894496257E+03  0.77000000000E+02 0.  0.
   -5000001    1    1    2    0    0  0.13006497498E+03  0.22099103232E+02  0.22742042913E+04  0.22793287228E+04  0.77000000000E+02 0.  0.
<mgrwt>
<rscale>  0 0.41278726E+03</rscale>
<asrwt>0</asrwt>
<pdfrwt beam="1">  1        2 0.41886539E+00 0.41278726E+03</pdfrwt>
<pdfrwt beam="2">  1       -2 0.24070848E-02 0.41278726E+03</pdfrwt>
<totfact> 0.17457705E+03</totfact>
</mgrwt>
</event>
<event>
 4    1  0.1195463E-003  0.3769275E+03  0.7818608E-02  0.1052075E+00
          2   -1    0    0  501    0  0.00000000000E+00  0.00000000000E+00  0.10976785525E+04  0.10976785525E+04  0.25500000000E-02 0.  1.
         -2   -1    0    0    0  501 -0.00000000000E+00 -0.00000000000E+00 -0.32357902842E+02  0.32357902943E+02  0.25500000000E-02 0. -1.
    5000001    1    1    2    0    0 -0.14809894345E+03 -0.76443001272E+02  0.66030515371E+03  0.68535299336E+03  0.77000000000E+02 0.  0.
   -5000001    1    1    2    0    0  0.14809894345E+03  0.76443001272E+02  0.40501549594E+03  0.44468346208E+03  0.77000000000E+02 0.  0.
<mgrwt>
<rscale>  0 0.37692745E+03</rscale>
<asrwt>0</asrwt>
<pdfrwt beam="1">  1        2 0.16887362E+00 0.37692745E+03</pdfrwt>
<pdfrwt beam="2">  1       -2 0.49781391E-02 0.37692745E+03</pdfrwt>
<totfact> 0.45363235E+03</totfact>
</mgrwt>
</event>
<event>
 4    1  0.1195463E-003  0.3687496E+03  0.7818608E-02  0.1055172E+00
          2   -1    0    0  501    0  0.00000000000E+00  0.00000000000E+00  0.79976703236E+03  0.79976703236E+03  0.25500000000E-02 0.  1.
         -2   -1    0    0    0  501 -0.00000000000E+00 -0.00000000000E+00 -0.42504951744E+02  0.42504951821E+02  0.25500000000E-02 0. -1.
    5000001    1    1    2    0    0  0.91793415919E+02 -0.13124597965E+03  0.49084486554E+03  0.52202415692E+03  0.77000000000E+02 0.  0.
   -5000001    1    1    2    0    0 -0.91793415919E+02  0.13124597965E+03  0.26641721508E+03  0.32024782727E+03  0.77000000000E+02 0.  0.
<mgrwt>
<rscale>  0 0.36874956E+03</rscale>
<asrwt>0</asrwt>
<pdfrwt beam="1">  1        2 0.12304109E+00 0.36874956E+03</pdfrwt>
<pdfrwt beam="2">  1       -2 0.65392231E-02 0.36874956E+03</pdfrwt>
<totfact> 0.46196282E+03</totfact>
</mgrwt>
</event>
<event>
 4    1  0.1195463E-003  0.3969404E+03  0.7818608E-02  0.1044844E+00
          2   -1    0    0  501    0  0.00000000000E+00  0.00000000000E+00  0.46775947839E+03  0.46775947840E+03  0.25500000000E-02 0.  1.
         -2   -1    0    0    0  501 -0.00000000000E+00 -0.00000000000E+00 -0.84210857784E+02  0.84210857823E+02  0.25500000000E-02 0. -1.
    5000001    1    1    2    0    0 -0.10779068266E+03  0.79938889307E+02  0.18916923494E+02  0.15587144474E+03  0.77000000000E+02 0.  0.
   -5000001    1    1    2    0    0  0.10779068266E+03 -0.79938889307E+02  0.36463169711E+03  0.39609889148E+03  0.77000000000E+02 0.  0.
<mgrwt>
<rscale>  0 0.39694043E+03</rscale>
<asrwt>0</asrwt>
<pdfrwt beam="1">  1        2 0.71962997E-01 0.39694043E+03</pdfrwt>
<pdfrwt beam="2">  1       -2 0.12955517E-01 0.39694043E+03</pdfrwt>
<totfact> 0.29443225E+03</totfact>
</mgrwt>
</event>
<event>
 4    1  0.1195463E-003  0.3534846E+03  0.7818608E-02  0.1061194E+00
          2   -1    0    0  501    0  0.00000000000E+00  0.00000000000E+00  0.21080513718E+03  0.21080513719E+03  0.25500000000E-02 0.  1.
         -2   -1    0    0    0  501 -0.00000000000E+00 -0.00000000000E+00 -0.14818345311E+03  0.14818345313E+03  0.25500000000E-02 0. -1.
    5000001    1    1    2    0    0 -0.59149168647E+02 -0.92667859969E+02 -0.85470422694E+02  0.15912306426E+03  0.77000000000E+02 0.  0.
   -5000001    1    1    2    0    0  0.59149168647E+02  0.92667859969E+02  0.14809210677E+03  0.19986552606E+03  0.77000000000E+02 0.  0.
<mgrwt>
<rscale>  0 0.35348456E+03</rscale>
<asrwt>0</asrwt>
<pdfrwt beam="1">  1        2 0.32431560E-01 0.35348456E+03</pdfrwt>
<pdfrwt beam="2">  1       -2 0.22797454E-01 0.35348456E+03</pdfrwt>
<totfact> 0.27033540E+03</totfact>
</mgrwt>
</event>
<event>
 4    1  0.1195463E-003  0.3592773E+03  0.7818608E-02  0.1058870E+00
          2   -1    0    0  501    0  0.00000000000E+00  0.00000000000E+00  0.25548164602E+03  0.25548164603E+03  0.25500000000E-02 0.  1.
         -2   -1    0    0    0  501 -0.00000000000E+00 -0.00000000000E+00 -0.12631060988E+03  0.12631060990E+03  0.25500000000E-02 0. -1.
    5000001    1    1    2    0    0  0.60167704694E+02  0.11441645539E+03 -0.39695481535E+02  0.15561493889E+03  0.77000000000E+02 0.  0.
   -5000001    1    1    2    0    0 -0.60167704694E+02 -0.11441645539E+03  0.16886651768E+03  0.22617731704E+03  0.77000000000E+02 0.  0.
<mgrwt>
<rscale>  0 0.35927729E+03</rscale>
<asrwt>0</asrwt>
<pdfrwt beam="1">  1        2 0.39304869E-01 0.35927729E+03</pdfrwt>
<pdfrwt beam="2">  1       -2 0.19432401E-01 0.35927729E+03</pdfrwt>
<totfact> 0.28897836E+03</totfact>
</mgrwt>
</event>
<event>
 4    1  0.1195463E-003  0.1830639E+03  0.7818608E-02  0.1164870E+00
          2   -1    0    0  501    0  0.00000000000E+00  0.00000000000E+00  0.48885537627E+03  0.48885537627E+03  0.25500000000E-02 0.  1.
         -2   -1    0    0    0  501 -0.00000000000E+00 -0.00000000000E+00 -0.17138185280E+02  0.17138185470E+02  0.25500000000E-02 0. -1.
    5000001    1    1    2    0    0  0.46766311177E+02 -0.11563420108E+02  0.26716583212E+03  0.28218324259E+03  0.77000000000E+02 0.  0.
   -5000001    1    1    2    0    0 -0.46766311177E+02  0.11563420108E+02  0.20455135886E+03  0.22381031915E+03  0.77000000000E+02 0.  0.
<mgrwt>
<rscale>  0 0.18306386E+03</rscale>
<asrwt>0</asrwt>
<pdfrwt beam="1">  1        2 0.75208514E-01 0.18306386E+03</pdfrwt>
<pdfrwt beam="2">  1       -2 0.26366441E-02 0.18306386E+03</pdfrwt>
<totfact> 0.31479747E+04</totfact>
</mgrwt>
</event>
<event>
 4    1  0.1195463E-003  0.1896376E+03  0.7818608E-02  0.1158789E+00
          2   -1    0    0  501    0  0.00000000000E+00  0.00000000000E+00  0.40686165504E+03  0.40686165505E+03  0.25500000000E-02 0.  1.
         -2   -1    0    0    0  501 -0.00000000000E+00 -0.00000000000E+00 -0.22097457184E+02  0.22097457332E+02  0.25500000000E-02 0. -1.
    5000001    1    1    2    0    0  0.16565136070E+02  0.52403734233E+02  0.20687527295E+03  0.22747952359E+03  0.77000000000E+02 0.  0.
   -5000001    1    1    2    0    0 -0.16565136070E+02 -0.52403734233E+02  0.17788892490E+03  0.20147958878E+03  0.77000000000E+02 0.  0.
<mgrwt>
<rscale>  0 0.18963763E+03</rscale>
<asrwt>0</asrwt>
<pdfrwt beam="1">  1        2 0.62594100E-01 0.18963763E+03</pdfrwt>
<pdfrwt beam="2">  1       -2 0.33996088E-02 0.18963763E+03</pdfrwt>
<totfact> 0.26489772E+04</totfact>
</mgrwt>
</event>
<event>
 4    1  0.1195463E-003  0.1904089E+03  0.7818608E-02  0.1158093E+00
          2   -1    0    0  501    0  0.00000000000E+00  0.00000000000E+00  0.65744171140E+02  0.65744171190E+02  0.25500000000E-02 0.  1.
         -2   -1    0    0    0  501 -0.00000000000E+00 -0.00000000000E+00 -0.13786607725E+03  0.13786607727E+03  0.25500000000E-02 0. -1.
    5000001    1    1    2    0    0 -0.30073643855E+02  0.36193793664E+02 -0.68503772562E+02  0.11329687379E+03  0.77000000000E+02 0.  0.
   -5000001    1    1    2    0    0  0.30073643855E+02 -0.36193793664E+02 -0.36181335444E+01  0.90313374673E+02  0.77000000000E+02 0.  0.
<mgrwt>
<rscale>  0 0.19040894E+03</rscale>
<asrwt>0</asrwt>
<pdfrwt beam="1">  1        2 0.10114488E-01 0.19040894E+03</pdfrwt>
<pdfrwt beam="2">  1       -2 0.21210166E-01 0.19040894E+03</pdfrwt>
<totfact> 0.11548152E+04</totfact>
</mgrwt>
</event>
<event>
 4    1  0.1195463E-003  0.2363611E+03  0.7818608E-02  0.1122241E+00
          2   -1    0    0  501    0  0.00000000000E+00  0.00000000000E+00  0.15721822493E+03  0.15721822495E+03  0.25500000000E-02 0.  1.
         -2   -1    0    0    0  501 -0.00000000000E+00 -0.00000000000E+00 -0.88836018999E+02  0.88836019036E+02  0.25500000000E-02 0. -1.
    5000001    1    1    2    0    0 -0.29009717811E+02 -0.60480846820E+02  0.96112774164E+02  0.14023609349E+03  0.77000000000E+02 0.  0.
   -5000001    1    1    2    0    0  0.29009717811E+02  0.60480846820E+02 -0.27730568236E+02  0.10581815050E+03  0.77000000000E+02 0.  0.
<mgrwt>
<rscale>  0 0.23636109E+03</rscale>
<asrwt>0</asrwt>
<pdfrwt beam="1">  1        2 0.24187419E-01 0.23636109E+03</pdfrwt>
<pdfrwt beam="2">  1       -2 0.13667080E-01 0.23636109E+03</pdfrwt>
<totfact> 0.87560373E+03</totfact>
</mgrwt>
</event>
<event>
 4    1  0.1195463E-003  0.2602107E+03  0.7818608E-02  0.1107017E+00
          2   -1    0    0  501    0  0.00000000000E+00  0.00000000000E+00  0.40626103797E+03  0.40626103797E+03  0.25500000000E-02 0.  1.
         -2   -1    0    0    0  501 -0.00000000000E+00 -0.00000000000E+00 -0.41666313580E+02  0.41666313658E+02  0.25500000000E-02 0. -1.
    5000001    1    1    2    0    0  0.98028838956E+02  0.26768934899E+02  0.22692688496E+03  0.26029029998E+03  0.77000000000E+02 0.  0.
   -5000001    1    1    2    0    0 -0.98028838956E+02 -0.26768934899E+02  0.13766783942E+03  0.18763705165E+03  0.77000000000E+02 0.  0.
<mgrwt>
<rscale>  0 0.26021068E+03</rscale>
<asrwt>0</asrwt>
<pdfrwt beam="1">  1        2 0.62501695E-01 0.26021068E+03</pdfrwt>
<pdfrwt beam="2">  1       -2 0.64102024E-02 0.26021068E+03</pdfrwt>
<totfact> 0.10380967E+04</totfact>
</mgrwt>
</event>
<event>
 4    1  0.1195463E-003  0.3637160E+03  0.7818608E-02  0.1057122E+00
          2   -1    0    0  501    0  0.00000000000E+00  0.00000000000E+00  0.62864967970E+03  0.62864967970E+03  0.25500000000E-02 0.  1.
         -2   -1    0    0    0  501 -0.00000000000E+00 -0.00000000000E+00 -0.52608531123E+02  0.52608531184E+02  0.25500000000E-02 0. -1.
    5000001    1    1    2    0    0 -0.13579884296E+03  0.70999150145E+02  0.40135372493E+03  0.43645849468E+03  0.77000000000E+02 0.  0.
   -5000001    1    1    2    0    0  0.13579884296E+03 -0.70999150145E+02  0.17468742365E+03  0.24479971620E+03  0.77000000000E+02 0.  0.
<mgrwt>
<rscale>  0 0.36371602E+03</rscale>
<asrwt>0</asrwt>
<pdfrwt beam="1">  1        2 0.96715340E-01 0.36371602E+03</pdfrwt>
<pdfrwt beam="2">  1       -2 0.80936198E-02 0.36371602E+03</pdfrwt>
<totfact> 0.44539793E+03</totfact>
</mgrwt>
</event>
<event>
 4    1  0.1195463E-003  0.3828240E+03  0.7818608E-02  0.1049895E+00
          2   -1    0    0  501    0  0.00000000000E+00  0.00000000000E+00  0.80981387440E+03  0.80981387440E+03  0.25500000000E-02 0.  1.
         -2   -1    0    0    0  501 -0.00000000000E+00 -0.00000000000E+00 -0.45243172265E+02  0.45243172337E+02  0.25500000000E-02 0. -1.
    5000001    1    1    2    0    0  0.17008795258E+03 -0.29852629811E+02  0.31570987184E+03  0.36799838899E+03  0.77000000000E+02 0.  0.
   -5000001    1    1    2    0    0 -0.17008795258E+03  0.29852629811E+02  0.44886083029E+03  0.48705865775E+03  0.77000000000E+02 0.  0.
<mgrwt>
<rscale>  0 0.38282397E+03</rscale>
<asrwt>0</asrwt>
<pdfrwt beam="1">  1        2 0.12458675E+00 0.38282397E+03</pdfrwt>
<pdfrwt beam="2">  1       -2 0.69604880E-02 0.38282397E+03</pdfrwt>
<totfact> 0.41263198E+03</totfact>
</mgrwt>
</event>
<event>
 4    1  0.1195463E-003  0.2837164E+03  0.7818608E-02  0.1093676E+00
          2   -1    0    0  501    0  0.00000000000E+00  0.00000000000E+00  0.54492613149E+03  0.54492613150E+03  0.25500000000E-02 0. -1.
         -2   -1    0    0    0  501 -0.00000000000E+00 -0.00000000000E+00 -0.36929322070E+02  0.36929322158E+02  0.25500000000E-02 0.  1.
    5000001    1    1    2    0    0  0.35499577095E+02 -0.11322439906E+03  0.23202783727E+03  0.27174602442E+03  0.77000000000E+02 0.  0.
   -5000001    1    1    2    0    0 -0.35499577095E+02  0.11322439906E+03  0.27596897215E+03  0.31010942924E+03  0.77000000000E+02 0.  0.
<mgrwt>
<rscale>  0 0.28371643E+03</rscale>
<asrwt>0</asrwt>
<pdfrwt beam="1">  1        2 0.83834776E-01 0.28371643E+03</pdfrwt>
<pdfrwt beam="2">  1       -2 0.56814351E-02 0.28371643E+03</pdfrwt>
<totfact> 0.90506308E+03</totfact>
</mgrwt>
</event>
<event>
 4    1  0.1195463E-003  0.3715989E+03  0.7818608E-02  0.1054083E+00
          2   -1    0    0  501    0  0.00000000000E+00  0.00000000000E+00  0.21980931503E+03  0.21980931505E+03  0.25500000000E-02 0.  1.
         -2   -1    0    0    0  501 -0.00000000000E+00 -0.00000000000E+00 -0.15705177404E+03  0.15705177406E+03  0.25500000000E-02 0. -1.
    5000001    1    1    2    0    0 -0.14104385595E+03  0.89430702661E+02  0.45231673244E+01  0.18395836192E+03  0.77000000000E+02 0.  0.
   -5000001    1    1    2    0    0  0.14104385595E+03 -0.89430702661E+02  0.58234373666E+02  0.19290272718E+03  0.77000000000E+02 0.  0.
<mgrwt>
<rscale>  0 0.37159894E+03</rscale>
<asrwt>0</asrwt>
<pdfrwt beam="1">  1        2 0.33816818E-01 0.37159894E+03</pdfrwt>
<pdfrwt beam="2">  1       -2 0.24161811E-01 0.37159894E+03</pdfrwt>
<totfact> 0.23327280E+03</totfact>
</mgrwt>
</event>
<event>
 4    1  0.1195463E-003  0.2094293E+03  0.7818608E-02  0.1142019E+00
          2   -1    0    0  501    0  0.00000000000E+00  0.00000000000E+00  0.40199682435E+03  0.40199682435E+03  0.25500000000E-02 0.  1.
         -2   -1    0    0    0  501 -0.00000000000E+00 -0.00000000000E+00 -0.27276729461E+02  0.27276729581E+02  0.25500000000E-02 0. -1.
    5000001    1    1    2    0    0 -0.25724301791E+02 -0.50610086938E+02  0.10008298159E+03  0.13845116037E+03  0.77000000000E+02 0.  0.
   -5000001    1    1    2    0    0  0.25724301791E+02  0.50610086938E+02  0.27463711329E+03  0.29082239357E+03  0.77000000000E+02 0.  0.
<mgrwt>
<rscale>  0 0.20942931E+03</rscale>
<asrwt>0</asrwt>
<pdfrwt beam="1">  1        2 0.61845656E-01 0.20942931E+03</pdfrwt>
<pdfrwt beam="2">  1       -2 0.41964205E-02 0.20942931E+03</pdfrwt>
<totfact> 0.19741736E+04</totfact>
</mgrwt>
</event>
<event>
 4    1  0.1195463E-003  0.2716419E+03  0.7818608E-02  0.1100344E+00
         -2   -1    0    0    0  501 -0.00000000000E+00  0.00000000000E+00  0.48485144916E+02  0.48485144983E+02  0.25500000000E-02 0. -1.
          2   -1    0    0  501    0  0.00000000000E+00 -0.00000000000E+00 -0.38047377229E+03  0.38047377230E+03  0.25500000000E-02 0.  1.
    5000001    1    1    2    0    0  0.86319839108E+02  0.62613830662E+02 -0.11251970575E+03  0.17309330027E+03  0.77000000000E+02 0.  0.
   -5000001    1    1    2    0    0 -0.86319839108E+02 -0.62613830662E+02 -0.21946892162E+03  0.25586561702E+03  0.77000000000E+02 0.  0.
<mgrwt>
<rscale>  0 0.27164187E+03</rscale>
<asrwt>0</asrwt>
<pdfrwt beam="1">  1        2 0.58534425E-01 0.27164187E+03</pdfrwt>
<pdfrwt beam="2">  1       -2 0.74592533E-02 0.27164187E+03</pdfrwt>
<totfact> 0.88329104E+03</totfact>
</mgrwt>
</event>
<event>
 4    1  0.1195463E-003  0.2158331E+03  0.7818608E-02  0.1137028E+00
          2   -1    0    0  501    0  0.00000000000E+00  0.00000000000E+00  0.41509953727E+03  0.41509953727E+03  0.25500000000E-02 0.  1.
         -2   -1    0    0    0  501 -0.00000000000E+00 -0.00000000000E+00 -0.28055878344E+02  0.28055878460E+02  0.25500000000E-02 0. -1.
    5000001    1    1    2    0    0 -0.34315942439E+02  0.65706402454E+02  0.22411890627E+03  0.24830062299E+03  0.77000000000E+02 0.  0.
   -5000001    1    1    2    0    0  0.34315942439E+02 -0.65706402454E+02  0.16292475265E+03  0.19485479274E+03  0.77000000000E+02 0.  0.
<mgrwt>
<rscale>  0 0.21583310E+03</rscale>
<asrwt>0</asrwt>
<pdfrwt beam="1">  1        2 0.63861469E-01 0.21583310E+03</pdfrwt>
<pdfrwt beam="2">  1       -2 0.43162889E-02 0.21583310E+03</pdfrwt>
<totfact> 0.18314739E+04</totfact>
</mgrwt>
</event>
<event>
 4    1  0.1195463E-003  0.3199575E+03  0.7818608E-02  0.1075669E+00
         -2   -1    0    0    0  501 -0.00000000000E+00  0.00000000000E+00  0.22604457522E+02  0.22604457666E+02  0.25500000000E-02 0. -1.
          2   -1    0    0  501    0  0.00000000000E+00 -0.00000000000E+00 -0.11322188751E+04  0.11322188751E+04  0.25500000000E-02 0.  1.
    5000001    1    1    2    0    0 -0.11256011250E+03 -0.74064274362E+02 -0.41460552180E+03  0.44269858184E+03  0.77000000000E+02 0.  0.
   -5000001    1    1    2    0    0  0.11256011250E+03  0.74064274362E+02 -0.69500889577E+03  0.71212475091E+03  0.77000000000E+02 0.  0.
<mgrwt>
<rscale>  0 0.31995746E+03</rscale>
<asrwt>0</asrwt>
<pdfrwt beam="1">  1        2 0.17418748E+00 0.31995746E+03</pdfrwt>
<pdfrwt beam="2">  1       -2 0.34776097E-02 0.31995746E+03</pdfrwt>
<totfact> 0.74430157E+03</totfact>
</mgrwt>
</event>
<event>
 4    1  0.1195463E-003  0.1821267E+03  0.7818608E-02  0.1165761E+00
          2   -1    0    0  501    0  0.00000000000E+00  0.00000000000E+00  0.12793046520E+03  0.12793046522E+03  0.25500000000E-02 0.  1.
         -2   -1    0    0    0  501 -0.00000000000E+00 -0.00000000000E+00 -0.64820631020E+02  0.64820631070E+02  0.25500000000E-02 0. -1.
    5000001    1    1    2    0    0  0.38471544599E+02  0.18311775957E+02  0.67764756647E+01  0.88262684669E+02  0.77000000000E+02 0.  0.
   -5000001    1    1    2    0    0 -0.38471544599E+02 -0.18311775957E+02  0.56333358514E+02  0.10448841163E+03  0.77000000000E+02 0.  0.
<mgrwt>
<rscale>  0 0.18212670E+03</rscale>
<asrwt>0</asrwt>
<pdfrwt beam="1">  1        2 0.19681610E-01 0.18212670E+03</pdfrwt>
<pdfrwt beam="2">  1       -2 0.99724048E-02 0.18212670E+03</pdfrwt>
<totfact> 0.18010862E+04</totfact>
</mgrwt>
</event>
<event>
 4    1  0.1195463E-003  0.4941948E+03  0.7818608E-02  0.1015305E+00
          2   -1    0    0  501    0  0.00000000000E+00  0.00000000000E+00  0.20858740750E+03  0.20858740752E+03  0.25500000000E-02 0.  1.
         -2   -1    0    0    0  501 -0.00000000000E+00 -0.00000000000E+00 -0.29271723993E+03  0.29271723994E+03  0.25500000000E-02 0. -1.
    5000001    1    1    2    0    0  0.17764835294E+03 -0.14498124406E+03  0.91554021502E+01  0.24205643933E+03  0.77000000000E+02 0.  0.
   -5000001    1    1    2    0    0 -0.17764835294E+03  0.14498124406E+03 -0.93285234576E+02  0.25924820813E+03  0.77000000000E+02 0.  0.
<mgrwt>
<rscale>  0 0.49419482E+03</rscale>
<asrwt>0</asrwt>
<pdfrwt beam="1">  1        2 0.32090370E-01 0.49419482E+03</pdfrwt>
<pdfrwt beam="2">  1       -2 0.45033422E-01 0.49419482E+03</pdfrwt>
<totfact> 0.77457309E+02</totfact>
</mgrwt>
</event>
<event>
 4    1  0.1195463E-003  0.3173351E+03  0.7818608E-02  0.1076882E+00
         -2   -1    0    0    0  501 -0.00000000000E+00  0.00000000000E+00  0.70643657313E+01  0.70643661916E+01  0.25500000000E-02 0. -1.
          2   -1    0    0  501    0  0.00000000000E+00 -0.00000000000E+00 -0.35637154526E+04  0.35637154526E+04  0.25500000000E-02 0.  1.
    5000001    1    1    2    0    0 -0.10879858851E+03  0.64194502526E+02 -0.24235817856E+04  0.24280930250E+04  0.77000000000E+02 0.  0.
   -5000001    1    1    2    0    0  0.10879858851E+03 -0.64194502526E+02 -0.11330693013E+04  0.11426867937E+04  0.77000000000E+02 0.  0.
<mgrwt>
<rscale>  0 0.31733509E+03</rscale>
<asrwt>0</asrwt>
<pdfrwt beam="1">  1        2 0.54826248E+00 0.31733509E+03</pdfrwt>
<pdfrwt beam="2">  1       -2 0.10868284E-02 0.31733509E+03</pdfrwt>
<totfact> 0.17249229E+03</totfact>
</mgrwt>
</event>
<event>
 4    1  0.1195463E-003  0.2035886E+03  0.7818608E-02  0.1146746E+00
          2   -1    0    0  501    0  0.00000000000E+00  0.00000000000E+00  0.27948482525E+03  0.27948482526E+03  0.25500000000E-02 0.  1.
         -2   -1    0    0    0  501 -0.00000000000E+00 -0.00000000000E+00 -0.37075638985E+02  0.37075639073E+02  0.25500000000E-02 0. -1.
    5000001    1    1    2    0    0  0.10079955605E+02  0.65791469520E+02  0.11853145709E+03  0.15623325282E+03  0.77000000000E+02 0.  0.
   -5000001    1    1    2    0    0 -0.10079955605E+02 -0.65791469520E+02  0.12387772917E+03  0.16032721151E+03  0.77000000000E+02 0.  0.
<mgrwt>
<rscale>  0 0.20358859E+03</rscale>
<asrwt>0</asrwt>
<pdfrwt beam="1">  1        2 0.42997666E-01 0.20358859E+03</pdfrwt>
<pdfrwt beam="2">  1       -2 0.57039444E-02 0.20358859E+03</pdfrwt>
<totfact> 0.18298247E+04</totfact>
</mgrwt>
</event>
<event>
 4    1  0.1195463E-003  0.2265949E+03  0.7818608E-02  0.1129060E+00
         -2   -1    0    0    0  501 -0.00000000000E+00  0.00000000000E+00  0.11080440800E+02  0.11080441093E+02  0.25500000000E-02 0. -1.
          2   -1    0    0  501    0  0.00000000000E+00 -0.00000000000E+00 -0.11584655852E+04  0.11584655852E+04  0.25500000000E-02 0.  1.
    5000001    1    1    2    0    0 -0.17786709151E+02 -0.61066737065E+02 -0.84980539528E+03  0.85565397401E+03  0.77000000000E+02 0.  0.
   -5000001    1    1    2    0    0  0.17786709151E+02  0.61066737065E+02 -0.29757974907E+03  0.31389205224E+03  0.77000000000E+02 0.  0.
<mgrwt>
<rscale>  0 0.22659488E+03</rscale>
<asrwt>0</asrwt>
<pdfrwt beam="1">  1        2 0.17822538E+00 0.22659488E+03</pdfrwt>
<pdfrwt beam="2">  1       -2 0.17046841E-02 0.22659488E+03</pdfrwt>
<totfact> 0.20413330E+04</totfact>
</mgrwt>
</event>
<event>
 4    1  0.1195463E-003  0.2094452E+03  0.7818608E-02  0.1142006E+00
         -2   -1    0    0    0  501 -0.00000000000E+00  0.00000000000E+00  0.36459575890E+03  0.36459575891E+03  0.25500000000E-02 0. -1.
          2   -1    0    0  501    0  0.00000000000E+00 -0.00000000000E+00 -0.30079395699E+02  0.30079395807E+02  0.25500000000E-02 0.  1.
    5000001    1    1    2    0    0  0.55088994664E+02 -0.44383563246E+02  0.15641321044E+03  0.18814566277E+03  0.77000000000E+02 0.  0.
   -5000001    1    1    2    0    0 -0.55088994664E+02  0.44383563246E+02  0.17810315276E+03  0.20652949195E+03  0.77000000000E+02 0.  0.
<mgrwt>
<rscale>  0 0.20944517E+03</rscale>
<asrwt>0</asrwt>
<pdfrwt beam="1">  1        2 0.46275998E-02 0.20944517E+03</pdfrwt>
<pdfrwt beam="2">  1       -2 0.56091650E-01 0.20944517E+03</pdfrwt>
<totfact> 0.51865513E+03</totfact>
</mgrwt>
</event>
<event>
 4    1  0.1195463E-003  0.2298559E+03  0.7818608E-02  0.1126741E+00
          2   -1    0    0  501    0  0.00000000000E+00  0.00000000000E+00  0.14357155843E+04  0.14357155843E+04  0.25500000000E-02 0.  1.
         -2   -1    0    0    0  501 -0.00000000000E+00 -0.00000000000E+00 -0.91998931472E+01  0.91998935006E+01  0.25500000000E-02 0. -1.
    5000001    1    1    2    0    0 -0.30851175218E+02 -0.26327402939E+02  0.24139622585E+03  0.25660488111E+03  0.77000000000E+02 0.  0.
   -5000001    1    1    2    0    0  0.30851175218E+02  0.26327402939E+02  0.11851194653E+04  0.11883105967E+04  0.77000000000E+02 0.  0.
<mgrwt>
<rscale>  0 0.22985587E+03</rscale>
<asrwt>0</asrwt>
<pdfrwt beam="1">  1        2 0.22087924E+00 0.22985587E+03</pdfrwt>
<pdfrwt beam="2">  1       -2 0.14153687E-02 0.22985587E+03</pdfrwt>
<totfact> 0.18834318E+04</totfact>
</mgrwt>
</event>
<event>
 4    1  0.1195463E-003  0.3072058E+03  0.7818608E-02  0.1081693E+00
         -2   -1    0    0    0  501 -0.00000000000E+00  0.00000000000E+00  0.71913153645E+02  0.71913153690E+02  0.25500000000E-02 0. -1.
          2   -1    0    0  501    0  0.00000000000E+00 -0.00000000000E+00 -0.32808820719E+03  0.32808820720E+03  0.25500000000E-02 0.  1.
    5000001    1    1    2    0    0  0.12690627680E+03  0.25679774139E+02 -0.89021215151E+02  0.17498122939E+03  0.77000000000E+02 0.  0.
   -5000001    1    1    2    0    0 -0.12690627680E+03 -0.25679774139E+02 -0.16715383840E+03  0.22502013150E+03  0.77000000000E+02 0.  0.
<mgrwt>
<rscale>  0 0.30720584E+03</rscale>
<asrwt>0</asrwt>
<pdfrwt beam="1">  1        2 0.50475108E-01 0.30720584E+03</pdfrwt>
<pdfrwt beam="2">  1       -2 0.11063562E-01 0.30720584E+03</pdfrwt>
<totfact> 0.55853320E+03</totfact>
</mgrwt>
</event>
<event>
 4    1  0.1195463E-003  0.3087855E+03  0.7818608E-02  0.1080929E+00
         -2   -1    0    0    0  501 -0.00000000000E+00  0.00000000000E+00  0.13739643186E+03  0.13739643188E+03  0.25500000000E-02 0. -1.
          2   -1    0    0  501    0  0.00000000000E+00 -0.00000000000E+00 -0.17349160092E+03  0.17349160094E+03  0.25500000000E-02 0.  1.
    5000001    1    1    2    0    0 -0.99752138551E+00 -0.13296841135E+03 -0.28940745770E+01  0.15368464183E+03  0.77000000000E+02 0.  0.
   -5000001    1    1    2    0    0  0.99752138551E+00  0.13296841135E+03 -0.33201094487E+02  0.15720339100E+03  0.77000000000E+02 0.  0.
<mgrwt>
<rscale>  0 0.30878554E+03</rscale>
<asrwt>0</asrwt>
<pdfrwt beam="1">  1        2 0.26691016E-01 0.30878554E+03</pdfrwt>
<pdfrwt beam="2">  1       -2 0.21137913E-01 0.30878554E+03</pdfrwt>
<totfact> 0.38131319E+03</totfact>
</mgrwt>
</event>
<event>
 4    1  0.1195463E-003  0.2529696E+03  0.7818608E-02  0.1111442E+00
         -2   -1    0    0    0  501 -0.00000000000E+00  0.00000000000E+00  0.14352687535E+02  0.14352687761E+02  0.25500000000E-02 0. -1.
          2   -1    0    0  501    0  0.00000000000E+00 -0.00000000000E+00 -0.11146629101E+04  0.11146629101E+04  0.25500000000E-02 0.  1.
    5000001    1    1    2    0    0 -0.48825453732E+00 -0.10020104376E+03 -0.52615361202E+03  0.54111654106E+03  0.77000000000E+02 0.  0.
   -5000001    1    1    2    0    0  0.48825453732E+00  0.10020104376E+03 -0.57415661055E+03  0.58789905681E+03  0.77000000000E+02 0.  0.
<mgrwt>
<rscale>  0 0.25296963E+03</rscale>
<asrwt>0</asrwt>
<pdfrwt beam="1">  1        2 0.17148653E+00 0.25296963E+03</pdfrwt>
<pdfrwt beam="2">  1       -2 0.22081067E-02 0.25296963E+03</pdfrwt>
<totfact> 0.14875933E+04</totfact>
</mgrwt>
</event>
<event>
 4    1  0.1195463E-003  0.3062065E+03  0.7818608E-02  0.1082179E+00
          2   -1    0    0  501    0  0.00000000000E+00  0.00000000000E+00  0.66769770260E+02  0.66769770309E+02  0.25500000000E-02 0.  1.
         -2   -1    0    0    0  501 -0.00000000000E+00 -0.00000000000E+00 -0.35106608857E+03  0.35106608858E+03  0.25500000000E-02 0. -1.
    5000001    1    1    2    0    0  0.11026024537E+03  0.72137753507E+02 -0.15888414116E+03  0.22030512364E+03  0.77000000000E+02 0.  0.
   -5000001    1    1    2    0    0 -0.11026024537E+03 -0.72137753507E+02 -0.12541217715E+03  0.19753073525E+03  0.77000000000E+02 0.  0.
<mgrwt>
<rscale>  0 0.30620648E+03</rscale>
<asrwt>0</asrwt>
<pdfrwt beam="1">  1        2 0.10272273E-01 0.30620648E+03</pdfrwt>
<pdfrwt beam="2">  1       -2 0.54010166E-01 0.30620648E+03</pdfrwt>
<totfact> 0.20383068E+03</totfact>
</mgrwt>
</event>
<event>
 4    1  0.1195463E-003  0.5899448E+03  0.7818608E-02  0.9926490E-01
          2   -1    0    0  501    0  0.00000000000E+00  0.00000000000E+00  0.29777201504E+03  0.29777201505E+03  0.25500000000E-02 0.  1.
         -2   -1    0    0    0  501 -0.00000000000E+00 -0.00000000000E+00 -0.29219909386E+03  0.29219909387E+03  0.25500000000E-02 0. -1.
    5000001    1    1    2    0    0 -0.11763229074E+03  0.21538121285E+03  0.14719958735E+03  0.29634969409E+03  0.77000000000E+02 0.  0.
   -5000001    1    1    2    0    0  0.11763229074E+03 -0.21538121285E+03 -0.14162666617E+03  0.29362141482E+03  0.77000000000E+02 0.  0.
<mgrwt>
<rscale>  0 0.58994479E+03</rscale>
<asrwt>0</asrwt>
<pdfrwt beam="1">  1        2 0.45811079E-01 0.58994479E+03</pdfrwt>
<pdfrwt beam="2">  1       -2 0.44953707E-01 0.58994479E+03</pdfrwt>
<totfact> 0.52372780E+02</totfact>
</mgrwt>
</event>
<event>
 4    1  0.1195463E-003  0.2123009E+03  0.7818608E-02  0.1139757E+00
          2   -1    0    0  501    0  0.00000000000E+00  0.00000000000E+00  0.26796666639E+04  0.26796666639E+04  0.25500000000E-02 0.  1.
         -2   -1    0    0    0  501 -0.00000000000E+00 -0.00000000000E+00 -0.42049677443E+01  0.42049685175E+01  0.25500000000E-02 0. -1.
    5000001    1    1    2    0    0  0.11381234873E+02 -0.38916208257E+02  0.56928744666E+03  0.57590033921E+03  0.77000000000E+02 0.  0.
   -5000001    1    1    2    0    0 -0.11381234873E+02  0.38916208257E+02  0.21061742495E+04  0.21079712932E+04  0.77000000000E+02 0.  0.
<mgrwt>
<rscale>  0 0.21230085E+03</rscale>
<asrwt>0</asrwt>
<pdfrwt beam="1">  1        2 0.41225709E+00 0.21230085E+03</pdfrwt>
<pdfrwt beam="2">  1       -2 0.64691711E-03 0.21230085E+03</pdfrwt>
<totfact> 0.12735981E+04</totfact>
</mgrwt>
</event>
<event>
 4    1  0.1195463E-003  0.5124878E+03  0.7818608E-02  0.1010570E+00
          2   -1    0    0  501    0  0.00000000000E+00  0.00000000000E+00  0.21022665515E+03  0.21022665517E+03  0.25500000000E-02 0.  1.
         -2   -1    0    0    0  501 -0.00000000000E+00 -0.00000000000E+00 -0.31233404416E+03  0.31233404417E+03  0.25500000000E-02 0. -1.
    5000001    1    1    2    0    0  0.11775920422E+03  0.14359226861E+03 -0.21306646207E+03  0.29293734320E+03  0.77000000000E+02 0.  0.
   -5000001    1    1    2    0    0 -0.11775920422E+03 -0.14359226861E+03  0.11095907307E+03  0.22962335613E+03  0.77000000000E+02 0.  0.
<mgrwt>
<rscale>  0 0.51248782E+03</rscale>
<asrwt>0</asrwt>
<pdfrwt beam="1">  1        2 0.32342562E-01 0.51248782E+03</pdfrwt>
<pdfrwt beam="2">  1       -2 0.48051391E-01 0.51248782E+03</pdfrwt>
<totfact> 0.67470437E+02</totfact>
</mgrwt>
</event>
<event>
 4    1  0.1195463E-003  0.3792008E+03  0.7818608E-02  0.1051230E+00
          2   -1    0    0  501    0  0.00000000000E+00  0.00000000000E+00  0.12910554632E+03  0.12910554634E+03  0.25500000000E-02 0.  1.
         -2   -1    0    0    0  501 -0.00000000000E+00 -0.00000000000E+00 -0.27844123461E+03  0.27844123462E+03  0.25500000000E-02 0. -1.
    5000001    1    1    2    0    0 -0.29468992015E+02  0.17015369996E+03 -0.59521670950E+02  0.19822344062E+03  0.77000000000E+02 0.  0.
   -5000001    1    1    2    0    0  0.29468992015E+02 -0.17015369996E+03 -0.89814017347E+02  0.20932334034E+03  0.77000000000E+02 0.  0.
<mgrwt>
<rscale>  0 0.37920078E+03</rscale>
<asrwt>0</asrwt>
<pdfrwt beam="1">  1        2 0.19862392E-01 0.37920078E+03</pdfrwt>
<pdfrwt beam="2">  1       -2 0.42837113E-01 0.37920078E+03</pdfrwt>
<totfact> 0.14697837E+03</totfact>
</mgrwt>
</event>
<event>
 4    1  0.1195463E-003  0.4927149E+03  0.7818608E-02  0.1015698E+00
         -2   -1    0    0    0  501 -0.00000000000E+00  0.00000000000E+00  0.37824406543E+02  0.37824406629E+02  0.25500000000E-02 0. -1.
          2   -1    0    0  501    0  0.00000000000E+00 -0.00000000000E+00 -0.16045725699E+04  0.16045725699E+04  0.25500000000E-02 0.  1.
    5000001    1    1    2    0    0 -0.21951675676E+03 -0.74656821776E+02 -0.88887682502E+03  0.92184177471E+03  0.77000000000E+02 0.  0.
   -5000001    1    1    2    0    0  0.21951675676E+03  0.74656821776E+02 -0.67787133836E+03  0.72055520184E+03  0.77000000000E+02 0.  0.
<mgrwt>
<rscale>  0 0.49271495E+03</rscale>
<asrwt>0</asrwt>
<pdfrwt beam="1">  1        2 0.24685727E+00 0.49271495E+03</pdfrwt>
<pdfrwt beam="2">  1       -2 0.58191407E-02 0.49271495E+03</pdfrwt>
<totfact> 0.18469538E+03</totfact>
</mgrwt>
</event>
<event>
 4    1  0.1195463E-003  0.4197128E+03  0.7818608E-02  0.1037160E+00
         -2   -1    0    0    0  501 -0.00000000000E+00  0.00000000000E+00  0.30833447244E+03  0.30833447245E+03  0.25500000000E-02 0. -1.
          2   -1    0    0  501    0  0.00000000000E+00 -0.00000000000E+00 -0.14283096844E+03  0.14283096846E+03  0.25500000000E-02 0.  1.
    5000001    1    1    2    0    0  0.41241159245E+02 -0.17907813601E+03  0.11928893159E+02  0.19960238101E+03  0.77000000000E+02 0.  0.
   -5000001    1    1    2    0    0 -0.41241159245E+02  0.17907813601E+03  0.15357461084E+03  0.25156305990E+03  0.77000000000E+02 0.  0.
<mgrwt>
<rscale>  0 0.41971281E+03</rscale>
<asrwt>0</asrwt>
<pdfrwt beam="1">  1        2 0.21973995E-01 0.41971281E+03</pdfrwt>
<pdfrwt beam="2">  1       -2 0.47436073E-01 0.41971281E+03</pdfrwt>
<totfact> 0.10710383E+03</totfact>
</mgrwt>
</event>
<event>
 4    1  0.1195463E-003  0.2593863E+03  0.7818608E-02  0.1107512E+00
          2   -1    0    0  501    0  0.00000000000E+00  0.00000000000E+00  0.26660008472E+03  0.26660008473E+03  0.25500000000E-02 0.  1.
         -2   -1    0    0    0  501 -0.00000000000E+00 -0.00000000000E+00 -0.63091941256E+02  0.63091941307E+02  0.25500000000E-02 0. -1.
    5000001    1    1    2    0    0 -0.42213590703E+02 -0.95394610241E+02  0.10560892507E+03  0.16722548836E+03  0.77000000000E+02 0.  0.
   -5000001    1    1    2    0    0  0.42213590703E+02  0.95394610241E+02  0.97899218396E+02  0.16246653768E+03  0.77000000000E+02 0.  0.
<mgrwt>
<rscale>  0 0.25938633E+03</rscale>
<asrwt>0</asrwt>
<pdfrwt beam="1">  1        2 0.41015398E-01 0.25938633E+03</pdfrwt>
<pdfrwt beam="2">  1       -2 0.97064524E-02 0.25938633E+03</pdfrwt>
<totfact> 0.85541892E+03</totfact>
</mgrwt>
</event>
<event>
 4    1  0.1195463E-003  0.4335995E+03  0.7818608E-02  0.1032729E+00
          2   -1    0    0  501    0  0.00000000000E+00  0.00000000000E+00  0.24420926942E+04  0.24420926942E+04  0.25500000000E-02 0.  1.
         -2   -1    0    0    0  501 -0.00000000000E+00 -0.00000000000E+00 -0.19246661350E+02  0.19246661519E+02  0.25500000000E-02 0. -1.
    5000001    1    1    2    0    0  0.15605130405E+03  0.10457332173E+03  0.16431952957E+04  0.16556893938E+04  0.77000000000E+02 0.  0.
   -5000001    1    1    2    0    0 -0.15605130405E+03 -0.10457332173E+03  0.77965073720E+03  0.80564996192E+03  0.77000000000E+02 0.  0.
<mgrwt>
<rscale>  0 0.43359950E+03</rscale>
<asrwt>0</asrwt>
<pdfrwt beam="1">  1        2 0.37570620E+00 0.43359950E+03</pdfrwt>
<pdfrwt beam="2">  1       -2 0.29610278E-02 0.43359950E+03</pdfrwt>
<totfact> 0.18366137E+03</totfact>
</mgrwt>
</event>
<event>
 4    1  0.1195463E-003  0.2815233E+03  0.7818608E-02  0.1094860E+00
         -2   -1    0    0    0  501 -0.00000000000E+00  0.00000000000E+00  0.10806259135E+03  0.10806259138E+03  0.25500000000E-02 0. -1.
          2   -1    0    0  501    0  0.00000000000E+00 -0.00000000000E+00 -0.18335520996E+03  0.18335520998E+03  0.25500000000E-02 0.  1.
    5000001    1    1    2    0    0  0.35702983551E+02  0.93480594687E+02 -0.10205466488E+03  0.16234986677E+03  0.77000000000E+02 0.  0.
   -5000001    1    1    2    0    0 -0.35702983551E+02 -0.93480594687E+02  0.26762046263E+02  0.12906793458E+03  0.77000000000E+02 0.  0.
<mgrwt>
<rscale>  0 0.28152328E+03</rscale>
<asrwt>0</asrwt>
<pdfrwt beam="1">  1        2 0.28208494E-01 0.28152328E+03</pdfrwt>
<pdfrwt beam="2">  1       -2 0.16625014E-01 0.28152328E+03</pdfrwt>
<totfact> 0.53791775E+03</totfact>
</mgrwt>
</event>
<event>
 4    1  0.1195463E-003  0.2639412E+03  0.7818608E-02  0.1104798E+00
         -2   -1    0    0    0  501 -0.00000000000E+00  0.00000000000E+00  0.51311812954E+02  0.51311813017E+02  0.25500000000E-02 0. -1.
          2   -1    0    0  501    0  0.00000000000E+00 -0.00000000000E+00 -0.33941967552E+03  0.33941967552E+03  0.25500000000E-02 0.  1.
    5000001    1    1    2    0    0  0.72149971422E+02  0.79020064811E+02 -0.15311327108E+03  0.20204569483E+03  0.77000000000E+02 0.  0.
   -5000001    1    1    2    0    0 -0.72149971422E+02 -0.79020064811E+02 -0.13499459148E+03  0.18868579371E+03  0.77000000000E+02 0.  0.
<mgrwt>
<rscale>  0 0.26394120E+03</rscale>
<asrwt>0</asrwt>
<pdfrwt beam="1">  1        2 0.52218410E-01 0.26394120E+03</pdfrwt>
<pdfrwt beam="2">  1       -2 0.78941253E-02 0.26394120E+03</pdfrwt>
<totfact> 0.91374255E+03</totfact>
</mgrwt>
</event>
<event>
 4    1  0.1195463E-003  0.1984441E+03  0.7818608E-02  0.1151058E+00
          2   -1    0    0  501    0  0.00000000000E+00  0.00000000000E+00  0.33782591800E+04  0.33782591800E+04  0.25500000000E-02 0.  1.
         -2   -1    0    0    0  501 -0.00000000000E+00 -0.00000000000E+00 -0.29142276100E+01  0.29142287257E+01  0.25500000000E-02 0. -1.
    5000001    1    1    2    0    0 -0.21925248147E+02  0.58106955337E+02  0.15569274256E+04  0.15600670317E+04  0.77000000000E+02 0.  0.
   -5000001    1    1    2    0    0  0.21925248147E+02 -0.58106955337E+02  0.18184175268E+04  0.18211063770E+04  0.77000000000E+02 0.  0.
<mgrwt>
<rscale>  0 0.19844413E+03</rscale>
<asrwt>0</asrwt>
<pdfrwt beam="1">  1        2 0.51973256E+00 0.19844413E+03</pdfrwt>
<pdfrwt beam="2">  1       -2 0.44834247E-03 0.19844413E+03</pdfrwt>
<totfact> 0.82964983E+03</totfact>
</mgrwt>
</event>
<event>
 4    1  0.1195463E-003  0.4795079E+03  0.7818608E-02  0.1019270E+00
         -2   -1    0    0    0  501 -0.00000000000E+00  0.00000000000E+00  0.29574385738E+02  0.29574385848E+02  0.25500000000E-02 0. -1.
          2   -1    0    0  501    0  0.00000000000E+00 -0.00000000000E+00 -0.19436400706E+04  0.19436400706E+04  0.25500000000E-02 0.  1.
    5000001    1    1    2    0    0 -0.57093421014E+02 -0.19520134585E+03 -0.54163905733E+03  0.58366522303E+03  0.77000000000E+02 0.  0.
   -5000001    1    1    2    0    0  0.57093421014E+02  0.19520134585E+03 -0.13724266275E+04  0.13895492334E+04  0.77000000000E+02 0.  0.
<mgrwt>
<rscale>  0 0.47950792E+03</rscale>
<asrwt>0</asrwt>
<pdfrwt beam="1">  1        2 0.29902145E+00 0.47950792E+03</pdfrwt>
<pdfrwt beam="2">  1       -2 0.45499070E-02 0.47950792E+03</pdfrwt>
<totfact> 0.17761799E+03</totfact>
</mgrwt>
</event>
<event>
 4    1  0.1195463E-003  0.2790181E+03  0.7818608E-02  0.1096226E+00
         -2   -1    0    0    0  501 -0.00000000000E+00  0.00000000000E+00  0.89514044664E+02  0.89514044700E+02  0.25500000000E-02 0. -1.
          2   -1    0    0  501    0  0.00000000000E+00 -0.00000000000E+00 -0.21742703311E+03  0.21742703312E+03  0.25500000000E-02 0.  1.
    5000001    1    1    2    0    0  0.11632823978E+03 -0.12161845534E+01 -0.63751616691E+02  0.15338515934E+03  0.77000000000E+02 0.  0.
   -5000001    1    1    2    0    0 -0.11632823978E+03  0.12161845534E+01 -0.64161371752E+02  0.15355591848E+03  0.77000000000E+02 0.  0.
<mgrwt>
<rscale>  0 0.27901809E+03</rscale>
<asrwt>0</asrwt>
<pdfrwt beam="1">  1        2 0.33450313E-01 0.27901809E+03</pdfrwt>
<pdfrwt beam="2">  1       -2 0.13771392E-01 0.27901809E+03</pdfrwt>
<totfact> 0.60918796E+03</totfact>
</mgrwt>
</event>
<event>
 4    1  0.1195463E-003  0.4107806E+03  0.7818608E-02  0.1040109E+00
         -2   -1    0    0    0  501 -0.00000000000E+00  0.00000000000E+00  0.48727484252E+02  0.48727484319E+02  0.25500000000E-02 0. -1.
          2   -1    0    0  501    0  0.00000000000E+00 -0.00000000000E+00 -0.86573685036E+03  0.86573685037E+03  0.25500000000E-02 0.  1.
    5000001    1    1    2    0    0  0.13901019395E+03 -0.99010543118E+02 -0.59647053957E+03  0.62516639885E+03  0.77000000000E+02 0.  0.
   -5000001    1    1    2    0    0 -0.13901019395E+03  0.99010543118E+02 -0.22053882654E+03  0.28929793584E+03  0.77000000000E+02 0.  0.
<mgrwt>
<rscale>  0 0.41078062E+03</rscale>
<asrwt>0</asrwt>
<pdfrwt beam="1">  1        2 0.13319027E+00 0.41078062E+03</pdfrwt>
<pdfrwt beam="2">  1       -2 0.74965367E-02 0.41078062E+03</pdfrwt>
<totfact> 0.33663912E+03</totfact>
</mgrwt>
</event>
<event>
 4    1  0.1195463E-003  0.2111451E+03  0.7818608E-02  0.1140662E+00
         -2   -1    0    0    0  501 -0.00000000000E+00  0.00000000000E+00  0.78001294749E+02  0.78001294790E+02  0.25500000000E-02 0. -1.
          2   -1    0    0  501    0  0.00000000000E+00 -0.00000000000E+00 -0.14288943072E+03  0.14288943074E+03  0.25500000000E-02 0.  1.
    5000001    1    1    2    0    0  0.27201649078E+02 -0.54886928501E+02 -0.72473125795E+02  0.12220416767E+03  0.77000000000E+02 0.  0.
   -5000001    1    1    2    0    0 -0.27201649078E+02  0.54886928501E+02  0.75849898237E+01  0.98686557866E+02  0.77000000000E+02 0.  0.
<mgrwt>
<rscale>  0 0.21114507E+03</rscale>
<asrwt>0</asrwt>
<pdfrwt beam="1">  1        2 0.21982989E-01 0.21114507E+03</pdfrwt>
<pdfrwt beam="2">  1       -2 0.12000199E-01 0.21114507E+03</pdfrwt>
<totfact> 0.11956822E+04</totfact>
</mgrwt>
</event>
<event>
 4    1  0.1195463E-003  0.2404884E+03  0.7818608E-02  0.1119468E+00
         -2   -1    0    0    0  501 -0.00000000000E+00  0.00000000000E+00  0.17233500550E+02  0.17233500739E+02  0.25500000000E-02 0. -1.
          2   -1    0    0  501    0  0.00000000000E+00 -0.00000000000E+00 -0.83898606447E+03  0.83898606448E+03  0.25500000000E-02 0.  1.
    5000001    1    1    2    0    0 -0.79724598493E+02  0.17972565009E+02 -0.25771384951E+03  0.28111288289E+03  0.77000000000E+02 0.  0.
   -5000001    1    1    2    0    0  0.79724598493E+02 -0.17972565009E+02 -0.56403871442E+03  0.57510668233E+03  0.77000000000E+02 0.  0.
<mgrwt>
<rscale>  0 0.24048839E+03</rscale>
<asrwt>0</asrwt>
<pdfrwt beam="1">  1        2 0.12907475E+00 0.24048839E+03</pdfrwt>
<pdfrwt beam="2">  1       -2 0.26513084E-02 0.24048839E+03</pdfrwt>
<totfact> 0.16799097E+04</totfact>
</mgrwt>
</event>
<event>
 4    1  0.1195463E-003  0.2627800E+03  0.7818608E-02  0.1105484E+00
         -2   -1    0    0    0  501 -0.00000000000E+00  0.00000000000E+00  0.17519952496E+02  0.17519952682E+02  0.25500000000E-02 0. -1.
          2   -1    0    0  501    0  0.00000000000E+00 -0.00000000000E+00 -0.98535240798E+03  0.98535240799E+03  0.25500000000E-02 0.  1.
    5000001    1    1    2    0    0  0.80803569856E+02  0.66366475295E+02 -0.56030151459E+03  0.57515259992E+03  0.77000000000E+02 0.  0.
   -5000001    1    1    2    0    0 -0.80803569856E+02 -0.66366475295E+02 -0.40753094090E+03  0.42771976075E+03  0.77000000000E+02 0.  0.
<mgrwt>
<rscale>  0 0.26277996E+03</rscale>
<asrwt>0</asrwt>
<pdfrwt beam="1">  1        2 0.15159264E+00 0.26277996E+03</pdfrwt>
<pdfrwt beam="2">  1       -2 0.26953781E-02 0.26277996E+03</pdfrwt>
<totfact> 0.13260025E+04</totfact>
</mgrwt>
</event>
<event>
 4    1  0.1195463E-003  0.1821406E+03  0.7818608E-02  0.1165747E+00
         -2   -1    0    0    0  501 -0.00000000000E+00  0.00000000000E+00  0.50560913740E+01  0.50560920171E+01  0.25500000000E-02 0. -1.
          2   -1    0    0  501    0  0.00000000000E+00 -0.00000000000E+00 -0.16403575489E+04  0.16403575489E+04  0.25500000000E-02 0.  1.
    5000001    1    1    2    0    0 -0.19833615580E+02  0.36797236739E+02 -0.59318610945E+03  0.59962168855E+03  0.77000000000E+02 0.  0.
   -5000001    1    1    2    0    0  0.19833615580E+02 -0.36797236739E+02 -0.10421153481E+04  0.10457919524E+04  0.77000000000E+02 0.  0.
<mgrwt>
<rscale>  0 0.18214059E+03</rscale>
<asrwt>0</asrwt>
<pdfrwt beam="1">  1        2 0.25236228E+00 0.18214059E+03</pdfrwt>
<pdfrwt beam="2">  1       -2 0.77786157E-03 0.18214059E+03</pdfrwt>
<totfact> 0.34455401E+04</totfact>
</mgrwt>
</event>
<event>
 4    1  0.1195463E-003  0.3364143E+03  0.7818608E-02  0.1068333E+00
          2   -1    0    0  501    0  0.00000000000E+00  0.00000000000E+00  0.17710686547E+04  0.17710686547E+04  0.25500000000E-02 0.  1.
         -2   -1    0    0    0  501 -0.00000000000E+00 -0.00000000000E+00 -0.15975463092E+02  0.15975463295E+02  0.25500000000E-02 0. -1.
    5000001    1    1    2    0    0  0.44381772176E+02  0.14011131399E+03  0.73074595159E+03  0.74934609345E+03  0.77000000000E+02 0.  0.
   -5000001    1    1    2    0    0 -0.44381772176E+02 -0.14011131399E+03  0.10243472400E+04  0.10376980245E+04  0.77000000000E+02 0.  0.
<mgrwt>
<rscale>  0 0.33641428E+03</rscale>
<asrwt>0</asrwt>
<pdfrwt beam="1">  1        2 0.27247196E+00 0.33641428E+03</pdfrwt>
<pdfrwt beam="2">  1       -2 0.24577648E-02 0.33641428E+03</pdfrwt>
<totfact> 0.55919980E+03</totfact>
</mgrwt>
</event>
<event>
 4    1  0.1195463E-003  0.5152572E+03  0.7818608E-02  0.1009872E+00
          2   -1    0    0  501    0  0.00000000000E+00  0.00000000000E+00  0.43735425565E+03  0.43735425566E+03  0.25500000000E-02 0.  1.
         -2   -1    0    0    0  501 -0.00000000000E+00 -0.00000000000E+00 -0.15175911582E+03  0.15175911584E+03  0.25500000000E-02 0. -1.
    5000001    1    1    2    0    0 -0.15068936752E+03  0.10927223903E+03  0.32642992635E+03  0.38357946311E+03  0.77000000000E+02 0.  0.
   -5000001    1    1    2    0    0  0.15068936752E+03 -0.10927223903E+03 -0.40834786515E+02  0.20553390839E+03  0.77000000000E+02 0.  0.
<mgrwt>
<rscale>  0 0.51525720E+03</rscale>
<asrwt>0</asrwt>
<pdfrwt beam="1">  1        2 0.67285270E-01 0.51525720E+03</pdfrwt>
<pdfrwt beam="2">  1       -2 0.23347556E-01 0.51525720E+03</pdfrwt>
<totfact> 0.11660585E+03</totfact>
</mgrwt>
</event>
<event>
 4    1  0.1195463E-003  0.3498528E+03  0.7818608E-02  0.1062675E+00
          2   -1    0    0  501    0  0.00000000000E+00  0.00000000000E+00  0.24862276286E+04  0.24862276286E+04  0.25500000000E-02 0.  1.
         -2   -1    0    0    0  501 -0.00000000000E+00 -0.00000000000E+00 -0.12307502465E+02  0.12307502729E+02  0.25500000000E-02 0. -1.
    5000001    1    1    2    0    0 -0.41099157643E+02 -0.10640952568E+03  0.46585348525E+03  0.48575775612E+03  0.77000000000E+02 0.  0.
   -5000001    1    1    2    0    0  0.41099157643E+02  0.10640952568E+03  0.20080666409E+04  0.20127773753E+04  0.77000000000E+02 0.  0.
<mgrwt>
<rscale>  0 0.34985284E+03</rscale>
<asrwt>0</asrwt>
<pdfrwt beam="1">  1        2 0.38249643E+00 0.34985284E+03</pdfrwt>
<pdfrwt beam="2">  1       -2 0.18934626E-02 0.34985284E+03</pdfrwt>
<totfact> 0.34049259E+03</totfact>
</mgrwt>
</event>
<event>
 4    1  0.1195463E-003  0.5677301E+03  0.7818608E-02  0.9974714E-01
          2   -1    0    0  501    0  0.00000000000E+00  0.00000000000E+00  0.20281590090E+04  0.20281590090E+04  0.25500000000E-02 0.  1.
         -2   -1    0    0    0  501 -0.00000000000E+00 -0.00000000000E+00 -0.39730305703E+02  0.39730305785E+02  0.25500000000E-02 0. -1.
    5000001    1    1    2    0    0 -0.22455378964E+03  0.13999637431E+03  0.12419762606E+04  0.12721860796E+04  0.77000000000E+02 0.  0.
   -5000001    1    1    2    0    0  0.22455378964E+03 -0.13999637431E+03  0.74645244270E+03  0.79570323518E+03  0.77000000000E+02 0.  0.
<mgrwt>
<rscale>  0 0.56773014E+03</rscale>
<asrwt>0</asrwt>
<pdfrwt beam="1">  1        2 0.31202449E+00 0.56773014E+03</pdfrwt>
<pdfrwt beam="2">  1       -2 0.61123541E-02 0.56773014E+03</pdfrwt>
<totfact> 0.10064585E+03</totfact>
</mgrwt>
</event>
<event>
 4    1  0.1195463E-003  0.4209026E+03  0.7818608E-02  0.1036773E+00
         -2   -1    0    0    0  501 -0.00000000000E+00  0.00000000000E+00  0.63476427586E+02  0.63476427637E+02  0.25500000000E-02 0. -1.
          2   -1    0    0  501    0  0.00000000000E+00 -0.00000000000E+00 -0.69773528398E+03  0.69773528398E+03  0.25500000000E-02 0.  1.
    5000001    1    1    2    0    0 -0.82414510974E+02 -0.15533024529E+03 -0.47313591091E+03  0.51059399420E+03  0.77000000000E+02 0.  0.
   -5000001    1    1    2    0    0  0.82414510974E+02  0.15533024529E+03 -0.16112294548E+03  0.25061771742E+03  0.77000000000E+02 0.  0.
<mgrwt>
<rscale>  0 0.42090257E+03</rscale>
<asrwt>0</asrwt>
<pdfrwt beam="1">  1        2 0.10734388E+00 0.42090257E+03</pdfrwt>
<pdfrwt beam="2">  1       -2 0.97656048E-02 0.42090257E+03</pdfrwt>
<totfact> 0.29180664E+03</totfact>
</mgrwt>
</event>
<event>
 4    1  0.1195463E-003  0.1921973E+03  0.7818608E-02  0.1156494E+00
         -2   -1    0    0    0  501 -0.00000000000E+00  0.00000000000E+00  0.18569058119E+03  0.18569058121E+03  0.25500000000E-02 0. -1.
          2   -1    0    0  501    0  0.00000000000E+00 -0.00000000000E+00 -0.49733006729E+02  0.49733006795E+02  0.25500000000E-02 0.  1.
    5000001    1    1    2    0    0 -0.48665785548E+02 -0.23305826450E+02  0.43651816085E+02  0.10366292142E+03  0.77000000000E+02 0.  0.
   -5000001    1    1    2    0    0  0.48665785548E+02  0.23305826450E+02  0.92305758380E+02  0.13176066659E+03  0.77000000000E+02 0.  0.
<mgrwt>
<rscale>  0 0.19219730E+03</rscale>
<asrwt>0</asrwt>
<pdfrwt beam="1">  1        2 0.76512319E-02 0.19219730E+03</pdfrwt>
<pdfrwt beam="2">  1       -2 0.28567781E-01 0.19219730E+03</pdfrwt>
<totfact> 0.97250713E+03</totfact>
</mgrwt>
</event>
<event>
 4    1  0.1195463E-003  0.2609760E+03  0.7818608E-02  0.1106558E+00
          2   -1    0    0  501    0  0.00000000000E+00  0.00000000000E+00  0.96857429756E+02  0.96857429790E+02  0.25500000000E-02 0.  1.
         -2   -1    0    0    0  501 -0.00000000000E+00 -0.00000000000E+00 -0.17579568306E+03  0.17579568308E+03  0.25500000000E-02 0. -1.
    5000001    1    1    2    0    0 -0.61543359536E+02  0.69527847275E+02  0.12521049281E+02  0.12127441331E+03  0.77000000000E+02 0.  0.
   -5000001    1    1    2    0    0  0.61543359536E+02 -0.69527847275E+02 -0.91459302585E+02  0.15137869956E+03  0.77000000000E+02 0.  0.
<mgrwt>
<rscale>  0 0.26097600E+03</rscale>
<asrwt>0</asrwt>
<pdfrwt beam="1">  1        2 0.14901143E-01 0.26097600E+03</pdfrwt>
<pdfrwt beam="2">  1       -2 0.27045490E-01 0.26097600E+03</pdfrwt>
<totfact> 0.48056771E+03</totfact>
</mgrwt>
</event>
<event>
 4    1  0.1195463E-003  0.3232228E+03  0.7818608E-02  0.1074176E+00
          2   -1    0    0  501    0  0.00000000000E+00  0.00000000000E+00  0.14180159920E+04  0.14180159920E+04  0.25500000000E-02 0.  1.
         -2   -1    0    0    0  501 -0.00000000000E+00 -0.00000000000E+00 -0.18418870050E+02  0.18418870226E+02  0.25500000000E-02 0. -1.
    5000001    1    1    2    0    0  0.84336832321E+02  0.16290295852E+02  0.12028106309E+04  0.12083296275E+04  0.77000000000E+02 0.  0.
   -5000001    1    1    2    0    0 -0.84336832321E+02 -0.16290295852E+02  0.19678649105E+03  0.22810523467E+03  0.77000000000E+02 0.  0.
<mgrwt>
<rscale>  0 0.32322285E+03</rscale>
<asrwt>0</asrwt>
<pdfrwt beam="1">  1        2 0.21815636E+00 0.32322285E+03</pdfrwt>
<pdfrwt beam="2">  1       -2 0.28336716E-02 0.32322285E+03</pdfrwt>
<totfact> 0.69876655E+03</totfact>
</mgrwt>
</event>
<event>
 4    1  0.1195463E-003  0.4250085E+03  0.7818608E-02  0.1035448E+00
          2   -1    0    0  501    0  0.00000000000E+00  0.00000000000E+00  0.24479120574E+04  0.24479120574E+04  0.25500000000E-02 0. -1.
         -2   -1    0    0    0  501 -0.00000000000E+00 -0.00000000000E+00 -0.18447580831E+02  0.18447581007E+02  0.25500000000E-02 0.  1.
    5000001    1    1    2    0    0 -0.15404933222E+03 -0.85720694275E+02  0.69085100441E+03  0.71713551333E+03  0.77000000000E+02 0.  0.
   -5000001    1    1    2    0    0  0.15404933222E+03  0.85720694275E+02  0.17386134721E+04  0.17492241250E+04  0.77000000000E+02 0.  0.
<mgrwt>
<rscale>  0 0.42500850E+03</rscale>
<asrwt>0</asrwt>
<pdfrwt beam="1">  1        2 0.37660145E+00 0.42500850E+03</pdfrwt>
<pdfrwt beam="2">  1       -2 0.28380924E-02 0.42500850E+03</pdfrwt>
<totfact> 0.19445053E+03</totfact>
</mgrwt>
</event>
<event>
 4    1  0.1195463E-003  0.2170828E+03  0.7818608E-02  0.1136077E+00
         -2   -1    0    0    0  501 -0.00000000000E+00  0.00000000000E+00  0.29987145021E+03  0.29987145022E+03  0.25500000000E-02 0. -1.
          2   -1    0    0  501    0  0.00000000000E+00 -0.00000000000E+00 -0.39287624858E+02  0.39287624941E+02  0.25500000000E-02 0.  1.
    5000001    1    1    2    0    0 -0.52952978043E+02 -0.34363501784E+02  0.19780579187E+03  0.22145202514E+03  0.77000000000E+02 0.  0.
   -5000001    1    1    2    0    0  0.52952978043E+02  0.34363501784E+02  0.62778033482E+02  0.11770705003E+03  0.77000000000E+02 0.  0.
<mgrwt>
<rscale>  0 0.21708281E+03</rscale>
<asrwt>0</asrwt>
<pdfrwt beam="1">  1        2 0.60442500E-02 0.21708281E+03</pdfrwt>
<pdfrwt beam="2">  1       -2 0.46134069E-01 0.21708281E+03</pdfrwt>
<totfact> 0.54091072E+03</totfact>
</mgrwt>
</event>
<event>
 4    1  0.1195463E-003  0.4137854E+03  0.7818608E-02  0.1039108E+00
         -2   -1    0    0    0  501 -0.00000000000E+00  0.00000000000E+00  0.29330199372E+02  0.29330199483E+02  0.25500000000E-02 0. -1.
          2   -1    0    0  501    0  0.00000000000E+00 -0.00000000000E+00 -0.14594035532E+04  0.14594035532E+04  0.25500000000E-02 0.  1.
    5000001    1    1    2    0    0 -0.16265136815E+03 -0.88272685013E+02 -0.53059472929E+03  0.56719247283E+03  0.77000000000E+02 0.  0.
   -5000001    1    1    2    0    0  0.16265136815E+03  0.88272685013E+02 -0.89947862451E+03  0.92154127983E+03  0.77000000000E+02 0.  0.
<mgrwt>
<rscale>  0 0.41378544E+03</rscale>
<asrwt>0</asrwt>
<pdfrwt beam="1">  1        2 0.22452357E+00 0.41378544E+03</pdfrwt>
<pdfrwt beam="2">  1       -2 0.45123395E-02 0.41378544E+03</pdfrwt>
<totfact> 0.32873528E+03</totfact>
</mgrwt>
</event>
<event>
 4    1  0.1195463E-003  0.2436462E+03  0.7818608E-02  0.1117387E+00
         -2   -1    0    0    0  501 -0.00000000000E+00  0.00000000000E+00  0.84391409301E+02  0.84391409339E+02  0.25500000000E-02 0. -1.
          2   -1    0    0  501    0  0.00000000000E+00 -0.00000000000E+00 -0.17585753757E+03  0.17585753759E+03  0.25500000000E-02 0.  1.
    5000001    1    1    2    0    0 -0.84005252694E+02  0.29475966360E+02 -0.79275989940E+02  0.14191334558E+03  0.77000000000E+02 0.  0.
   -5000001    1    1    2    0    0  0.84005252694E+02 -0.29475966360E+02 -0.12190138326E+02  0.11833560134E+03  0.77000000000E+02 0.  0.
<mgrwt>
<rscale>  0 0.24364618E+03</rscale>
<asrwt>0</asrwt>
<pdfrwt beam="1">  1        2 0.27055006E-01 0.24364618E+03</pdfrwt>
<pdfrwt beam="2">  1       -2 0.12983294E-01 0.24364618E+03</pdfrwt>
<totfact> 0.84162485E+03</totfact>
</mgrwt>
</event>
<event>
 4    1  0.1195463E-003  0.5330561E+03  0.7818608E-02  0.1005494E+00
         -2   -1    0    0    0  501 -0.00000000000E+00  0.00000000000E+00  0.11299010629E+04  0.11299010629E+04  0.25500000000E-02 0. -1.
          2   -1    0    0  501    0  0.00000000000E+00 -0.00000000000E+00 -0.62870273216E+02  0.62870273268E+02  0.25500000000E-02 0.  1.
    5000001    1    1    2    0    0  0.25132898396E+03  0.16661485002E+02  0.62480123646E+03  0.67804826402E+03  0.77000000000E+02 0.  0.
   -5000001    1    1    2    0    0 -0.25132898396E+03 -0.16661485002E+02  0.44222955322E+03  0.51472307215E+03  0.77000000000E+02 0.  0.
<mgrwt>
<rscale>  0 0.53305605E+03</rscale>
<asrwt>0</asrwt>
<pdfrwt beam="1">  1        2 0.96723502E-02 0.53305605E+03</pdfrwt>
<pdfrwt beam="2">  1       -2 0.17383092E+00 0.53305605E+03</pdfrwt>
<totfact> 0.14192586E+02</totfact>
</mgrwt>
</event>
<event>
 4    1  0.1195463E-003  0.1689086E+03  0.7818608E-02  0.1178991E+00
          2   -1    0    0  501    0  0.00000000000E+00  0.00000000000E+00  0.41448349648E+04  0.41448349648E+04  0.25500000000E-02 0.  1.
         -2   -1    0    0    0  501 -0.00000000000E+00 -0.00000000000E+00 -0.17208231215E+01  0.17208250108E+01  0.25500000000E-02 0. -1.
    5000001    1    1    2    0    0 -0.53426298081E+01 -0.25681827701E+02  0.26288984169E+04  0.26301566468E+04  0.77000000000E+02 0.  0.
   -5000001    1    1    2    0    0  0.53426298081E+01  0.25681827701E+02  0.15142157248E+04  0.15163991431E+04  0.77000000000E+02 0.  0.
<mgrwt>
<rscale>  0 0.16890864E+03</rscale>
<asrwt>0</asrwt>
<pdfrwt beam="1">  1        2 0.63767131E+00 0.16890864E+03</pdfrwt>
<pdfrwt beam="2">  1       -2 0.26474034E-03 0.16890864E+03</pdfrwt>
<totfact> 0.50440579E+03</totfact>
</mgrwt>
</event>
<event>
 4    1  0.1195463E-003  0.1795388E+03  0.7818608E-02  0.1168250E+00
         -2   -1    0    0    0  501 -0.00000000000E+00  0.00000000000E+00  0.14181992451E+02  0.14181992680E+02  0.25500000000E-02 0. -1.
          2   -1    0    0  501    0  0.00000000000E+00 -0.00000000000E+00 -0.56822353422E+03  0.56822353423E+03  0.25500000000E-02 0.  1.
    5000001    1    1    2    0    0 -0.44995198867E+02  0.83378124680E+01 -0.25770529512E+03  0.27282797909E+03  0.77000000000E+02 0.  0.
   -5000001    1    1    2    0    0  0.44995198867E+02 -0.83378124680E+01 -0.29633624664E+03  0.30957754782E+03  0.77000000000E+02 0.  0.
<mgrwt>
<rscale>  0 0.17953876E+03</rscale>
<asrwt>0</asrwt>
<pdfrwt beam="1">  1        2 0.87418987E-01 0.17953876E+03</pdfrwt>
<pdfrwt beam="2">  1       -2 0.21818455E-02 0.17953876E+03</pdfrwt>
<totfact> 0.35068890E+04</totfact>
</mgrwt>
</event>
<event>
 4    1  0.1195463E-003  0.4691768E+03  0.7818608E-02  0.1022153E+00
          2   -1    0    0  501    0  0.00000000000E+00  0.00000000000E+00  0.70016835014E+03  0.70016835014E+03  0.25500000000E-02 0.  1.
         -2   -1    0    0    0  501 -0.00000000000E+00 -0.00000000000E+00 -0.78597826790E+02  0.78597826831E+02  0.25500000000E-02 0. -1.
    5000001    1    1    2    0    0 -0.21462184406E+03 -0.58484542077E+01  0.21978074953E+03  0.31674803587E+03  0.77000000000E+02 0.  0.
   -5000001    1    1    2    0    0  0.21462184406E+03  0.58484542077E+01  0.40178977382E+03  0.46201814111E+03  0.77000000000E+02 0.  0.
<mgrwt>
<rscale>  0 0.46917677E+03</rscale>
<asrwt>0</asrwt>
<pdfrwt beam="1">  1        2 0.10771821E+00 0.46917677E+03</pdfrwt>
<pdfrwt beam="2">  1       -2 0.12091973E-01 0.46917677E+03</pdfrwt>
<totfact> 0.20560546E+03</totfact>
</mgrwt>
</event>
<event>
 4    1  0.1195463E-003  0.2661266E+03  0.7818608E-02  0.1103517E+00
          2   -1    0    0  501    0  0.00000000000E+00  0.00000000000E+00  0.99510281823E+03  0.99510281823E+03  0.25500000000E-02 0.  1.
         -2   -1    0    0    0  501 -0.00000000000E+00 -0.00000000000E+00 -0.17792970619E+02  0.17792970802E+02  0.25500000000E-02 0. -1.
    5000001    1    1    2    0    0 -0.12667771509E+02  0.95655739313E+02  0.67767295912E+03  0.68882518278E+03  0.77000000000E+02 0.  0.
   -5000001    1    1    2    0    0  0.12667771509E+02 -0.95655739313E+02  0.29963688849E+03  0.32407060626E+03  0.77000000000E+02 0.  0.
<mgrwt>
<rscale>  0 0.26612655E+03</rscale>
<asrwt>0</asrwt>
<pdfrwt beam="1">  1        2 0.15309277E+00 0.26612655E+03</pdfrwt>
<pdfrwt beam="2">  1       -2 0.27373796E-02 0.26612655E+03</pdfrwt>
<totfact> 0.12787684E+04</totfact>
</mgrwt>
</event>
<event>
 4    1  0.1195463E-003  0.3335535E+03  0.7818608E-02  0.1069575E+00
          2   -1    0    0  501    0  0.00000000000E+00  0.00000000000E+00  0.10247278657E+04  0.10247278657E+04  0.25500000000E-02 0.  1.
         -2   -1    0    0    0  501 -0.00000000000E+00 -0.00000000000E+00 -0.27143289279E+02  0.27143289399E+02  0.25500000000E-02 0. -1.
    5000001    1    1    2    0    0  0.13138269024E+03  0.11668844035E+02  0.71005322087E+03  0.72629343221E+03  0.77000000000E+02 0.  0.
   -5000001    1    1    2    0    0 -0.13138269024E+03 -0.11668844035E+02  0.28753135557E+03  0.32557772291E+03  0.77000000000E+02 0.  0.
<mgrwt>
<rscale>  0 0.33355350E+03</rscale>
<asrwt>0</asrwt>
<pdfrwt beam="1">  1        2 0.15765044E+00 0.33355350E+03</pdfrwt>
<pdfrwt beam="2">  1       -2 0.41758906E-02 0.33355350E+03</pdfrwt>
<totfact> 0.65515815E+03</totfact>
</mgrwt>
</event>
<event>
 4    1  0.1195463E-003  0.2091164E+03  0.7818608E-02  0.1142268E+00
         -2   -1    0    0    0  501 -0.00000000000E+00  0.00000000000E+00  0.13371539918E+03  0.13371539921E+03  0.25500000000E-02 0. -1.
          2   -1    0    0  501    0  0.00000000000E+00 -0.00000000000E+00 -0.81758846244E+02  0.81758846284E+02  0.25500000000E-02 0.  1.
    5000001    1    1    2    0    0  0.27758510696E+02  0.39320507286E+02  0.79388365390E+02  0.12061571112E+03  0.77000000000E+02 0.  0.
   -5000001    1    1    2    0    0 -0.27758510696E+02 -0.39320507286E+02 -0.27431812450E+02  0.94858534374E+02  0.77000000000E+02 0.  0.
<mgrwt>
<rscale>  0 0.20911640E+03</rscale>
<asrwt>0</asrwt>
<pdfrwt beam="1">  1        2 0.12578284E-01 0.20911640E+03</pdfrwt>
<pdfrwt beam="2">  1       -2 0.20571600E-01 0.20911640E+03</pdfrwt>
<totfact> 0.93858731E+03</totfact>
</mgrwt>
</event>
<event>
 4    1  0.1195463E-003  0.2406475E+03  0.7818608E-02  0.1119362E+00
          2   -1    0    0  501    0  0.00000000000E+00  0.00000000000E+00  0.37683214691E+03  0.37683214692E+03  0.25500000000E-02 0.  1.
         -2   -1    0    0    0  501 -0.00000000000E+00 -0.00000000000E+00 -0.38419777410E+02  0.38419777495E+02  0.25500000000E-02 0. -1.
    5000001    1    1    2    0    0  0.44064697618E+02 -0.54392080292E+02  0.27343650203E+03  0.29256916553E+03  0.77000000000E+02 0.  0.
   -5000001    1    1    2    0    0 -0.44064697618E+02  0.54392080292E+02  0.64975867471E+02  0.12268275889E+03  0.77000000000E+02 0.  0.
<mgrwt>
<rscale>  0 0.24064752E+03</rscale>
<asrwt>0</asrwt>
<pdfrwt beam="1">  1        2 0.57974173E-01 0.24064752E+03</pdfrwt>
<pdfrwt beam="2">  1       -2 0.59107354E-02 0.24064752E+03</pdfrwt>
<totfact> 0.12706801E+04</totfact>
</mgrwt>
</event>
<event>
 4    1  0.1195463E-003  0.2222279E+03  0.7818608E-02  0.1132233E+00
         -2   -1    0    0    0  501 -0.00000000000E+00  0.00000000000E+00  0.56605249030E+02  0.56605249087E+02  0.25500000000E-02 0. -1.
          2   -1    0    0  501    0  0.00000000000E+00 -0.00000000000E+00 -0.21811245933E+03  0.21811245934E+03  0.25500000000E-02 0.  1.
    5000001    1    1    2    0    0 -0.19900844031E+02 -0.76198162608E+02 -0.62622893747E+02  0.12669976480E+03  0.77000000000E+02 0.  0.
   -5000001    1    1    2    0    0  0.19900844031E+02  0.76198162608E+02 -0.98884316552E+02  0.14801794364E+03  0.77000000000E+02 0.  0.
<mgrwt>
<rscale>  0 0.22222790E+03</rscale>
<asrwt>0</asrwt>
<pdfrwt beam="1">  1        2 0.33555763E-01 0.22222790E+03</pdfrwt>
<pdfrwt beam="2">  1       -2 0.87084999E-02 0.22222790E+03</pdfrwt>
<totfact> 0.12506201E+04</totfact>
</mgrwt>
</event>
<event>
 4    1  0.1195463E-003  0.3781634E+03  0.7818608E-02  0.1051615E+00
          2   -1    0    0  501    0  0.00000000000E+00  0.00000000000E+00  0.40599685240E+03  0.40599685241E+03  0.25500000000E-02 0.  1.
         -2   -1    0    0    0  501 -0.00000000000E+00 -0.00000000000E+00 -0.88059539963E+02  0.88059540000E+02  0.25500000000E-02 0. -1.
    5000001    1    1    2    0    0 -0.15392473944E+03 -0.40916346255E+02  0.24617856635E+03  0.30314989582E+03  0.77000000000E+02 0.  0.
   -5000001    1    1    2    0    0  0.15392473944E+03  0.40916346255E+02  0.71758746084E+02  0.19090649659E+03  0.77000000000E+02 0.  0.
<mgrwt>
<rscale>  0 0.37816344E+03</rscale>
<asrwt>0</asrwt>
<pdfrwt beam="1">  1        2 0.62461055E-01 0.37816344E+03</pdfrwt>
<pdfrwt beam="2">  1       -2 0.13547621E-01 0.37816344E+03</pdfrwt>
<totfact> 0.31996042E+03</totfact>
</mgrwt>
</event>
<event>
 4    1  0.1195463E-003  0.2304995E+03  0.7818608E-02  0.1126289E+00
         -2   -1    0    0    0  501 -0.00000000000E+00  0.00000000000E+00  0.37585746234E+02  0.37585746320E+02  0.25500000000E-02 0. -1.
          2   -1    0    0  501    0  0.00000000000E+00 -0.00000000000E+00 -0.35339214861E+03  0.35339214862E+03  0.25500000000E-02 0.  1.
    5000001    1    1    2    0    0  0.17448273965E+02  0.83654434787E+02 -0.17001674316E+03  0.20527347534E+03  0.77000000000E+02 0.  0.
   -5000001    1    1    2    0    0 -0.17448273965E+02 -0.83654434787E+02 -0.14578965922E+03  0.18570441960E+03  0.77000000000E+02 0.  0.
<mgrwt>
<rscale>  0 0.23049952E+03</rscale>
<asrwt>0</asrwt>
<pdfrwt beam="1">  1        2 0.54368021E-01 0.23049952E+03</pdfrwt>
<pdfrwt beam="2">  1       -2 0.57824227E-02 0.23049952E+03</pdfrwt>
<totfact> 0.14049245E+04</totfact>
</mgrwt>
</event>
<event>
 4    1  0.1195463E-003  0.3801061E+03  0.7818608E-02  0.1050895E+00
         -2   -1    0    0    0  501 -0.00000000000E+00  0.00000000000E+00  0.98380899133E+02  0.98380899167E+02  0.25500000000E-02 0. -1.
          2   -1    0    0  501    0  0.00000000000E+00 -0.00000000000E+00 -0.36714600398E+03  0.36714600399E+03  0.25500000000E-02 0.  1.
    5000001    1    1    2    0    0  0.50800980644E+02  0.49950550271E+02  0.59710356469E+02  0.12070676773E+03  0.77000000000E+02 0.  0.
   -5000001    1    1    2    0    0 -0.50800980644E+02 -0.49950550271E+02 -0.32847546131E+03  0.34482013542E+03  0.77000000000E+02 0.  0.
<mgrwt>
<rscale>  0 0.38010606E+03</rscale>
<asrwt>0</asrwt>
<pdfrwt beam="1">  1        2 0.56484000E-01 0.38010606E+03</pdfrwt>
<pdfrwt beam="2">  1       -2 0.15135523E-01 0.38010606E+03</pdfrwt>
<totfact> 0.29736668E+03</totfact>
</mgrwt>
</event>
<event>
 4    1  0.1195463E-003  0.1841319E+03  0.7818608E-02  0.1163863E+00
          2   -1    0    0  501    0  0.00000000000E+00  0.00000000000E+00  0.29296307126E+03  0.29296307127E+03  0.25500000000E-02 0.  1.
         -2   -1    0    0    0  501 -0.00000000000E+00 -0.00000000000E+00 -0.28932459807E+02  0.28932459920E+02  0.25500000000E-02 0. -1.
    5000001    1    1    2    0    0  0.39349730594E+02 -0.83280844308E+01  0.18530993330E+03  0.20466198882E+03  0.77000000000E+02 0.  0.
   -5000001    1    1    2    0    0 -0.39349730594E+02  0.83280844308E+01  0.78720678156E+02  0.11723354237E+03  0.77000000000E+02 0.  0.
<mgrwt>
<rscale>  0 0.18413193E+03</rscale>
<asrwt>0</asrwt>
<pdfrwt beam="1">  1        2 0.45071243E-01 0.18413193E+03</pdfrwt>
<pdfrwt beam="2">  1       -2 0.44511476E-02 0.18413193E+03</pdfrwt>
<totfact> 0.25120229E+04</totfact>
</mgrwt>
</event>
<event>
 4    1  0.1195463E-003  0.2727187E+03  0.7818608E-02  0.1099734E+00
         -2   -1    0    0    0  501 -0.00000000000E+00  0.00000000000E+00  0.15715458188E+02  0.15715458395E+02  0.25500000000E-02 0. -1.
          2   -1    0    0  501    0  0.00000000000E+00 -0.00000000000E+00 -0.11831580835E+04  0.11831580835E+04  0.25500000000E-02 0.  1.
    5000001    1    1    2    0    0 -0.60086984218E+02  0.66135704561E+02 -0.28297221465E+03  0.30657242432E+03  0.77000000000E+02 0.  0.
   -5000001    1    1    2    0    0  0.60086984218E+02 -0.66135704561E+02 -0.88447041068E+03  0.89230111759E+03  0.77000000000E+02 0.  0.
<mgrwt>
<rscale>  0 0.27271869E+03</rscale>
<asrwt>0</asrwt>
<pdfrwt beam="1">  1        2 0.18202425E+00 0.27271869E+03</pdfrwt>
<pdfrwt beam="2">  1       -2 0.24177637E-02 0.27271869E+03</pdfrwt>
<totfact> 0.11911170E+04</totfact>
</mgrwt>
</event>
<event>
 4    1  0.1195463E-003  0.2239174E+03  0.7818608E-02  0.1130996E+00
          2   -1    0    0  501    0  0.00000000000E+00  0.00000000000E+00  0.38487140082E+03  0.38487140082E+03  0.25500000000E-02 0.  1.
         -2   -1    0    0    0  501 -0.00000000000E+00 -0.00000000000E+00 -0.32568671136E+02  0.32568671236E+02  0.25500000000E-02 0. -1.
    5000001    1    1    2    0    0  0.36913492099E+02  0.53720266851E+02  0.26666450308E+03  0.28510950558E+03  0.77000000000E+02 0.  0.
   -5000001    1    1    2    0    0 -0.36913492099E+02 -0.53720266851E+02  0.85638226598E+02  0.13233056648E+03  0.77000000000E+02 0.  0.
<mgrwt>
<rscale>  0 0.22391740E+03</rscale>
<asrwt>0</asrwt>
<pdfrwt beam="1">  1        2 0.59210988E-01 0.22391740E+03</pdfrwt>
<pdfrwt beam="2">  1       -2 0.50105645E-02 0.22391740E+03</pdfrwt>
<totfact> 0.15906964E+04</totfact>
</mgrwt>
</event>
<event>
 4    1  0.1195463E-003  0.2264161E+03  0.7818608E-02  0.1129188E+00
          2   -1    0    0  501    0  0.00000000000E+00  0.00000000000E+00  0.96741842034E+03  0.96741842034E+03  0.25500000000E-02 0.  1.
         -2   -1    0    0    0  501 -0.00000000000E+00 -0.00000000000E+00 -0.13247696853E+02  0.13247697098E+02  0.25500000000E-02 0. -1.
    5000001    1    1    2    0    0  0.75574787649E+02  0.34043136022E+02  0.45944781812E+03  0.47317204188E+03  0.77000000000E+02 0.  0.
   -5000001    1    1    2    0    0 -0.75574787649E+02 -0.34043136022E+02  0.49472290537E+03  0.50749407556E+03  0.77000000000E+02 0.  0.
<mgrwt>
<rscale>  0 0.22641613E+03</rscale>
<asrwt>0</asrwt>
<pdfrwt beam="1">  1        2 0.14883362E+00 0.22641613E+03</pdfrwt>
<pdfrwt beam="2">  1       -2 0.20381070E-02 0.22641613E+03</pdfrwt>
<totfact> 0.20402623E+04</totfact>
</mgrwt>
</event>
<event>
 4    1  0.1195463E-003  0.3814178E+03  0.7818608E-02  0.1050411E+00
          2   -1    0    0  501    0  0.00000000000E+00  0.00000000000E+00  0.30449714485E+03  0.30449714486E+03  0.25500000000E-02 0.  1.
         -2   -1    0    0    0  501 -0.00000000000E+00 -0.00000000000E+00 -0.11944242260E+03  0.11944242263E+03  0.25500000000E-02 0. -1.
    5000001    1    1    2    0    0 -0.14289564986E+03  0.38299003938E+02 -0.10276734080E+02  0.16709455920E+03  0.77000000000E+02 0.  0.
   -5000001    1    1    2    0    0  0.14289564986E+03 -0.38299003938E+02  0.19533145633E+03  0.25684500829E+03  0.77000000000E+02 0.  0.
<mgrwt>
<rscale>  0 0.38141776E+03</rscale>
<asrwt>0</asrwt>
<pdfrwt beam="1">  1        2 0.46845715E-01 0.38141776E+03</pdfrwt>
<pdfrwt beam="2">  1       -2 0.18375757E-01 0.38141776E+03</pdfrwt>
<totfact> 0.26298709E+03</totfact>
</mgrwt>
</event>
<event>
 4    1  0.1195463E-003  0.5055321E+03  0.7818608E-02  0.1012345E+00
         -2   -1    0    0    0  501 -0.00000000000E+00  0.00000000000E+00  0.18369211652E+02  0.18369211829E+02  0.25500000000E-02 0. -1.
          2   -1    0    0  501    0  0.00000000000E+00 -0.00000000000E+00 -0.34781386125E+04  0.34781386125E+04  0.25500000000E-02 0.  1.
    5000001    1    1    2    0    0 -0.16677403580E+03 -0.12907229206E+03 -0.92660555582E+03  0.95341496300E+03  0.77000000000E+02 0.  0.
   -5000001    1    1    2    0    0  0.16677403580E+03  0.12907229206E+03 -0.25331638451E+04  0.25430928614E+04  0.77000000000E+02 0.  0.
<mgrwt>
<rscale>  0 0.50553205E+03</rscale>
<asrwt>0</asrwt>
<pdfrwt beam="1">  1        2 0.53509772E+00 0.50553205E+03</pdfrwt>
<pdfrwt beam="2">  1       -2 0.28260353E-02 0.50553205E+03</pdfrwt>
<totfact> 0.46348165E+02</totfact>
</mgrwt>
</event>
<event>
 4    1  0.1195463E-003  0.5330450E+03  0.7818608E-02  0.1005496E+00
         -2   -1    0    0    0  501 -0.00000000000E+00  0.00000000000E+00  0.15577646781E+03  0.15577646783E+03  0.25500000000E-02 0. -1.
          2   -1    0    0  501    0  0.00000000000E+00 -0.00000000000E+00 -0.45600112548E+03  0.45600112548E+03  0.25500000000E-02 0.  1.
    5000001    1    1    2    0    0 -0.21258198107E+03  0.35781921405E+02  0.65557087311E+01  0.22900528791E+03  0.77000000000E+02 0.  0.
   -5000001    1    1    2    0    0  0.21258198107E+03 -0.35781921405E+02 -0.30678036640E+03  0.38277230540E+03  0.77000000000E+02 0.  0.
<mgrwt>
<rscale>  0 0.53304501E+03</rscale>
<asrwt>0</asrwt>
<pdfrwt beam="1">  1        2 0.70154019E-01 0.53304501E+03</pdfrwt>
<pdfrwt beam="2">  1       -2 0.23965611E-01 0.53304501E+03</pdfrwt>
<totfact> 0.10618675E+03</totfact>
</mgrwt>
</event>
<event>
 4    1  0.1195463E-003  0.5378301E+03  0.7818608E-02  0.1004351E+00
         -2   -1    0    0    0  501 -0.00000000000E+00  0.00000000000E+00  0.40105256522E+02  0.40105256603E+02  0.25500000000E-02 0. -1.
          2   -1    0    0  501    0  0.00000000000E+00 -0.00000000000E+00 -0.18031377451E+04  0.18031377451E+04  0.25500000000E-02 0.  1.
    5000001    1    1    2    0    0 -0.30062399389E+02 -0.19604150540E+03 -0.31784822339E+03  0.38248204246E+03  0.77000000000E+02 0.  0.
   -5000001    1    1    2    0    0  0.30062399389E+02  0.19604150540E+03 -0.14451842652E+04  0.14607609593E+04  0.77000000000E+02 0.  0.
<mgrwt>
<rscale>  0 0.53783009E+03</rscale>
<asrwt>0</asrwt>
<pdfrwt beam="1">  1        2 0.27740574E+00 0.53783009E+03</pdfrwt>
<pdfrwt beam="2">  1       -2 0.61700409E-02 0.53783009E+03</pdfrwt>
<totfact> 0.13140349E+03</totfact>
</mgrwt>
</event>
<event>
 4    1  0.1195463E-003  0.2933659E+03  0.7818608E-02  0.1088605E+00
         -2   -1    0    0    0  501 -0.00000000000E+00  0.00000000000E+00  0.52973110220E+01  0.52973116357E+01  0.25500000000E-02 0. -1.
          2   -1    0    0  501    0  0.00000000000E+00 -0.00000000000E+00 -0.40616626690E+04  0.40616626690E+04  0.25500000000E-02 0.  1.
    5000001    1    1    2    0    0 -0.10034292859E+03 -0.73635332640E+02 -0.21640312173E+04  0.21689746367E+04  0.77000000000E+02 0.  0.
   -5000001    1    1    2    0    0  0.10034292859E+03  0.73635332640E+02 -0.18923341407E+04  0.18979853439E+04  0.77000000000E+02 0.  0.
<mgrwt>
<rscale>  0 0.29336593E+03</rscale>
<asrwt>0</asrwt>
<pdfrwt beam="1">  1        2 0.62486869E+00 0.29336593E+03</pdfrwt>
<pdfrwt beam="2">  1       -2 0.81497422E-03 0.29336593E+03</pdfrwt>
<totfact> 0.11449139E+03</totfact>
</mgrwt>
</event>
<event>
 4    1  0.1195463E-003  0.2497798E+03  0.7818608E-02  0.1113444E+00
         -2   -1    0    0    0  501 -0.00000000000E+00  0.00000000000E+00  0.34174232063E+02  0.34174232158E+02  0.25500000000E-02 0. -1.
          2   -1    0    0  501    0  0.00000000000E+00 -0.00000000000E+00 -0.45641087488E+03  0.45641087488E+03  0.25500000000E-02 0.  1.
    5000001    1    1    2    0    0  0.40490579432E+02 -0.82543622201E+02 -0.27959524230E+03  0.30422924926E+03  0.77000000000E+02 0.  0.
   -5000001    1    1    2    0    0 -0.40490579432E+02  0.82543622201E+02 -0.14264140051E+03  0.18635585778E+03  0.77000000000E+02 0.  0.
<mgrwt>
<rscale>  0 0.24977983E+03</rscale>
<asrwt>0</asrwt>
<pdfrwt beam="1">  1        2 0.70217053E-01 0.24977983E+03</pdfrwt>
<pdfrwt beam="2">  1       -2 0.52575745E-02 0.24977983E+03</pdfrwt>
<totfact> 0.12354526E+04</totfact>
</mgrwt>
</event>
<event>
 4    1  0.1195463E-003  0.2668719E+03  0.7818608E-02  0.1103083E+00
          2   -1    0    0  501    0  0.00000000000E+00  0.00000000000E+00  0.15370249856E+04  0.15370249856E+04  0.25500000000E-02 0.  1.
         -2   -1    0    0    0  501 -0.00000000000E+00 -0.00000000000E+00 -0.11584167318E+02  0.11584167599E+02  0.25500000000E-02 0. -1.
    5000001    1    1    2    0    0  0.41967168162E+02  0.94303573041E+02  0.55989156311E+03  0.57451019968E+03  0.77000000000E+02 0.  0.
   -5000001    1    1    2    0    0 -0.41967168162E+02 -0.94303573041E+02  0.96554925520E+03  0.97409895355E+03  0.77000000000E+02 0.  0.
<mgrwt>
<rscale>  0 0.26687192E+03</rscale>
<asrwt>0</asrwt>
<pdfrwt beam="1">  1        2 0.23646523E+00 0.26687192E+03</pdfrwt>
<pdfrwt beam="2">  1       -2 0.17821807E-02 0.26687192E+03</pdfrwt>
<totfact> 0.11931501E+04</totfact>
</mgrwt>
</event>
<event>
 4    1  0.1195463E-003  0.2928437E+03  0.7818608E-02  0.1088874E+00
         -2   -1    0    0    0  501 -0.00000000000E+00  0.00000000000E+00  0.20589420936E+03  0.20589420938E+03  0.25500000000E-02 0. -1.
          2   -1    0    0  501    0  0.00000000000E+00 -0.00000000000E+00 -0.10412802141E+03  0.10412802145E+03  0.25500000000E-02 0.  1.
    5000001    1    1    2    0    0  0.75409431921E+02 -0.98977038446E+02  0.56416569596E+02  0.15682750361E+03  0.77000000000E+02 0.  0.
   -5000001    1    1    2    0    0 -0.75409431921E+02  0.98977038446E+02  0.45349618349E+02  0.15319472722E+03  0.77000000000E+02 0.  0.
<mgrwt>
<rscale>  0 0.29284369E+03</rscale>
<asrwt>0</asrwt>
<pdfrwt beam="1">  1        2 0.16019696E-01 0.29284369E+03</pdfrwt>
<pdfrwt beam="2">  1       -2 0.31676032E-01 0.29284369E+03</pdfrwt>
<totfact> 0.33265687E+03</totfact>
</mgrwt>
</event>
<event>
 4    1  0.1195463E-003  0.4297859E+03  0.7818608E-02  0.1033928E+00
          2   -1    0    0  501    0  0.00000000000E+00  0.00000000000E+00  0.27345566561E+03  0.27345566562E+03  0.25500000000E-02 0.  1.
         -2   -1    0    0    0  501 -0.00000000000E+00 -0.00000000000E+00 -0.16887193594E+03  0.16887193596E+03  0.25500000000E-02 0. -1.
    5000001    1    1    2    0    0 -0.18238604325E+03 -0.77718064930E+02  0.83933475493E+02  0.22864512830E+03  0.77000000000E+02 0.  0.
   -5000001    1    1    2    0    0  0.18238604325E+03  0.77718064930E+02  0.20650254179E+02  0.21368247328E+03  0.77000000000E+02 0.  0.
<mgrwt>
<rscale>  0 0.42978594E+03</rscale>
<asrwt>0</asrwt>
<pdfrwt beam="1">  1        2 0.42070102E-01 0.42978594E+03</pdfrwt>
<pdfrwt beam="2">  1       -2 0.25980298E-01 0.42978594E+03</pdfrwt>
<totfact> 0.16165170E+03</totfact>
</mgrwt>
</event>
<event>
 4    1  0.1195463E-003  0.2887869E+03  0.7818608E-02  0.1090984E+00
          2   -1    0    0  501    0  0.00000000000E+00  0.00000000000E+00  0.82223155198E+02  0.82223155237E+02  0.25500000000E-02 0.  1.
         -2   -1    0    0    0  501 -0.00000000000E+00 -0.00000000000E+00 -0.25357176307E+03  0.25357176308E+03  0.25500000000E-02 0. -1.
    5000001    1    1    2    0    0  0.91207977097E+02  0.40611595507E+02 -0.38468708938E+01  0.12614275719E+03  0.77000000000E+02 0.  0.
   -5000001    1    1    2    0    0 -0.91207977097E+02 -0.40611595507E+02 -0.16750173698E+03  0.20965216113E+03  0.77000000000E+02 0.  0.
<mgrwt>
<rscale>  0 0.28878691E+03</rscale>
<asrwt>0</asrwt>
<pdfrwt beam="1">  1        2 0.12649716E-01 0.28878691E+03</pdfrwt>
<pdfrwt beam="2">  1       -2 0.39011040E-01 0.28878691E+03</pdfrwt>
<totfact> 0.29881166E+03</totfact>
</mgrwt>
</event>
<event>
 4    1  0.1195463E-003  0.3145612E+03  0.7818608E-02  0.1078180E+00
          2   -1    0    0  501    0  0.00000000000E+00  0.00000000000E+00  0.27602526491E+03  0.27602526493E+03  0.25500000000E-02 0.  1.
         -2   -1    0    0    0  501 -0.00000000000E+00 -0.00000000000E+00 -0.89619260219E+02  0.89619260255E+02  0.25500000000E-02 0. -1.
    5000001    1    1    2    0    0 -0.94950929160E+02  0.11428852860E+02 -0.21054534808E+02  0.12457363711E+03  0.77000000000E+02 0.  0.
   -5000001    1    1    2    0    0  0.94950929160E+02 -0.11428852860E+02  0.20746053950E+03  0.24107088807E+03  0.77000000000E+02 0.  0.
<mgrwt>
<rscale>  0 0.31456115E+03</rscale>
<asrwt>0</asrwt>
<pdfrwt beam="1">  1        2 0.42465426E-01 0.31456115E+03</pdfrwt>
<pdfrwt beam="2">  1       -2 0.13787578E-01 0.31456115E+03</pdfrwt>
<totfact> 0.47109530E+03</totfact>
</mgrwt>
</event>
<event>
 4    1  0.1195463E-003  0.3647102E+03  0.7818608E-02  0.1056734E+00
          2   -1    0    0  501    0  0.00000000000E+00  0.00000000000E+00  0.31347344298E+03  0.31347344299E+03  0.25500000000E-02 0.  1.
         -2   -1    0    0    0  501 -0.00000000000E+00 -0.00000000000E+00 -0.10608038247E+03  0.10608038251E+03  0.25500000000E-02 0. -1.
    5000001    1    1    2    0    0  0.10331559556E+03  0.26681055158E+01 -0.44711554207E+02  0.13641610665E+03  0.77000000000E+02 0.  0.
   -5000001    1    1    2    0    0 -0.10331559556E+03 -0.26681055158E+01  0.25210461471E+03  0.28313771884E+03  0.77000000000E+02 0.  0.
<mgrwt>
<rscale>  0 0.36471020E+03</rscale>
<asrwt>0</asrwt>
<pdfrwt beam="1">  1        2 0.48226682E-01 0.36471020E+03</pdfrwt>
<pdfrwt beam="2">  1       -2 0.16320059E-01 0.36471020E+03</pdfrwt>
<totfact> 0.31121901E+03</totfact>
</mgrwt>
</event>
<event>
 4    1  0.1195463E-003  0.2684678E+03  0.7818608E-02  0.1102160E+00
         -2   -1    0    0    0  501 -0.00000000000E+00  0.00000000000E+00  0.39782593672E+02  0.39782593754E+02  0.25500000000E-02 0. -1.
          2   -1    0    0  501    0  0.00000000000E+00 -0.00000000000E+00 -0.45293027193E+03  0.45293027193E+03  0.25500000000E-02 0.  1.
    5000001    1    1    2    0    0  0.53593396555E+02  0.78985330742E+02 -0.30674041370E+03  0.33034771987E+03  0.77000000000E+02 0.  0.
   -5000001    1    1    2    0    0 -0.53593396555E+02 -0.78985330742E+02 -0.10640726456E+03  0.16236514582E+03  0.77000000000E+02 0.  0.
<mgrwt>
<rscale>  0 0.26846781E+03</rscale>
<asrwt>0</asrwt>
<pdfrwt beam="1">  1        2 0.69681577E-01 0.26846781E+03</pdfrwt>
<pdfrwt beam="2">  1       -2 0.61203993E-02 0.26846781E+03</pdfrwt>
<totfact> 0.99092024E+03</totfact>
</mgrwt>
</event>
<event>
 4    1  0.1195463E-003  0.7521781E+03  0.7818608E-02  0.9631939E-01
         -2   -1    0    0    0  501 -0.00000000000E+00  0.00000000000E+00  0.16755952428E+03  0.16755952430E+03  0.25500000000E-02 0. -1.
          2   -1    0    0  501    0  0.00000000000E+00 -0.00000000000E+00 -0.84413562086E+03  0.84413562087E+03  0.25500000000E-02 0.  1.
    5000001    1    1    2    0    0 -0.32112235757E+03  0.16934872224E+03 -0.25630348881E+03  0.45101999582E+03  0.77000000000E+02 0.  0.
   -5000001    1    1    2    0    0  0.32112235757E+03 -0.16934872224E+03 -0.42027260777E+03  0.56067514935E+03  0.77000000000E+02 0.  0.
<mgrwt>
<rscale>  0 0.75217807E+03</rscale>
<asrwt>0</asrwt>
<pdfrwt beam="1">  1        2 0.12986702E+00 0.75217807E+03</pdfrwt>
<pdfrwt beam="2">  1       -2 0.25778389E-01 0.75217807E+03</pdfrwt>
<totfact> 0.43672989E+02</totfact>
</mgrwt>
</event>
<event>
 4    1  0.1195463E-003  0.3403494E+03  0.7818608E-02  0.1066647E+00
         -2   -1    0    0    0  501 -0.00000000000E+00  0.00000000000E+00  0.40730908506E+02  0.40730908586E+02  0.25500000000E-02 0. -1.
          2   -1    0    0  501    0  0.00000000000E+00 -0.00000000000E+00 -0.71099377371E+03  0.71099377371E+03  0.25500000000E-02 0.  1.
    5000001    1    1    2    0    0 -0.48649867065E+02  0.12626838551E+03 -0.48687162024E+03  0.51115896680E+03  0.77000000000E+02 0.  0.
   -5000001    1    1    2    0    0  0.48649867065E+02 -0.12626838551E+03 -0.18339124496E+03  0.24056571550E+03  0.77000000000E+02 0.  0.
<mgrwt>
<rscale>  0 0.34034936E+03</rscale>
<asrwt>0</asrwt>
<pdfrwt beam="1">  1        2 0.10938365E+00 0.34034936E+03</pdfrwt>
<pdfrwt beam="2">  1       -2 0.62662941E-02 0.34034936E+03</pdfrwt>
<totfact> 0.57152794E+03</totfact>
</mgrwt>
</event>
<event>
 4    1  0.1195463E-003  0.1849572E+03  0.7818608E-02  0.1163090E+00
          2   -1    0    0  501    0  0.00000000000E+00  0.00000000000E+00  0.41489810690E+03  0.41489810690E+03  0.25500000000E-02 0.  1.
         -2   -1    0    0    0  501 -0.00000000000E+00 -0.00000000000E+00 -0.20613001064E+02  0.20613001222E+02  0.25500000000E-02 0. -1.
    5000001    1    1    2    0    0  0.24165912592E+02 -0.31782102116E+02  0.12160234586E+03  0.14936607334E+03  0.77000000000E+02 0.  0.
   -5000001    1    1    2    0    0 -0.24165912592E+02  0.31782102116E+02  0.27268275997E+03  0.28614503479E+03  0.77000000000E+02 0.  0.
<mgrwt>
<rscale>  0 0.18495724E+03</rscale>
<asrwt>0</asrwt>
<pdfrwt beam="1">  1        2 0.63830478E-01 0.18495724E+03</pdfrwt>
<pdfrwt beam="2">  1       -2 0.31712309E-02 0.18495724E+03</pdfrwt>
<totfact> 0.28694599E+04</totfact>
</mgrwt>
</event>
<event>
 4    1  0.1195463E-003  0.3441809E+03  0.7818608E-02  0.1065029E+00
          2   -1    0    0  501    0  0.00000000000E+00  0.00000000000E+00  0.15495131214E+04  0.15495131214E+04  0.25500000000E-02 0.  1.
         -2   -1    0    0    0  501 -0.00000000000E+00 -0.00000000000E+00 -0.19112529644E+02  0.19112529814E+02  0.25500000000E-02 0. -1.
    5000001    1    1    2    0    0  0.45607364570E+02  0.12044617217E+01  0.95306355721E+02  0.13074319819E+03  0.77000000000E+02 0.  0.
   -5000001    1    1    2    0    0 -0.45607364570E+02 -0.12044617217E+01  0.14350942360E+04  0.14378824530E+04  0.77000000000E+02 0.  0.
<mgrwt>
<rscale>  0 0.34418086E+03</rscale>
<asrwt>0</asrwt>
<pdfrwt beam="1">  1        2 0.23838664E+00 0.34418086E+03</pdfrwt>
<pdfrwt beam="2">  1       -2 0.29403891E-02 0.34418086E+03</pdfrwt>
<totfact> 0.56157897E+03</totfact>
</mgrwt>
</event>
<event>
 4    1  0.1195463E-003  0.2274956E+03  0.7818608E-02  0.1128415E+00
         -2   -1    0    0    0  501 -0.00000000000E+00  0.00000000000E+00  0.40135085970E+03  0.40135085971E+03  0.25500000000E-02 0. -1.
          2   -1    0    0  501    0  0.00000000000E+00 -0.00000000000E+00 -0.32237533143E+02  0.32237533244E+02  0.25500000000E-02 0.  1.
    5000001    1    1    2    0    0 -0.77095582784E+02  0.20260090180E+02  0.23334827037E+03  0.25833043844E+03  0.77000000000E+02 0.  0.
   -5000001    1    1    2    0    0  0.77095582784E+02 -0.20260090180E+02  0.13576505618E+03  0.17525795451E+03  0.77000000000E+02 0.  0.
<mgrwt>
<rscale>  0 0.22749560E+03</rscale>
<asrwt>0</asrwt>
<pdfrwt beam="1">  1        2 0.49596197E-02 0.22749560E+03</pdfrwt>
<pdfrwt beam="2">  1       -2 0.61746296E-01 0.22749560E+03</pdfrwt>
<totfact> 0.39016491E+03</totfact>
</mgrwt>
</event>
<event>
 4    1  0.1195463E-003  0.1882569E+03  0.7818608E-02  0.1160043E+00
          2   -1    0    0  501    0  0.00000000000E+00  0.00000000000E+00  0.64992746065E+03  0.64992746065E+03  0.25500000000E-02 0.  1.
         -2   -1    0    0    0  501 -0.00000000000E+00 -0.00000000000E+00 -0.13632543339E+02  0.13632543577E+02  0.25500000000E-02 0. -1.
    5000001    1    1    2    0    0  0.25523054726E+02  0.34286561352E+02  0.20102309679E+03  0.21946817549E+03  0.77000000000E+02 0.  0.
   -5000001    1    1    2    0    0 -0.25523054726E+02 -0.34286561352E+02  0.43527182052E+03  0.44409182874E+03  0.77000000000E+02 0.  0.
<mgrwt>
<rscale>  0 0.18825689E+03</rscale>
<asrwt>0</asrwt>
<pdfrwt beam="1">  1        2 0.99988820E-01 0.18825689E+03</pdfrwt>
<pdfrwt beam="2">  1       -2 0.20973148E-02 0.18825689E+03</pdfrwt>
<totfact> 0.31949670E+04</totfact>
</mgrwt>
</event>
<event>
 4    1  0.1195463E-003  0.2783802E+03  0.7818608E-02  0.1096577E+00
         -2   -1    0    0    0  501 -0.00000000000E+00  0.00000000000E+00  0.33473363690E+02  0.33473363787E+02  0.25500000000E-02 0. -1.
          2   -1    0    0  501    0  0.00000000000E+00 -0.00000000000E+00 -0.57878512741E+03  0.57878512742E+03  0.25500000000E-02 0.  1.
    5000001    1    1    2    0    0 -0.10640846729E+03 -0.19640331752E+02 -0.36430302228E+03  0.38775533083E+03  0.77000000000E+02 0.  0.
   -5000001    1    1    2    0    0  0.10640846729E+03  0.19640331752E+02 -0.18100874144E+03  0.22450316038E+03  0.77000000000E+02 0.  0.
<mgrwt>
<rscale>  0 0.27838021E+03</rscale>
<asrwt>0</asrwt>
<pdfrwt beam="1">  1        2 0.89043858E-01 0.27838021E+03</pdfrwt>
<pdfrwt beam="2">  1       -2 0.51497487E-02 0.27838021E+03</pdfrwt>
<totfact> 0.98074551E+03</totfact>
</mgrwt>
</event>
<event>
 4    1  0.1195463E-003  0.2710431E+03  0.7818608E-02  0.1100684E+00
         -2   -1    0    0    0  501 -0.00000000000E+00  0.00000000000E+00  0.16132939920E+02  0.16132940121E+02  0.25500000000E-02 0. -1.
          2   -1    0    0  501    0  0.00000000000E+00 -0.00000000000E+00 -0.11384216281E+04  0.11384216281E+04  0.25500000000E-02 0.  1.
    5000001    1    1    2    0    0 -0.81515163135E+02 -0.29576498623E+01 -0.88509282856E+03  0.89217250836E+03  0.77000000000E+02 0.  0.
   -5000001    1    1    2    0    0  0.81515163135E+02  0.29576498623E+01 -0.23719585959E+03  0.26238205983E+03  0.77000000000E+02 0.  0.
<mgrwt>
<rscale>  0 0.27104308E+03</rscale>
<asrwt>0</asrwt>
<pdfrwt beam="1">  1        2 0.17514173E+00 0.27104308E+03</pdfrwt>
<pdfrwt beam="2">  1       -2 0.24819917E-02 0.27104308E+03</pdfrwt>
<totfact> 0.12155099E+04</totfact>
</mgrwt>
</event>
<event>
 4    1  0.1195463E-003  0.1808108E+03  0.7818608E-02  0.1167021E+00
          2   -1    0    0  501    0  0.00000000000E+00  0.00000000000E+00  0.54166542701E+03  0.54166542701E+03  0.25500000000E-02 0.  1.
         -2   -1    0    0    0  501 -0.00000000000E+00 -0.00000000000E+00 -0.15088907746E+02  0.15088907962E+02  0.25500000000E-02 0. -1.
    5000001    1    1    2    0    0 -0.36230126878E+02  0.25966461357E+02  0.21389977363E+03  0.23166569096E+03  0.77000000000E+02 0.  0.
   -5000001    1    1    2    0    0  0.36230126878E+02 -0.25966461357E+02  0.31267674564E+03  0.32508864402E+03  0.77000000000E+02 0.  0.
<mgrwt>
<rscale>  0 0.18081084E+03</rscale>
<asrwt>0</asrwt>
<pdfrwt beam="1">  1        2 0.83333152E-01 0.18081084E+03</pdfrwt>
<pdfrwt beam="2">  1       -2 0.23213702E-02 0.18081084E+03</pdfrwt>
<totfact> 0.33822954E+04</totfact>
</mgrwt>
</event>
<event>
 4    1  0.1195463E-003  0.3083933E+03  0.7818608E-02  0.1081119E+00
          2   -1    0    0  501    0  0.00000000000E+00  0.00000000000E+00  0.10199706799E+04  0.10199706799E+04  0.25500000000E-02 0.  1.
         -2   -1    0    0    0  501 -0.00000000000E+00 -0.00000000000E+00 -0.23311062235E+02  0.23311062374E+02  0.25500000000E-02 0. -1.
    5000001    1    1    2    0    0 -0.10978514725E+03  0.18517987005E+02  0.24854219369E+03  0.28301575300E+03  0.77000000000E+02 0.  0.
   -5000001    1    1    2    0    0  0.10978514725E+03 -0.18517987005E+02  0.74811742398E+03  0.76026598929E+03  0.77000000000E+02 0.  0.
<mgrwt>
<rscale>  0 0.30839326E+03</rscale>
<asrwt>0</asrwt>
<pdfrwt beam="1">  1        2 0.15691859E+00 0.30839326E+03</pdfrwt>
<pdfrwt beam="2">  1       -2 0.35863166E-02 0.30839326E+03</pdfrwt>
<totfact> 0.82851040E+03</totfact>
</mgrwt>
</event>
<event>
 4    1  0.1195463E-003  0.2418692E+03  0.7818608E-02  0.1118554E+00
         -2   -1    0    0    0  501 -0.00000000000E+00  0.00000000000E+00  0.12366606736E+03  0.12366606738E+03  0.25500000000E-02 0. -1.
          2   -1    0    0  501    0  0.00000000000E+00 -0.00000000000E+00 -0.11826349003E+03  0.11826349006E+03  0.25500000000E-02 0.  1.
    5000001    1    1    2    0    0  0.49008810014E+02 -0.71092585663E+02  0.37926000025E+02  0.12175138879E+03  0.77000000000E+02 0.  0.
   -5000001    1    1    2    0    0 -0.49008810014E+02  0.71092585663E+02 -0.32523422695E+02  0.12017816865E+03  0.77000000000E+02 0.  0.
<mgrwt>
<rscale>  0 0.24186923E+03</rscale>
<asrwt>0</asrwt>
<pdfrwt beam="1">  1        2 0.18194383E-01 0.24186923E+03</pdfrwt>
<pdfrwt beam="2">  1       -2 0.19025549E-01 0.24186923E+03</pdfrwt>
<totfact> 0.69894396E+03</totfact>
</mgrwt>
</event>
<event>
 4    1  0.1195463E-003  0.2422245E+03  0.7818608E-02  0.1118320E+00
         -2   -1    0    0    0  501 -0.00000000000E+00  0.00000000000E+00  0.15831165624E+03  0.15831165626E+03  0.25500000000E-02 0. -1.
          2   -1    0    0  501    0  0.00000000000E+00 -0.00000000000E+00 -0.92653823667E+02  0.92653823702E+02  0.25500000000E-02 0.  1.
    5000001    1    1    2    0    0  0.55924372344E+02  0.74908671098E+02  0.32228467807E+02  0.12532565007E+03  0.77000000000E+02 0.  0.
   -5000001    1    1    2    0    0 -0.55924372344E+02 -0.74908671098E+02  0.33429364768E+02  0.12563982990E+03  0.77000000000E+02 0.  0.
<mgrwt>
<rscale>  0 0.24222453E+03</rscale>
<asrwt>0</asrwt>
<pdfrwt beam="1">  1        2 0.14254434E-01 0.24222453E+03</pdfrwt>
<pdfrwt beam="2">  1       -2 0.24355639E-01 0.24222453E+03</pdfrwt>
<totfact> 0.60787396E+03</totfact>
</mgrwt>
</event>
<event>
 4    1  0.1195463E-003  0.2985291E+03  0.7818608E-02  0.1085978E+00
         -2   -1    0    0    0  501 -0.00000000000E+00  0.00000000000E+00  0.29648411163E+03  0.29648411164E+03  0.25500000000E-02 0. -1.
          2   -1    0    0  501    0  0.00000000000E+00 -0.00000000000E+00 -0.75147033451E+02  0.75147033495E+02  0.25500000000E-02 0.  1.
    5000001    1    1    2    0    0  0.96595288262E+01 -0.12608156570E+03  0.87014822942E+02  0.17172782861E+03  0.77000000000E+02 0.  0.
   -5000001    1    1    2    0    0 -0.96595288262E+01  0.12608156570E+03  0.13432225523E+03  0.19990331653E+03  0.77000000000E+02 0.  0.
<mgrwt>
<rscale>  0 0.29852907E+03</rscale>
<asrwt>0</asrwt>
<pdfrwt beam="1">  1        2 0.11561082E-01 0.29852907E+03</pdfrwt>
<pdfrwt beam="2">  1       -2 0.45612941E-01 0.29852907E+03</pdfrwt>
<totfact> 0.24670230E+03</totfact>
</mgrwt>
</event>
<event>
 4    1  0.1195463E-003  0.2338610E+03  0.7818608E-02  0.1123951E+00
         -2   -1    0    0    0  501 -0.00000000000E+00  0.00000000000E+00  0.34348439753E+02  0.34348439848E+02  0.25500000000E-02 0. -1.
          2   -1    0    0  501    0  0.00000000000E+00 -0.00000000000E+00 -0.39806007642E+03  0.39806007643E+03  0.25500000000E-02 0.  1.
    5000001    1    1    2    0    0  0.42109098850E+02  0.60239778152E+02 -0.92380068993E+02  0.14094354978E+03  0.77000000000E+02 0.  0.
   -5000001    1    1    2    0    0 -0.42109098850E+02 -0.60239778152E+02 -0.27133156768E+03  0.29146496650E+03  0.77000000000E+02 0.  0.
<mgrwt>
<rscale>  0 0.23386101E+03</rscale>
<asrwt>0</asrwt>
<pdfrwt beam="1">  1        2 0.61240008E-01 0.23386101E+03</pdfrwt>
<pdfrwt beam="2">  1       -2 0.52843756E-02 0.23386101E+03</pdfrwt>
<totfact> 0.14184971E+04</totfact>
</mgrwt>
</event>
<event>
 4    1  0.1195463E-003  0.1704864E+03  0.7818608E-02  0.1177342E+00
          2   -1    0    0  501    0  0.00000000000E+00  0.00000000000E+00  0.17775443033E+02  0.17775443216E+02  0.25500000000E-02 0.  1.
         -2   -1    0    0    0  501 -0.00000000000E+00 -0.00000000000E+00 -0.40878891795E+03  0.40878891796E+03  0.25500000000E-02 0. -1.
    5000001    1    1    2    0    0 -0.12438693826E+02 -0.29878892169E+02 -0.15290326316E+03  0.17422938095E+03  0.77000000000E+02 0.  0.
   -5000001    1    1    2    0    0  0.12438693826E+02  0.29878892169E+02 -0.23811021176E+03  0.25233498022E+03  0.77000000000E+02 0.  0.
<mgrwt>
<rscale>  0 0.17048641E+03</rscale>
<asrwt>0</asrwt>
<pdfrwt beam="1">  1        2 0.27346839E-02 0.17048641E+03</pdfrwt>
<pdfrwt beam="2">  1       -2 0.62890596E-01 0.17048641E+03</pdfrwt>
<totfact> 0.81769844E+03</totfact>
</mgrwt>
</event>
<event>
 4    1  0.1195463E-003  0.2384152E+03  0.7818608E-02  0.1120853E+00
          2   -1    0    0  501    0  0.00000000000E+00  0.00000000000E+00  0.88341189996E+03  0.88341189997E+03  0.25500000000E-02 0.  1.
         -2   -1    0    0    0  501 -0.00000000000E+00 -0.00000000000E+00 -0.16085872050E+02  0.16085872252E+02  0.25500000000E-02 0. -1.
    5000001    1    1    2    0    0 -0.77281946470E+02 -0.44436732185E+02  0.36467830364E+03  0.38323150648E+03  0.77000000000E+02 0.  0.
   -5000001    1    1    2    0    0  0.77281946470E+02  0.44436732185E+02  0.50264772428E+03  0.51626626574E+03  0.77000000000E+02 0.  0.
<mgrwt>
<rscale>  0 0.23841519E+03</rscale>
<asrwt>0</asrwt>
<pdfrwt beam="1">  1        2 0.13590951E+00 0.23841519E+03</pdfrwt>
<pdfrwt beam="2">  1       -2 0.24747498E-02 0.23841519E+03</pdfrwt>
<totfact> 0.17379295E+04</totfact>
</mgrwt>
</event>
<event>
 4    1  0.1195463E-003  0.2849163E+03  0.7818608E-02  0.1093034E+00
          2   -1    0    0  501    0  0.00000000000E+00  0.00000000000E+00  0.10454370903E+03  0.10454370906E+03  0.25500000000E-02 0.  1.
         -2   -1    0    0    0  501 -0.00000000000E+00 -0.00000000000E+00 -0.19412290469E+03  0.19412290471E+03  0.25500000000E-02 0. -1.
    5000001    1    1    2    0    0  0.82460744442E+02 -0.70263209200E+02  0.89549640219E+01  0.13321367918E+03  0.77000000000E+02 0.  0.
   -5000001    1    1    2    0    0 -0.82460744442E+02  0.70263209200E+02 -0.98534159681E+02  0.16545293459E+03  0.77000000000E+02 0.  0.
<mgrwt>
<rscale>  0 0.28491633E+03</rscale>
<asrwt>0</asrwt>
<pdfrwt beam="1">  1        2 0.16083648E-01 0.28491633E+03</pdfrwt>
<pdfrwt beam="2">  1       -2 0.29865062E-01 0.28491633E+03</pdfrwt>
<totfact> 0.36839729E+03</totfact>
</mgrwt>
</event>
<event>
 4    1  0.1195463E-003  0.2187516E+03  0.7818608E-02  0.1134817E+00
         -2   -1    0    0    0  501 -0.00000000000E+00  0.00000000000E+00  0.10942630006E+02  0.10942630304E+02  0.25500000000E-02 0. -1.
          2   -1    0    0  501    0  0.00000000000E+00 -0.00000000000E+00 -0.10932527442E+04  0.10932527442E+04  0.25500000000E-02 0.  1.
    5000001    1    1    2    0    0 -0.11483170898E+02 -0.75544097715E+02 -0.47061579217E+03  0.48295651746E+03  0.77000000000E+02 0.  0.
   -5000001    1    1    2    0    0  0.11483170898E+02  0.75544097715E+02 -0.61169432200E+03  0.62123885702E+03  0.77000000000E+02 0.  0.
<mgrwt>
<rscale>  0 0.21875155E+03</rscale>
<asrwt>0</asrwt>
<pdfrwt beam="1">  1        2 0.16819264E+00 0.21875155E+03</pdfrwt>
<pdfrwt beam="2">  1       -2 0.16834824E-02 0.21875155E+03</pdfrwt>
<totfact> 0.22632899E+04</totfact>
</mgrwt>
</event>
<event>
 4    1  0.1195463E-003  0.3490932E+03  0.7818608E-02  0.1062988E+00
         -2   -1    0    0    0  501 -0.00000000000E+00  0.00000000000E+00  0.18382593775E+02  0.18382593952E+02  0.25500000000E-02 0. -1.
          2   -1    0    0  501    0  0.00000000000E+00 -0.00000000000E+00 -0.16573565832E+04  0.16573565832E+04  0.25500000000E-02 0.  1.
    5000001    1    1    2    0    0  0.45289138146E+01 -0.15654818454E+03 -0.83441250701E+03  0.85246763986E+03  0.77000000000E+02 0.  0.
   -5000001    1    1    2    0    0 -0.45289138146E+01  0.15654818454E+03 -0.80456148245E+03  0.82327153734E+03  0.77000000000E+02 0.  0.
<mgrwt>
<rscale>  0 0.34909319E+03</rscale>
<asrwt>0</asrwt>
<pdfrwt beam="1">  1        2 0.25497782E+00 0.34909319E+03</pdfrwt>
<pdfrwt beam="2">  1       -2 0.28280927E-02 0.34909319E+03</pdfrwt>
<totfact> 0.52123762E+03</totfact>
</mgrwt>
</event>
<event>
 4    1  0.1195463E-003  0.3845334E+03  0.7818608E-02  0.1049271E+00
         -2   -1    0    0    0  501 -0.00000000000E+00  0.00000000000E+00  0.15385765958E+03  0.15385765960E+03  0.25500000000E-02 0. -1.
          2   -1    0    0  501    0  0.00000000000E+00 -0.00000000000E+00 -0.24026423224E+03  0.24026423225E+03  0.25500000000E-02 0.  1.
    5000001    1    1    2    0    0  0.10132118368E+03 -0.13602827953E+03  0.56057776224E+01  0.18636013479E+03  0.77000000000E+02 0.  0.
   -5000001    1    1    2    0    0 -0.10132118368E+03  0.13602827953E+03 -0.92012350281E+02  0.20776175707E+03  0.77000000000E+02 0.  0.
<mgrwt>
<rscale>  0 0.38453344E+03</rscale>
<asrwt>0</asrwt>
<pdfrwt beam="1">  1        2 0.36963728E-01 0.38453344E+03</pdfrwt>
<pdfrwt beam="2">  1       -2 0.23670409E-01 0.38453344E+03</pdfrwt>
<totfact> 0.21950918E+03</totfact>
</mgrwt>
</event>
<event>
 4    1  0.1195463E-003  0.2332691E+03  0.7818608E-02  0.1124360E+00
          2   -1    0    0  501    0  0.00000000000E+00  0.00000000000E+00  0.62646941965E+03  0.62646941965E+03  0.25500000000E-02 0.  1.
         -2   -1    0    0    0  501 -0.00000000000E+00 -0.00000000000E+00 -0.21714736553E+02  0.21714736703E+02  0.25500000000E-02 0. -1.
    5000001    1    1    2    0    0  0.33901804551E+02  0.64401164659E+02  0.16688127975E+03  0.19767448974E+03  0.77000000000E+02 0.  0.
   -5000001    1    1    2    0    0 -0.33901804551E+02 -0.64401164659E+02  0.43787340334E+03  0.45050966662E+03  0.77000000000E+02 0.  0.
<mgrwt>
<rscale>  0 0.23326910E+03</rscale>
<asrwt>0</asrwt>
<pdfrwt beam="1">  1        2 0.96379910E-01 0.23326910E+03</pdfrwt>
<pdfrwt beam="2">  1       -2 0.33407287E-02 0.23326910E+03</pdfrwt>
<totfact> 0.17024561E+04</totfact>
</mgrwt>
</event>
<event>
 4    1  0.1195463E-003  0.4087989E+03  0.7818608E-02  0.1040775E+00
         -2   -1    0    0    0  501 -0.00000000000E+00  0.00000000000E+00  0.44122640155E+03  0.44122640156E+03  0.25500000000E-02 0. -1.
          2   -1    0    0  501    0  0.00000000000E+00 -0.00000000000E+00 -0.94688639797E+02  0.94688639831E+02  0.25500000000E-02 0.  1.
    5000001    1    1    2    0    0 -0.15628054517E+03 -0.93860547381E+02  0.10620871611E+03  0.22459452916E+03  0.77000000000E+02 0.  0.
   -5000001    1    1    2    0    0  0.15628054517E+03  0.93860547381E+02  0.24032904565E+03  0.31132051223E+03  0.77000000000E+02 0.  0.
<mgrwt>
<rscale>  0 0.40879886E+03</rscale>
<asrwt>0</asrwt>
<pdfrwt beam="1">  1        2 0.14567483E-01 0.40879886E+03</pdfrwt>
<pdfrwt beam="2">  1       -2 0.67880985E-01 0.40879886E+03</pdfrwt>
<totfact> 0.82812152E+02</totfact>
</mgrwt>
</event>
<event>
 4    1  0.1195463E-003  0.2413074E+03  0.7818608E-02  0.1118925E+00
          2   -1    0    0  501    0  0.00000000000E+00  0.00000000000E+00  0.31715941667E+04  0.31715941667E+04  0.25500000000E-02 0.  1.
         -2   -1    0    0    0  501 -0.00000000000E+00 -0.00000000000E+00 -0.45899025948E+01  0.45899033032E+01  0.25500000000E-02 0. -1.
    5000001    1    1    2    0    0 -0.28558563111E+02  0.76892261161E+02  0.21572828828E+04  0.21602144449E+04  0.77000000000E+02 0.  0.
   -5000001    1    1    2    0    0  0.28558563111E+02 -0.76892261161E+02  0.10097213813E+04  0.10159696251E+04  0.77000000000E+02 0.  0.
<mgrwt>
<rscale>  0 0.24130735E+03</rscale>
<asrwt>0</asrwt>
<pdfrwt beam="1">  1        2 0.48793920E+00 0.24130735E+03</pdfrwt>
<pdfrwt beam="2">  1       -2 0.70613655E-03 0.24130735E+03</pdfrwt>
<totfact> 0.58078031E+03</totfact>
</mgrwt>
</event>
<event>
 4    1  0.1195463E-003  0.2301356E+03  0.7818608E-02  0.1126544E+00
          2   -1    0    0  501    0  0.00000000000E+00  0.00000000000E+00  0.34219326825E+03  0.34219326826E+03  0.25500000000E-02 0.  1.
         -2   -1    0    0    0  501 -0.00000000000E+00 -0.00000000000E+00 -0.38693323987E+02  0.38693324071E+02  0.25500000000E-02 0. -1.
    5000001    1    1    2    0    0  0.68074499025E+02 -0.45362237986E+02  0.19295132083E+03  0.22327355926E+03  0.77000000000E+02 0.  0.
   -5000001    1    1    2    0    0 -0.68074499025E+02  0.45362237986E+02  0.11054862344E+03  0.15761303308E+03  0.77000000000E+02 0.  0.
<mgrwt>
<rscale>  0 0.23013557E+03</rscale>
<asrwt>0</asrwt>
<pdfrwt beam="1">  1        2 0.52645118E-01 0.23013557E+03</pdfrwt>
<pdfrwt beam="2">  1       -2 0.59528191E-02 0.23013557E+03</pdfrwt>
<totfact> 0.13911665E+04</totfact>
</mgrwt>
</event>
<event>
 4    1  0.1195463E-003  0.3572454E+03  0.7818608E-02  0.1059680E+00
         -2   -1    0    0    0  501 -0.00000000000E+00  0.00000000000E+00  0.27991190049E+03  0.27991190050E+03  0.25500000000E-02 0. -1.
          2   -1    0    0  501    0  0.00000000000E+00 -0.00000000000E+00 -0.11398612080E+03  0.11398612083E+03  0.25500000000E-02 0.  1.
    5000001    1    1    2    0    0  0.57760228653E+02 -0.14716980646E+03  0.11751267931E+03  0.21150277952E+03  0.77000000000E+02 0.  0.
   -5000001    1    1    2    0    0 -0.57760228653E+02  0.14716980646E+03  0.48413100382E+02  0.18239524181E+03  0.77000000000E+02 0.  0.
<mgrwt>
<rscale>  0 0.35724542E+03</rscale>
<asrwt>0</asrwt>
<pdfrwt beam="1">  1        2 0.17536327E-01 0.35724542E+03</pdfrwt>
<pdfrwt beam="2">  1       -2 0.43063369E-01 0.35724542E+03</pdfrwt>
<totfact> 0.16807416E+03</totfact>
</mgrwt>
</event>
<event>
 4    1  0.1195463E-003  0.1971908E+03  0.7818608E-02  0.1152131E+00
          2   -1    0    0  501    0  0.00000000000E+00  0.00000000000E+00  0.10125702825E+04  0.10125702825E+04  0.25500000000E-02 0.  1.
         -2   -1    0    0    0  501 -0.00000000000E+00 -0.00000000000E+00 -0.96003730835E+01  0.96003734221E+01  0.25500000000E-02 0. -1.
    5000001    1    1    2    0    0  0.50083888771E+02  0.33320868607E+02  0.43323036941E+03  0.44411285635E+03  0.77000000000E+02 0.  0.
   -5000001    1    1    2    0    0 -0.50083888771E+02 -0.33320868607E+02  0.56973953999E+03  0.57805779956E+03  0.77000000000E+02 0.  0.
<mgrwt>
<rscale>  0 0.19719080E+03</rscale>
<asrwt>0</asrwt>
<pdfrwt beam="1">  1        2 0.15578006E+00 0.19719080E+03</pdfrwt>
<pdfrwt beam="2">  1       -2 0.14769804E-02 0.19719080E+03</pdfrwt>
<totfact> 0.30378791E+04</totfact>
</mgrwt>
</event>
<event>
 4    1  0.1195463E-003  0.2079032E+03  0.7818608E-02  0.1143237E+00
          2   -1    0    0  501    0  0.00000000000E+00  0.00000000000E+00  0.20963792143E+04  0.20963792143E+04  0.25500000000E-02 0.  1.
         -2   -1    0    0    0  501 -0.00000000000E+00 -0.00000000000E+00 -0.51545709759E+01  0.51545716066E+01  0.25500000000E-02 0. -1.
    5000001    1    1    2    0    0 -0.45658906634E+02 -0.23374885241E+02  0.56658290709E+03  0.57408737281E+03  0.77000000000E+02 0.  0.
   -5000001    1    1    2    0    0  0.45658906634E+02  0.23374885241E+02  0.15246417363E+04  0.15274464131E+04  0.77000000000E+02 0.  0.
<mgrwt>
<rscale>  0 0.20790321E+03</rscale>
<asrwt>0</asrwt>
<pdfrwt beam="1">  1        2 0.32252019E+00 0.20790321E+03</pdfrwt>
<pdfrwt beam="2">  1       -2 0.79301021E-03 0.20790321E+03</pdfrwt>
<totfact> 0.19547888E+04</totfact>
</mgrwt>
</event>
<event>
 4    1  0.1195463E-003  0.3281139E+03  0.7818608E-02  0.1071974E+00
          2   -1    0    0  501    0  0.00000000000E+00  0.00000000000E+00  0.10479883821E+03  0.10479883824E+03  0.25500000000E-02 0.  1.
         -2   -1    0    0    0  501 -0.00000000000E+00 -0.00000000000E+00 -0.25682226980E+03  0.25682226981E+03  0.25500000000E-02 0. -1.
    5000001    1    1    2    0    0  0.34869021119E+02  0.88904819614E+02  0.44042380070E+02  0.13034050340E+03  0.77000000000E+02 0.  0.
   -5000001    1    1    2    0    0 -0.34869021119E+02 -0.88904819614E+02 -0.19606581166E+03  0.23128060465E+03  0.77000000000E+02 0.  0.
<mgrwt>
<rscale>  0 0.32811386E+03</rscale>
<asrwt>0</asrwt>
<pdfrwt beam="1">  1        2 0.16122898E-01 0.32811386E+03</pdfrwt>
<pdfrwt beam="2">  1       -2 0.39511118E-01 0.32811386E+03</pdfrwt>
<totfact> 0.21879504E+03</totfact>
</mgrwt>
</event>
<event>
 4    1  0.1195463E-003  0.1750738E+03  0.7818608E-02  0.1172658E+00
          2   -1    0    0  501    0  0.00000000000E+00  0.00000000000E+00  0.29932686433E+03  0.29932686434E+03  0.25500000000E-02 0.  1.
         -2   -1    0    0    0  501 -0.00000000000E+00 -0.00000000000E+00 -0.25599792917E+02  0.25599793044E+02  0.25500000000E-02 0. -1.
    5000001    1    1    2    0    0  0.39452648909E+02 -0.90139585196E+01  0.11868451484E+03  0.14714882608E+03  0.77000000000E+02 0.  0.
   -5000001    1    1    2    0    0 -0.39452648909E+02  0.90139585196E+01  0.15504255657E+03  0.17777783130E+03  0.77000000000E+02 0.  0.
<mgrwt>
<rscale>  0 0.17507376E+03</rscale>
<asrwt>0</asrwt>
<pdfrwt beam="1">  1        2 0.46050290E-01 0.17507376E+03</pdfrwt>
<pdfrwt beam="2">  1       -2 0.39384295E-02 0.17507376E+03</pdfrwt>
<totfact> 0.29357693E+04</totfact>
</mgrwt>
</event>
<event>
 4    1  0.1195463E-003  0.3261239E+03  0.7818608E-02  0.1072865E+00
         -2   -1    0    0    0  501 -0.00000000000E+00  0.00000000000E+00  0.10079908628E+02  0.10079908951E+02  0.25500000000E-02 0. -1.
          2   -1    0    0  501    0  0.00000000000E+00 -0.00000000000E+00 -0.26378412278E+04  0.26378412278E+04  0.25500000000E-02 0.  1.
    5000001    1    1    2    0    0 -0.81077911192E+02  0.11298189930E+03 -0.10187036146E+04  0.10310308393E+04  0.77000000000E+02 0.  0.
   -5000001    1    1    2    0    0  0.81077911192E+02 -0.11298189930E+03 -0.16090577046E+04  0.16168902974E+04  0.77000000000E+02 0.  0.
<mgrwt>
<rscale>  0 0.32612390E+03</rscale>
<asrwt>0</asrwt>
<pdfrwt beam="1">  1        2 0.40582118E+00 0.32612390E+03</pdfrwt>
<pdfrwt beam="2">  1       -2 0.15507573E-02 0.32612390E+03</pdfrwt>
<totfact> 0.37696606E+03</totfact>
</mgrwt>
</event>
<event>
 4    1  0.1195463E-003  0.3195898E+03  0.7818608E-02  0.1075838E+00
         -2   -1    0    0    0  501 -0.00000000000E+00  0.00000000000E+00  0.13730324490E+02  0.13730324727E+02  0.25500000000E-02 0.  1.
          2   -1    0    0  501    0  0.00000000000E+00 -0.00000000000E+00 -0.18597094329E+04  0.18597094329E+04  0.25500000000E-02 0. -1.
    5000001    1    1    2    0    0 -0.11803303043E+03  0.46927912342E+02 -0.57760856690E+03  0.59640144349E+03  0.77000000000E+02 0.  0.
   -5000001    1    1    2    0    0  0.11803303043E+03 -0.46927912342E+02 -0.12683705415E+04  0.12770383141E+04  0.77000000000E+02 0.  0.
<mgrwt>
<rscale>  0 0.31958983E+03</rscale>
<asrwt>0</asrwt>
<pdfrwt beam="1">  1        2 0.28610894E+00 0.31958983E+03</pdfrwt>
<pdfrwt beam="2">  1       -2 0.21123591E-02 0.31958983E+03</pdfrwt>
<totfact> 0.62848903E+03</totfact>
</mgrwt>
</event>
<event>
 4    1  0.1195463E-003  0.2623673E+03  0.7818608E-02  0.1105729E+00
          2   -1    0    0  501    0  0.00000000000E+00  0.00000000000E+00  0.72962566224E+03  0.72962566225E+03  0.25500000000E-02 0.  1.
         -2   -1    0    0    0  501 -0.00000000000E+00 -0.00000000000E+00 -0.23586281100E+02  0.23586281238E+02  0.25500000000E-02 0. -1.
    5000001    1    1    2    0    0  0.10435380848E+03  0.26670806709E+01  0.40922679215E+03  0.42929290476E+03  0.77000000000E+02 0.  0.
   -5000001    1    1    2    0    0 -0.10435380848E+03 -0.26670806709E+01  0.29681258899E+03  0.32391903873E+03  0.77000000000E+02 0.  0.
<mgrwt>
<rscale>  0 0.26236735E+03</rscale>
<asrwt>0</asrwt>
<pdfrwt beam="1">  1        2 0.11225010E+00 0.26236735E+03</pdfrwt>
<pdfrwt beam="2">  1       -2 0.36286587E-02 0.26236735E+03</pdfrwt>
<totfact> 0.12606011E+04</totfact>
</mgrwt>
</event>
<event>
 4    1  0.1195463E-003  0.3389598E+03  0.7818608E-02  0.1067240E+00
          2   -1    0    0  501    0  0.00000000000E+00  0.00000000000E+00  0.17057858698E+04  0.17057858698E+04  0.25500000000E-02 0.  1.
         -2   -1    0    0    0  501 -0.00000000000E+00 -0.00000000000E+00 -0.16838826845E+02  0.16838827038E+02  0.25500000000E-02 0. -1.
    5000001    1    1    2    0    0 -0.97236276923E+02  0.85177931197E+02  0.12408851327E+04  0.12499740342E+04  0.77000000000E+02 0.  0.
   -5000001    1    1    2    0    0  0.97236276923E+02 -0.85177931197E+02  0.44806191026E+03  0.47265066268E+03  0.77000000000E+02 0.  0.
<mgrwt>
<rscale>  0 0.33895978E+03</rscale>
<asrwt>0</asrwt>
<pdfrwt beam="1">  1        2 0.26242868E+00 0.33895978E+03</pdfrwt>
<pdfrwt beam="2">  1       -2 0.25905879E-02 0.33895978E+03</pdfrwt>
<totfact> 0.55993843E+03</totfact>
</mgrwt>
</event>
<event>
 4    1  0.1195463E-003  0.2437996E+03  0.7818608E-02  0.1117287E+00
          2   -1    0    0  501    0  0.00000000000E+00  0.00000000000E+00  0.13715197766E+04  0.13715197766E+04  0.25500000000E-02 0.  1.
         -2   -1    0    0    0  501 -0.00000000000E+00 -0.00000000000E+00 -0.10834376178E+02  0.10834376478E+02  0.25500000000E-02 0. -1.
    5000001    1    1    2    0    0  0.65410304677E+02  0.61922778309E+02  0.51821289049E+03  0.53158869279E+03  0.77000000000E+02 0.  0.
   -5000001    1    1    2    0    0 -0.65410304677E+02 -0.61922778309E+02  0.84247250991E+03  0.85076546027E+03  0.77000000000E+02 0.  0.
<mgrwt>
<rscale>  0 0.24379960E+03</rscale>
<asrwt>0</asrwt>
<pdfrwt beam="1">  1        2 0.21100307E+00 0.24379960E+03</pdfrwt>
<pdfrwt beam="2">  1       -2 0.16668269E-02 0.24379960E+03</pdfrwt>
<totfact> 0.16107209E+04</totfact>
</mgrwt>
</event>
<event>
 4    1  0.1195463E-003  0.2926842E+03  0.7818608E-02  0.1088956E+00
         -2   -1    0    0    0  501 -0.00000000000E+00  0.00000000000E+00  0.32679610908E+02  0.32679611008E+02  0.25500000000E-02 0. -1.
          2   -1    0    0  501    0  0.00000000000E+00 -0.00000000000E+00 -0.65533231577E+03  0.65533231577E+03  0.25500000000E-02 0.  1.
    5000001    1    1    2    0    0  0.98271472582E+02  0.62374921399E+02 -0.41483960284E+03  0.43768574254E+03  0.77000000000E+02 0.  0.
   -5000001    1    1    2    0    0 -0.98271472582E+02 -0.62374921399E+02 -0.20781310202E+03  0.25032618424E+03  0.77000000000E+02 0.  0.
<mgrwt>
<rscale>  0 0.29268417E+03</rscale>
<asrwt>0</asrwt>
<pdfrwt beam="1">  1        2 0.10082035E+00 0.29268417E+03</pdfrwt>
<pdfrwt beam="2">  1       -2 0.50276330E-02 0.29268417E+03</pdfrwt>
<totfact> 0.88096439E+03</totfact>
</mgrwt>
</event>
<event>
 4    1  0.1195463E-003  0.3179139E+03  0.7818608E-02  0.1076613E+00
         -2   -1    0    0    0  501 -0.00000000000E+00  0.00000000000E+00  0.11957838134E+02  0.11957838405E+02  0.25500000000E-02 0. -1.
          2   -1    0    0  501    0  0.00000000000E+00 -0.00000000000E+00 -0.21130336623E+04  0.21130336623E+04  0.25500000000E-02 0.  1.
    5000001    1    1    2    0    0  0.11655522395E+03  0.75170776075E+02 -0.98284965231E+03  0.99556928681E+03  0.77000000000E+02 0.  0.
   -5000001    1    1    2    0    0 -0.11655522395E+03 -0.75170776075E+02 -0.11182261718E+04  0.11294222139E+04  0.77000000000E+02 0.  0.
<mgrwt>
<rscale>  0 0.31791392E+03</rscale>
<asrwt>0</asrwt>
<pdfrwt beam="1">  1        2 0.32508180E+00 0.31791392E+03</pdfrwt>
<pdfrwt beam="2">  1       -2 0.18396691E-02 0.31791392E+03</pdfrwt>
<totfact> 0.56615007E+03</totfact>
</mgrwt>
</event>
<event>
 4    1  0.1195463E-003  0.3637026E+03  0.7818608E-02  0.1057127E+00
          2   -1    0    0  501    0  0.00000000000E+00  0.00000000000E+00  0.25557183639E+03  0.25557183640E+03  0.25500000000E-02 0.  1.
         -2   -1    0    0    0  501 -0.00000000000E+00 -0.00000000000E+00 -0.12939567804E+03  0.12939567807E+03  0.25500000000E-02 0. -1.
    5000001    1    1    2    0    0  0.14075682189E+03  0.20895364916E+02 -0.24782559355E+02  0.16368345803E+03  0.77000000000E+02 0.  0.
   -5000001    1    1    2    0    0 -0.14075682189E+03 -0.20895364916E+02  0.15095871770E+03  0.22128405644E+03  0.77000000000E+02 0.  0.
<mgrwt>
<rscale>  0 0.36370258E+03</rscale>
<asrwt>0</asrwt>
<pdfrwt beam="1">  1        2 0.39318744E-01 0.36370258E+03</pdfrwt>
<pdfrwt beam="2">  1       -2 0.19907028E-01 0.36370258E+03</pdfrwt>
<totfact> 0.27719453E+03</totfact>
</mgrwt>
</event>
<event>
 4    1  0.1195463E-003  0.3569763E+03  0.7818608E-02  0.1059788E+00
          2   -1    0    0  501    0  0.00000000000E+00  0.00000000000E+00  0.10067541899E+03  0.10067541902E+03  0.25500000000E-02 0.  1.
         -2   -1    0    0    0  501 -0.00000000000E+00 -0.00000000000E+00 -0.31644289510E+03  0.31644289511E+03  0.25500000000E-02 0. -1.
    5000001    1    1    2    0    0  0.18528270583E+02 -0.78328950036E+02 -0.27084448838E+03  0.29285569503E+03  0.77000000000E+02 0.  0.
   -5000001    1    1    2    0    0 -0.18528270583E+02  0.78328950036E+02  0.55077012274E+02  0.12426261910E+03  0.77000000000E+02 0.  0.
<mgrwt>
<rscale>  0 0.35697631E+03</rscale>
<asrwt>0</asrwt>
<pdfrwt beam="1">  1        2 0.15488526E-01 0.35697631E+03</pdfrwt>
<pdfrwt beam="2">  1       -2 0.48683522E-01 0.35697631E+03</pdfrwt>
<totfact> 0.15282543E+03</totfact>
</mgrwt>
</event>
<event>
 4    1  0.1195463E-003  0.2373774E+03  0.7818608E-02  0.1121552E+00
          2   -1    0    0  501    0  0.00000000000E+00  0.00000000000E+00  0.11003922436E+03  0.11003922439E+03  0.25500000000E-02 0.  1.
         -2   -1    0    0    0  501 -0.00000000000E+00 -0.00000000000E+00 -0.12801802381E+03  0.12801802384E+03  0.25500000000E-02 0. -1.
    5000001    1    1    2    0    0  0.78023861575E+02 -0.38062637366E+02  0.16012240396E+02  0.11714042505E+03  0.77000000000E+02 0.  0.
   -5000001    1    1    2    0    0 -0.78023861575E+02  0.38062637366E+02 -0.33991039845E+02  0.12091682318E+03  0.77000000000E+02 0.  0.
<mgrwt>
<rscale>  0 0.23737737E+03</rscale>
<asrwt>0</asrwt>
<pdfrwt beam="1">  1        2 0.16929112E-01 0.23737737E+03</pdfrwt>
<pdfrwt beam="2">  1       -2 0.19695080E-01 0.23737737E+03</pdfrwt>
<totfact> 0.71592959E+03</totfact>
</mgrwt>
</event>
<event>
 4    1  0.1195463E-003  0.3912453E+03  0.7818608E-02  0.1046854E+00
          2   -1    0    0  501    0  0.00000000000E+00  0.00000000000E+00  0.11730248075E+04  0.11730248075E+04  0.25500000000E-02 0.  1.
         -2   -1    0    0    0  501 -0.00000000000E+00 -0.00000000000E+00 -0.32623538187E+02  0.32623538286E+02  0.25500000000E-02 0. -1.
    5000001    1    1    2    0    0 -0.16385859237E+03  0.49465258510E+02  0.74018385867E+03  0.76360827308E+03  0.77000000000E+02 0.  0.
   -5000001    1    1    2    0    0  0.16385859237E+03 -0.49465258510E+02  0.40021741063E+03  0.44204007269E+03  0.77000000000E+02 0.  0.
<mgrwt>
<rscale>  0 0.39124529E+03</rscale>
<asrwt>0</asrwt>
<pdfrwt beam="1">  1        2 0.18046535E+00 0.39124529E+03</pdfrwt>
<pdfrwt beam="2">  1       -2 0.50190059E-02 0.39124529E+03</pdfrwt>
<totfact> 0.40458929E+03</totfact>
</mgrwt>
</event>
<event>
 4    1  0.1195463E-003  0.4677477E+03  0.7818608E-02  0.1022558E+00
          2   -1    0    0  501    0  0.00000000000E+00  0.00000000000E+00  0.40035946006E+03  0.40035946007E+03  0.25500000000E-02 0.  1.
         -2   -1    0    0    0  501 -0.00000000000E+00 -0.00000000000E+00 -0.13661964473E+03  0.13661964475E+03  0.25500000000E-02 0. -1.
    5000001    1    1    2    0    0 -0.19805538201E+03 -0.78585977502E+02  0.19847703332E+03  0.30120395575E+03  0.77000000000E+02 0.  0.
   -5000001    1    1    2    0    0  0.19805538201E+03  0.78585977502E+02  0.65262782004E+02  0.23577514907E+03  0.77000000000E+02 0.  0.
<mgrwt>
<rscale>  0 0.46774766E+03</rscale>
<asrwt>0</asrwt>
<pdfrwt beam="1">  1        2 0.61593763E-01 0.46774766E+03</pdfrwt>
<pdfrwt beam="2">  1       -2 0.21018407E-01 0.46774766E+03</pdfrwt>
<totfact> 0.15479787E+03</totfact>
</mgrwt>
</event>
<event>
 4    1  0.1195463E-003  0.2485569E+03  0.7818608E-02  0.1114220E+00
         -2   -1    0    0    0  501 -0.00000000000E+00  0.00000000000E+00  0.14562873608E+04  0.14562873608E+04  0.25500000000E-02 0. -1.
          2   -1    0    0  501    0  0.00000000000E+00 -0.00000000000E+00 -0.10605830545E+02  0.10605830852E+02  0.25500000000E-02 0.  1.
    5000001    1    1    2    0    0 -0.48200235777E+02  0.77686670246E+02  0.92364012603E+03  0.93134234515E+03  0.77000000000E+02 0.  0.
   -5000001    1    1    2    0    0  0.48200235777E+02 -0.77686670246E+02  0.52204140424E+03  0.53555084651E+03  0.77000000000E+02 0.  0.
<mgrwt>
<rscale>  0 0.24855693E+03</rscale>
<asrwt>0</asrwt>
<pdfrwt beam="1">  1        2 0.16316676E-02 0.24855693E+03</pdfrwt>
<pdfrwt beam="2">  1       -2 0.22404403E+00 0.24855693E+03</pdfrwt>
<totfact> 0.74251369E+02</totfact>
</mgrwt>
</event>
<event>
 4    1  0.1195463E-003  0.2534040E+03  0.7818608E-02  0.1111172E+00
         -2   -1    0    0    0  501 -0.00000000000E+00  0.00000000000E+00  0.37212838306E+03  0.37212838307E+03  0.25500000000E-02 0. -1.
          2   -1    0    0  501    0  0.00000000000E+00 -0.00000000000E+00 -0.43139419074E+02  0.43139419149E+02  0.25500000000E-02 0.  1.
    5000001    1    1    2    0    0  0.38759009139E+02  0.78134422725E+02  0.24671298549E+03  0.27277013402E+03  0.77000000000E+02 0.  0.
   -5000001    1    1    2    0    0 -0.38759009139E+02 -0.78134422725E+02  0.82275978494E+02  0.14249766820E+03  0.77000000000E+02 0.  0.
<mgrwt>
<rscale>  0 0.25340404E+03</rscale>
<asrwt>0</asrwt>
<pdfrwt beam="1">  1        2 0.66368337E-02 0.25340404E+03</pdfrwt>
<pdfrwt beam="2">  1       -2 0.57250521E-01 0.25340404E+03</pdfrwt>
<totfact> 0.31319247E+03</totfact>
</mgrwt>
</event>
<event>
 4    1  0.1195463E-003  0.3812466E+03  0.7818608E-02  0.1050474E+00
         -2   -1    0    0    0  501 -0.00000000000E+00  0.00000000000E+00  0.22452654297E+02  0.22452654442E+02  0.25500000000E-02 0. -1.
          2   -1    0    0  501    0  0.00000000000E+00 -0.00000000000E+00 -0.16183938517E+04  0.16183938517E+04  0.25500000000E-02 0.  1.
    5000001    1    1    2    0    0 -0.16935958185E+03 -0.28096521049E+02 -0.92965549405E+03  0.94850430683E+03  0.77000000000E+02 0.  0.
   -5000001    1    1    2    0    0  0.16935958185E+03  0.28096521049E+02 -0.66628570339E+03  0.69234219935E+03  0.77000000000E+02 0.  0.
<mgrwt>
<rscale>  0 0.38124658E+03</rscale>
<asrwt>0</asrwt>
<pdfrwt beam="1">  1        2 0.24898358E+00 0.38124658E+03</pdfrwt>
<pdfrwt beam="2">  1       -2 0.34542558E-02 0.38124658E+03</pdfrwt>
<totfact> 0.40482439E+03</totfact>
</mgrwt>
</event>
<event>
 4    1  0.1195463E-003  0.2616157E+03  0.7818608E-02  0.1106176E+00
          2   -1    0    0  501    0  0.00000000000E+00  0.00000000000E+00  0.61234812365E+03  0.61234812366E+03  0.25500000000E-02 0.  1.
         -2   -1    0    0    0  501 -0.00000000000E+00 -0.00000000000E+00 -0.27942762215E+02  0.27942762332E+02  0.25500000000E-02 0. -1.
    5000001    1    1    2    0    0  0.43172163699E+02  0.95159543281E+02  0.33185765586E+03  0.35633927393E+03  0.77000000000E+02 0.  0.
   -5000001    1    1    2    0    0 -0.43172163699E+02 -0.95159543281E+02  0.25254770558E+03  0.28395161206E+03  0.77000000000E+02 0.  0.
<mgrwt>
<rscale>  0 0.26161573E+03</rscale>
<asrwt>0</asrwt>
<pdfrwt beam="1">  1        2 0.94207398E-01 0.26161573E+03</pdfrwt>
<pdfrwt beam="2">  1       -2 0.42988867E-02 0.26161573E+03</pdfrwt>
<totfact> 0.12048414E+04</totfact>
</mgrwt>
</event>
<event>
 4    1  0.1195463E-003  0.1960500E+03  0.7818608E-02  0.1153115E+00
          2   -1    0    0  501    0  0.00000000000E+00  0.00000000000E+00  0.73542612880E+03  0.73542612880E+03  0.25500000000E-02 0.  1.
         -2   -1    0    0    0  501 -0.00000000000E+00 -0.00000000000E+00 -0.13065758062E+02  0.13065758311E+02  0.25500000000E-02 0. -1.
    5000001    1    1    2    0    0  0.46346299395E+02  0.89203385722E+01  0.21568265565E+03  0.23382805618E+03  0.77000000000E+02 0.  0.
   -5000001    1    1    2    0    0 -0.46346299395E+02 -0.89203385722E+01  0.50667771509E+03  0.51466383093E+03  0.77000000000E+02 0.  0.
<mgrwt>
<rscale>  0 0.19604999E+03</rscale>
<asrwt>0</asrwt>
<pdfrwt beam="1">  1        2 0.11314254E+00 0.19604999E+03</pdfrwt>
<pdfrwt beam="2">  1       -2 0.20101157E-02 0.19604999E+03</pdfrwt>
<totfact> 0.29413348E+04</totfact>
</mgrwt>
</event>
<event>
 4    1  0.1195463E-003  0.1953826E+03  0.7818608E-02  0.1153694E+00
          2   -1    0    0  501    0  0.00000000000E+00  0.00000000000E+00  0.15898998470E+02  0.15898998674E+02  0.25500000000E-02 0.  1.
         -2   -1    0    0    0  501 -0.00000000000E+00 -0.00000000000E+00 -0.60026389537E+03  0.60026389538E+03  0.25500000000E-02 0. -1.
    5000001    1    1    2    0    0  0.54731188349E+02 -0.22616554514E+02 -0.32489255696E+03  0.33910350203E+03  0.77000000000E+02 0.  0.
   -5000001    1    1    2    0    0 -0.54731188349E+02  0.22616554514E+02 -0.25947233994E+03  0.27705939203E+03  0.77000000000E+02 0.  0.
<mgrwt>
<rscale>  0 0.19538265E+03</rscale>
<asrwt>0</asrwt>
<pdfrwt beam="1">  1        2 0.24460002E-02 0.19538265E+03</pdfrwt>
<pdfrwt beam="2">  1       -2 0.92348274E-01 0.19538265E+03</pdfrwt>
<totfact> 0.41732137E+03</totfact>
</mgrwt>
</event>
<event>
 4    1  0.1195463E-003  0.2554114E+03  0.7818608E-02  0.1109932E+00
         -2   -1    0    0    0  501 -0.00000000000E+00  0.00000000000E+00  0.95482701672E+01  0.95482705077E+01  0.25500000000E-02 0. -1.
          2   -1    0    0  501    0  0.00000000000E+00 -0.00000000000E+00 -0.17080310912E+04  0.17080310912E+04  0.25500000000E-02 0.  1.
    5000001    1    1    2    0    0 -0.79612862264E+02 -0.11478467396E+02 -0.42875427469E+03  0.44297764178E+03  0.77000000000E+02 0.  0.
   -5000001    1    1    2    0    0  0.79612862264E+02  0.11478467396E+02 -0.12697285464E+04  0.12746017200E+04  0.77000000000E+02 0.  0.
<mgrwt>
<rscale>  0 0.25541137E+03</rscale>
<asrwt>0</asrwt>
<pdfrwt beam="1">  1        2 0.26277377E+00 0.25541137E+03</pdfrwt>
<pdfrwt beam="2">  1       -2 0.14689660E-02 0.25541137E+03</pdfrwt>
<totfact> 0.12844303E+04</totfact>
</mgrwt>
</event>
<event>
 4    1  0.1195463E-003  0.2519378E+03  0.7818608E-02  0.1112086E+00
         -2   -1    0    0    0  501 -0.00000000000E+00  0.00000000000E+00  0.15952575207E+02  0.15952575410E+02  0.25500000000E-02 0.  1.
          2   -1    0    0  501    0  0.00000000000E+00 -0.00000000000E+00 -0.99470893728E+03  0.99470893728E+03  0.25500000000E-02 0. -1.
    5000001    1    1    2    0    0  0.59493731314E+02 -0.45441272134E+02 -0.22526222072E+03  0.24955256233E+03  0.77000000000E+02 0.  0.
   -5000001    1    1    2    0    0 -0.59493731314E+02  0.45441272134E+02 -0.75349414135E+03  0.76110895037E+03  0.77000000000E+02 0.  0.
<mgrwt>
<rscale>  0 0.25193784E+03</rscale>
<asrwt>0</asrwt>
<pdfrwt beam="1">  1        2 0.15303210E+00 0.25193784E+03</pdfrwt>
<pdfrwt beam="2">  1       -2 0.24542431E-02 0.25193784E+03</pdfrwt>
<totfact> 0.15007381E+04</totfact>
</mgrwt>
</event>
<event>
 4    1  0.1195463E-003  0.3756270E+03  0.7818608E-02  0.1052562E+00
          2   -1    0    0  501    0  0.00000000000E+00  0.00000000000E+00  0.28448178074E+04  0.28448178074E+04  0.25500000000E-02 0.  1.
         -2   -1    0    0    0  501 -0.00000000000E+00 -0.00000000000E+00 -0.12399359032E+02  0.12399359294E+02  0.25500000000E-02 0. -1.
    5000001    1    1    2    0    0  0.14974862667E+03 -0.79472106833E+02  0.12291983402E+04  0.12432208277E+04  0.77000000000E+02 0.  0.
   -5000001    1    1    2    0    0 -0.14974862667E+03  0.79472106833E+02  0.16032201081E+04  0.16139963389E+04  0.77000000000E+02 0.  0.
<mgrwt>
<rscale>  0 0.37562704E+03</rscale>
<asrwt>0</asrwt>
<pdfrwt beam="1">  1        2 0.43766509E+00 0.37562704E+03</pdfrwt>
<pdfrwt beam="2">  1       -2 0.19075902E-02 0.37562704E+03</pdfrwt>
<totfact> 0.21056439E+03</totfact>
</mgrwt>
</event>
<event>
 4    1  0.1195463E-003  0.1829734E+03  0.7818608E-02  0.1164956E+00
          2   -1    0    0  501    0  0.00000000000E+00  0.00000000000E+00  0.16999680473E+04  0.16999680473E+04  0.25500000000E-02 0.  1.
         -2   -1    0    0    0  501 -0.00000000000E+00 -0.00000000000E+00 -0.49235121750E+01  0.49235128353E+01  0.25500000000E-02 0. -1.
    5000001    1    1    2    0    0 -0.34792308157E+02  0.33868806815E+02  0.76252501802E+03  0.76793945326E+03  0.77000000000E+02 0.  0.
   -5000001    1    1    2    0    0  0.34792308157E+02 -0.33868806815E+02  0.93251951715E+03  0.93695210692E+03  0.77000000000E+02 0.  0.
<mgrwt>
<rscale>  0 0.18297337E+03</rscale>
<asrwt>0</asrwt>
<pdfrwt beam="1">  1        2 0.26153408E+00 0.18297337E+03</pdfrwt>
<pdfrwt beam="2">  1       -2 0.75746191E-03 0.18297337E+03</pdfrwt>
<totfact> 0.33338893E+04</totfact>
</mgrwt>
</event>
<event>
 4    1  0.1195463E-003  0.1919648E+03  0.7818608E-02  0.1156701E+00
          2   -1    0    0  501    0  0.00000000000E+00  0.00000000000E+00  0.13953687011E+04  0.13953687011E+04  0.25500000000E-02 0.  1.
         -2   -1    0    0    0  501 -0.00000000000E+00 -0.00000000000E+00 -0.66022873397E+01  0.66022878322E+01  0.25500000000E-02 0. -1.
    5000001    1    1    2    0    0 -0.55275885525E+02 -0.10716313091E+02  0.77214247495E+03  0.77801238070E+03  0.77000000000E+02 0.  0.
   -5000001    1    1    2    0    0  0.55275885525E+02  0.10716313091E+02  0.61662393880E+03  0.62395860823E+03  0.77000000000E+02 0.  0.
<mgrwt>
<rscale>  0 0.19196485E+03</rscale>
<asrwt>0</asrwt>
<pdfrwt beam="1">  1        2 0.21467225E+00 0.19196485E+03</pdfrwt>
<pdfrwt beam="2">  1       -2 0.10157359E-02 0.19196485E+03</pdfrwt>
<totfact> 0.31713281E+04</totfact>
</mgrwt>
</event>
<event>
 4    1  0.1195463E-003  0.2129087E+03  0.7818608E-02  0.1139283E+00
         -2   -1    0    0    0  501 -0.00000000000E+00  0.00000000000E+00  0.25453114197E+02  0.25453114325E+02  0.25500000000E-02 0. -1.
          2   -1    0    0  501    0  0.00000000000E+00 -0.00000000000E+00 -0.44523162302E+03  0.44523162303E+03  0.25500000000E-02 0.  1.
    5000001    1    1    2    0    0 -0.89222270601E+01  0.65004637438E+02 -0.13662340884E+03  0.17000048490E+03  0.77000000000E+02 0.  0.
   -5000001    1    1    2    0    0  0.89222270601E+01 -0.65004637438E+02 -0.28315509999E+03  0.30068425245E+03  0.77000000000E+02 0.  0.
<mgrwt>
<rscale>  0 0.21290873E+03</rscale>
<asrwt>0</asrwt>
<pdfrwt beam="1">  1        2 0.68497167E-01 0.21290873E+03</pdfrwt>
<pdfrwt beam="2">  1       -2 0.39158641E-02 0.21290873E+03</pdfrwt>
<totfact> 0.19619472E+04</totfact>
</mgrwt>
</event>
<event>
 4    1  0.1195463E-003  0.2117817E+03  0.7818608E-02  0.1140163E+00
         -2   -1    0    0    0  501 -0.00000000000E+00  0.00000000000E+00  0.14415645557E+02  0.14415645783E+02  0.25500000000E-02 0. -1.
          2   -1    0    0  501    0  0.00000000000E+00 -0.00000000000E+00 -0.77782653991E+03  0.77782653992E+03  0.25500000000E-02 0.  1.
    5000001    1    1    2    0    0  0.20408255814E+01 -0.55551960014E+02 -0.20649627892E+03  0.22728813968E+03  0.77000000000E+02 0.  0.
   -5000001    1    1    2    0    0 -0.20408255814E+01  0.55551960014E+02 -0.55691461543E+03  0.56495404602E+03  0.77000000000E+02 0.  0.
<mgrwt>
<rscale>  0 0.21178170E+03</rscale>
<asrwt>0</asrwt>
<pdfrwt beam="1">  1        2 0.11966559E+00 0.21178170E+03</pdfrwt>
<pdfrwt beam="2">  1       -2 0.22177922E-02 0.21178170E+03</pdfrwt>
<totfact> 0.23888800E+04</totfact>
</mgrwt>
</event>
<event>
 4    1  0.1195463E-003  0.6044240E+03  0.7818608E-02  0.9896270E-01
          2   -1    0    0  501    0  0.00000000000E+00  0.00000000000E+00  0.19470450250E+04  0.19470450250E+04  0.25500000000E-02 0.  1.
         -2   -1    0    0    0  501 -0.00000000000E+00 -0.00000000000E+00 -0.46908054824E+02  0.46908054893E+02  0.25500000000E-02 0. -1.
    5000001    1    1    2    0    0 -0.19428579780E+03  0.21175110489E+03  0.77495790988E+03  0.83010497152E+03  0.77000000000E+02 0.  0.
   -5000001    1    1    2    0    0  0.19428579780E+03 -0.21175110489E+03  0.11251790603E+04  0.11638481083E+04  0.77000000000E+02 0.  0.
<mgrwt>
<rscale>  0 0.60442401E+03</rscale>
<asrwt>0</asrwt>
<pdfrwt beam="1">  1        2 0.29954539E+00 0.60442401E+03</pdfrwt>
<pdfrwt beam="2">  1       -2 0.72166237E-02 0.60442401E+03</pdfrwt>
<totfact> 0.85515429E+02</totfact>
</mgrwt>
</event>
<event>
 4    1  0.1195463E-003  0.2180425E+03  0.7818608E-02  0.1135351E+00
          2   -1    0    0  501    0  0.00000000000E+00  0.00000000000E+00  0.28711192615E+02  0.28711192729E+02  0.25500000000E-02 0.  1.
         -2   -1    0    0    0  501 -0.00000000000E+00 -0.00000000000E+00 -0.41397210054E+03  0.41397210055E+03  0.25500000000E-02 0. -1.
    5000001    1    1    2    0    0  0.70660241486E+02  0.30043170495E+02 -0.17675140462E+03  0.20752233820E+03  0.77000000000E+02 0.  0.
   -5000001    1    1    2    0    0 -0.70660241486E+02 -0.30043170495E+02 -0.20850950331E+03  0.23516095507E+03  0.77000000000E+02 0.  0.
<mgrwt>
<rscale>  0 0.21804250E+03</rscale>
<asrwt>0</asrwt>
<pdfrwt beam="1">  1        2 0.44171069E-02 0.21804250E+03</pdfrwt>
<pdfrwt beam="2">  1       -2 0.63688011E-01 0.21804250E+03</pdfrwt>
<totfact> 0.42543531E+03</totfact>
</mgrwt>
</event>
<event>
 4    1  0.1195463E-003  0.3243708E+03  0.7818608E-02  0.1073655E+00
         -2   -1    0    0    0  501 -0.00000000000E+00  0.00000000000E+00  0.16341870055E+04  0.16341870055E+04  0.25500000000E-02 0. -1.
          2   -1    0    0  501    0  0.00000000000E+00 -0.00000000000E+00 -0.16096139401E+02  0.16096139603E+02  0.25500000000E-02 0.  1.
    5000001    1    1    2    0    0 -0.46735775320E+02  0.11095189428E+03  0.11991900075E+04  0.12076755481E+04  0.77000000000E+02 0.  0.
   -5000001    1    1    2    0    0  0.46735775320E+02 -0.11095189428E+03  0.41890085865E+03  0.44260759700E+03  0.77000000000E+02 0.  0.
<mgrwt>
<rscale>  0 0.32437079E+03</rscale>
<asrwt>0</asrwt>
<pdfrwt beam="1">  1        2 0.24763292E-02 0.32437079E+03</pdfrwt>
<pdfrwt beam="2">  1       -2 0.25141338E+00 0.32437079E+03</pdfrwt>
<totfact> 0.28670126E+02</totfact>
</mgrwt>
</event>
<event>
 4    1  0.1195463E-003  0.2213788E+03  0.7818608E-02  0.1132859E+00
          2   -1    0    0  501    0  0.00000000000E+00  0.00000000000E+00  0.14707396153E+04  0.14707396153E+04  0.25500000000E-02 0.  1.
         -2   -1    0    0    0  501 -0.00000000000E+00 -0.00000000000E+00 -0.83306024122E+01  0.83306028025E+01  0.25500000000E-02 0. -1.
    5000001    1    1    2    0    0 -0.35238403756E+02  0.37745061660E+02  0.32718893815E+03  0.34007063388E+03  0.77000000000E+02 0.  0.
   -5000001    1    1    2    0    0  0.35238403756E+02 -0.37745061660E+02  0.11352200748E+04  0.11389995843E+04  0.77000000000E+02 0.  0.
<mgrwt>
<rscale>  0 0.22137884E+03</rscale>
<asrwt>0</asrwt>
<pdfrwt beam="1">  1        2 0.22626773E+00 0.22137884E+03</pdfrwt>
<pdfrwt beam="2">  1       -2 0.12816306E-02 0.22137884E+03</pdfrwt>
<totfact> 0.20804634E+04</totfact>
</mgrwt>
</event>
<event>
 4    1  0.1195463E-003  0.2242011E+03  0.7818608E-02  0.1130789E+00
          2   -1    0    0  501    0  0.00000000000E+00  0.00000000000E+00  0.11868718303E+03  0.11868718306E+03  0.25500000000E-02 0.  1.
         -2   -1    0    0    0  501 -0.00000000000E+00 -0.00000000000E+00 -0.10587944143E+03  0.10587944146E+03  0.25500000000E-02 0. -1.
    5000001    1    1    2    0    0 -0.14040844994E+02 -0.27313212155E+02  0.81987987928E+02  0.11659411242E+03  0.77000000000E+02 0.  0.
   -5000001    1    1    2    0    0  0.14040844994E+02  0.27313212155E+02 -0.69180246332E+02  0.10797251210E+03  0.77000000000E+02 0.  0.
<mgrwt>
<rscale>  0 0.22420109E+03</rscale>
<asrwt>0</asrwt>
<pdfrwt beam="1">  1        2 0.18259567E-01 0.22420109E+03</pdfrwt>
<pdfrwt beam="2">  1       -2 0.16289145E-01 0.22420109E+03</pdfrwt>
<totfact> 0.89986543E+03</totfact>
</mgrwt>
</event>
<event>
 4    1  0.1195463E-003  0.2220519E+03  0.7818608E-02  0.1132362E+00
          2   -1    0    0  501    0  0.00000000000E+00  0.00000000000E+00  0.10340975401E+04  0.10340975401E+04  0.25500000000E-02 0.  1.
         -2   -1    0    0    0  501 -0.00000000000E+00 -0.00000000000E+00 -0.11920303850E+02  0.11920304122E+02  0.25500000000E-02 0. -1.
    5000001    1    1    2    0    0 -0.40917602603E+02  0.64701780177E+02  0.62026965464E+03  0.62970152853E+03  0.77000000000E+02 0.  0.
   -5000001    1    1    2    0    0  0.40917602603E+02 -0.64701780177E+02  0.40190758157E+03  0.41631631566E+03  0.77000000000E+02 0.  0.
<mgrwt>
<rscale>  0 0.22205186E+03</rscale>
<asrwt>0</asrwt>
<pdfrwt beam="1">  1        2 0.15909201E+00 0.22205186E+03</pdfrwt>
<pdfrwt beam="2">  1       -2 0.18338920E-02 0.22205186E+03</pdfrwt>
<totfact> 0.21667079E+04</totfact>
</mgrwt>
</event>
<event>
 4    1  0.1195463E-003  0.2212792E+03  0.7818608E-02  0.1132933E+00
          2   -1    0    0  501    0  0.00000000000E+00  0.00000000000E+00  0.10774580410E+04  0.10774580410E+04  0.25500000000E-02 0.  1.
         -2   -1    0    0    0  501 -0.00000000000E+00 -0.00000000000E+00 -0.11361111279E+02  0.11361111565E+02  0.25500000000E-02 0. -1.
    5000001    1    1    2    0    0 -0.62693522027E+02 -0.27757430720E+02  0.73055687959E+03  0.73779625032E+03  0.77000000000E+02 0.  0.
   -5000001    1    1    2    0    0  0.62693522027E+02  0.27757430720E+02  0.33554005015E+03  0.35102290227E+03  0.77000000000E+02 0.  0.
<mgrwt>
<rscale>  0 0.22127920E+03</rscale>
<asrwt>0</asrwt>
<pdfrwt beam="1">  1        2 0.16576281E+00 0.22127920E+03</pdfrwt>
<pdfrwt beam="2">  1       -2 0.17478630E-02 0.22127920E+03</pdfrwt>
<totfact> 0.21901700E+04</totfact>
</mgrwt>
</event>
<event>
 4    1  0.1195463E-003  0.4083635E+03  0.7818608E-02  0.1040922E+00
          2   -1    0    0  501    0  0.00000000000E+00  0.00000000000E+00  0.89115819846E+03  0.89115819847E+03  0.25500000000E-02 0.  1.
         -2   -1    0    0    0  501 -0.00000000000E+00 -0.00000000000E+00 -0.46782025441E+02  0.46782025511E+02  0.25500000000E-02 0. -1.
    5000001    1    1    2    0    0  0.13830425245E+03 -0.10037651497E+03  0.60818390516E+03  0.63641195266E+03  0.77000000000E+02 0.  0.
   -5000001    1    1    2    0    0 -0.13830425245E+03  0.10037651497E+03  0.23619226786E+03  0.30152827131E+03  0.77000000000E+02 0.  0.
<mgrwt>
<rscale>  0 0.40836349E+03</rscale>
<asrwt>0</asrwt>
<pdfrwt beam="1">  1        2 0.13710125E+00 0.40836349E+03</pdfrwt>
<pdfrwt beam="2">  1       -2 0.71972350E-02 0.40836349E+03</pdfrwt>
<totfact> 0.34514696E+03</totfact>
</mgrwt>
</event>
<event>
 4    1  0.1195463E-003  0.3884658E+03  0.7818608E-02  0.1047848E+00
          2   -1    0    0  501    0  0.00000000000E+00  0.00000000000E+00  0.36644752747E+02  0.36644752836E+02  0.25500000000E-02 0.  1.
         -2   -1    0    0    0  501 -0.00000000000E+00 -0.00000000000E+00 -0.10295176171E+04  0.10295176171E+04  0.25500000000E-02 0. -1.
    5000001    1    1    2    0    0  0.23305558540E+02 -0.14027976267E+03 -0.79172535443E+03  0.80807153008E+03  0.77000000000E+02 0.  0.
   -5000001    1    1    2    0    0 -0.23305558540E+02  0.14027976267E+03 -0.20114750992E+03  0.25809083986E+03  0.77000000000E+02 0.  0.
<mgrwt>
<rscale>  0 0.38846580E+03</rscale>
<asrwt>0</asrwt>
<pdfrwt beam="1">  1        2 0.56376551E-02 0.38846580E+03</pdfrwt>
<pdfrwt beam="2">  1       -2 0.15838730E+00 0.38846580E+03</pdfrwt>
<totfact> 0.36995396E+02</totfact>
</mgrwt>
</event>
<event>
 4    1  0.1195463E-003  0.2684880E+03  0.7818608E-02  0.1102148E+00
          2   -1    0    0  501    0  0.00000000000E+00  0.00000000000E+00  0.10088039540E+03  0.10088039544E+03  0.25500000000E-02 0.  1.
         -2   -1    0    0    0  501 -0.00000000000E+00 -0.00000000000E+00 -0.17864176621E+03  0.17864176623E+03  0.25500000000E-02 0. -1.
    5000001    1    1    2    0    0 -0.92456157627E+02 -0.57706401109E+02 -0.54120666014E+02  0.14400075105E+03  0.77000000000E+02 0.  0.
   -5000001    1    1    2    0    0  0.92456157627E+02  0.57706401109E+02 -0.23640704789E+02  0.13552141062E+03  0.77000000000E+02 0.  0.
<mgrwt>
<rscale>  0 0.26848800E+03</rscale>
<asrwt>0</asrwt>
<pdfrwt beam="1">  1        2 0.15520061E-01 0.26848800E+03</pdfrwt>
<pdfrwt beam="2">  1       -2 0.27483349E-01 0.26848800E+03</pdfrwt>
<totfact> 0.44548027E+03</totfact>
</mgrwt>
</event>
<event>
 4    1  0.1195463E-003  0.3945971E+03  0.7818608E-02  0.1045667E+00
         -2   -1    0    0    0  501 -0.00000000000E+00  0.00000000000E+00  0.11518970773E+03  0.11518970776E+03  0.25500000000E-02 0. -1.
          2   -1    0    0  501    0  0.00000000000E+00 -0.00000000000E+00 -0.33793573045E+03  0.33793573046E+03  0.25500000000E-02 0.  1.
    5000001    1    1    2    0    0  0.94686781261E+02 -0.12076067385E+03  0.25090979770E+00  0.17169097195E+03  0.77000000000E+02 0.  0.
   -5000001    1    1    2    0    0 -0.94686781261E+02  0.12076067385E+03 -0.22299693252E+03  0.28143446627E+03  0.77000000000E+02 0.  0.
<mgrwt>
<rscale>  0 0.39459710E+03</rscale>
<asrwt>0</asrwt>
<pdfrwt beam="1">  1        2 0.51990112E-01 0.39459710E+03</pdfrwt>
<pdfrwt beam="2">  1       -2 0.17721494E-01 0.39459710E+03</pdfrwt>
<totfact> 0.24982449E+03</totfact>
</mgrwt>
</event>
<event>
 4    1  0.1195463E-003  0.2981356E+03  0.7818608E-02  0.1086176E+00
          2   -1    0    0  501    0  0.00000000000E+00  0.00000000000E+00  0.23899602998E+03  0.23899602999E+03  0.25500000000E-02 0.  1.
         -2   -1    0    0    0  501 -0.00000000000E+00 -0.00000000000E+00 -0.92977318577E+02  0.92977318612E+02  0.25500000000E-02 0. -1.
    5000001    1    1    2    0    0 -0.59540613620E+02 -0.10983307333E+03  0.10212729943E+03  0.17879422238E+03  0.77000000000E+02 0.  0.
   -5000001    1    1    2    0    0  0.59540613620E+02  0.10983307333E+03  0.43891411971E+02  0.15317912623E+03  0.77000000000E+02 0.  0.
<mgrwt>
<rscale>  0 0.29813561E+03</rscale>
<asrwt>0</asrwt>
<pdfrwt beam="1">  1        2 0.36768620E-01 0.29813561E+03</pdfrwt>
<pdfrwt beam="2">  1       -2 0.14304203E-01 0.29813561E+03</pdfrwt>
<totfact> 0.51750507E+03</totfact>
</mgrwt>
</event>
<event>
 4    1  0.1195463E-003  0.1671332E+03  0.7818608E-02  0.1180871E+00
          2   -1    0    0  501    0  0.00000000000E+00  0.00000000000E+00  0.26071608287E+03  0.26071608288E+03  0.25500000000E-02 0.  1.
         -2   -1    0    0    0  501 -0.00000000000E+00 -0.00000000000E+00 -0.26785370707E+02  0.26785370829E+02  0.25500000000E-02 0. -1.
    5000001    1    1    2    0    0  0.25429017165E+02 -0.60324459279E+01  0.83816390993E+02  0.11677847711E+03  0.77000000000E+02 0.  0.
   -5000001    1    1    2    0    0 -0.25429017165E+02  0.60324459279E+01  0.15011432117E+03  0.17072297659E+03  0.77000000000E+02 0.  0.
<mgrwt>
<rscale>  0 0.16713320E+03</rscale>
<asrwt>0</asrwt>
<pdfrwt beam="1">  1        2 0.40110166E-01 0.16713320E+03</pdfrwt>
<pdfrwt beam="2">  1       -2 0.41208263E-02 0.16713320E+03</pdfrwt>
<totfact> 0.31657043E+04</totfact>
</mgrwt>
</event>
<event>
 4    1  0.1195463E-003  0.2596223E+03  0.7818608E-02  0.1107370E+00
         -2   -1    0    0    0  501 -0.00000000000E+00  0.00000000000E+00  0.16245516482E+02  0.16245516682E+02  0.25500000000E-02 0. -1.
          2   -1    0    0  501    0  0.00000000000E+00 -0.00000000000E+00 -0.10372667243E+04  0.10372667243E+04  0.25500000000E-02 0.  1.
    5000001    1    1    2    0    0  0.10142227839E+03  0.17600467273E+02 -0.58374115963E+03  0.59772819613E+03  0.77000000000E+02 0.  0.
   -5000001    1    1    2    0    0 -0.10142227839E+03 -0.17600467273E+02 -0.43728004823E+03  0.45578404490E+03  0.77000000000E+02 0.  0.
<mgrwt>
<rscale>  0 0.25962229E+03</rscale>
<asrwt>0</asrwt>
<pdfrwt beam="1">  1        2 0.15957944E+00 0.25962229E+03</pdfrwt>
<pdfrwt beam="2">  1       -2 0.24993111E-02 0.25962229E+03</pdfrwt>
<totfact> 0.13781997E+04</totfact>
</mgrwt>
</event>
<event>
 4    1  0.1195463E-003  0.1963346E+03  0.7818608E-02  0.1152869E+00
         -2   -1    0    0    0  501 -0.00000000000E+00  0.00000000000E+00  0.24025005900E+02  0.24025006035E+02  0.25500000000E-02 0. -1.
          2   -1    0    0  501    0  0.00000000000E+00 -0.00000000000E+00 -0.40111607962E+03  0.40111607963E+03  0.25500000000E-02 0.  1.
    5000001    1    1    2    0    0  0.48939825223E+02  0.18367816393E+02 -0.12091968308E+03  0.15258785314E+03  0.77000000000E+02 0.  0.
   -5000001    1    1    2    0    0 -0.48939825223E+02 -0.18367816393E+02 -0.25617139065E+03  0.27255323252E+03  0.77000000000E+02 0.  0.
<mgrwt>
<rscale>  0 0.19633457E+03</rscale>
<asrwt>0</asrwt>
<pdfrwt beam="1">  1        2 0.61710161E-01 0.19633457E+03</pdfrwt>
<pdfrwt beam="2">  1       -2 0.36961551E-02 0.19633457E+03</pdfrwt>
<totfact> 0.23815948E+04</totfact>
</mgrwt>
</event>
<event>
 4    1  0.1195463E-003  0.3284203E+03  0.7818608E-02  0.1071838E+00
         -2   -1    0    0    0  501 -0.00000000000E+00  0.00000000000E+00  0.29503197763E+02  0.29503197873E+02  0.25500000000E-02 0. -1.
          2   -1    0    0  501    0  0.00000000000E+00 -0.00000000000E+00 -0.91396791235E+03  0.91396791235E+03  0.25500000000E-02 0.  1.
    5000001    1    1    2    0    0 -0.40692395132E+02 -0.11859816654E+03 -0.23280516771E+03  0.27540632208E+03  0.77000000000E+02 0.  0.
   -5000001    1    1    2    0    0  0.40692395132E+02  0.11859816654E+03 -0.65165954688E+03  0.66806478815E+03  0.77000000000E+02 0.  0.
<mgrwt>
<rscale>  0 0.32842032E+03</rscale>
<asrwt>0</asrwt>
<pdfrwt beam="1">  1        2 0.14061043E+00 0.32842032E+03</pdfrwt>
<pdfrwt beam="2">  1       -2 0.45389542E-02 0.32842032E+03</pdfrwt>
<totfact> 0.67723985E+03</totfact>
</mgrwt>
</event>
<event>
 4    1  0.1195463E-003  0.2025490E+03  0.7818608E-02  0.1147606E+00
          2   -1    0    0  501    0  0.00000000000E+00  0.00000000000E+00  0.40021452533E+03  0.40021452534E+03  0.25500000000E-02 0.  1.
         -2   -1    0    0    0  501 -0.00000000000E+00 -0.00000000000E+00 -0.25627554006E+02  0.25627554133E+02  0.25500000000E-02 0. -1.
    5000001    1    1    2    0    0  0.43258801786E+02  0.39470053904E+02  0.12428025214E+03  0.15749219078E+03  0.77000000000E+02 0.  0.
   -5000001    1    1    2    0    0 -0.43258801786E+02 -0.39470053904E+02  0.25030671919E+03  0.26834988869E+03  0.77000000000E+02 0.  0.
<mgrwt>
<rscale>  0 0.20254895E+03</rscale>
<asrwt>0</asrwt>
<pdfrwt beam="1">  1        2 0.61571460E-01 0.20254895E+03</pdfrwt>
<pdfrwt beam="2">  1       -2 0.39427010E-02 0.20254895E+03</pdfrwt>
<totfact> 0.21728637E+04</totfact>
</mgrwt>
</event>
<event>
 4    1  0.1195463E-003  0.8869991E+03  0.7818608E-02  0.9441981E-01
         -2   -1    0    0    0  501 -0.00000000000E+00  0.00000000000E+00  0.14081109010E+03  0.14081109012E+03  0.25500000000E-02 0. -1.
          2   -1    0    0  501    0  0.00000000000E+00 -0.00000000000E+00 -0.13968492227E+04  0.13968492227E+04  0.25500000000E-02 0.  1.
    5000001    1    1    2    0    0  0.30726001689E+03  0.26746100422E+03 -0.90112253122E+03  0.99191477609E+03  0.77000000000E+02 0.  0.
   -5000001    1    1    2    0    0 -0.30726001689E+03 -0.26746100422E+03 -0.35491560137E+03  0.54574553672E+03  0.77000000000E+02 0.  0.
<mgrwt>
<rscale>  0 0.88699912E+03</rscale>
<asrwt>0</asrwt>
<pdfrwt beam="1">  1        2 0.21489987E+00 0.88699912E+03</pdfrwt>
<pdfrwt beam="2">  1       -2 0.21663246E-01 0.88699912E+03</pdfrwt>
<totfact> 0.27032531E+02</totfact>
</mgrwt>
</event>
<event>
 4    1  0.1195463E-003  0.2811137E+03  0.7818608E-02  0.1095082E+00
          2   -1    0    0  501    0  0.00000000000E+00  0.00000000000E+00  0.19016718325E+03  0.19016718327E+03  0.25500000000E-02 0.  1.
         -2   -1    0    0    0  501 -0.00000000000E+00 -0.00000000000E+00 -0.10388871823E+03  0.10388871826E+03  0.25500000000E-02 0. -1.
    5000001    1    1    2    0    0  0.80430332089E+02 -0.82779409240E+02  0.19614838234E+02  0.14012569641E+03  0.77000000000E+02 0.  0.
   -5000001    1    1    2    0    0 -0.80430332089E+02  0.82779409240E+02  0.66663626790E+02  0.15393020513E+03  0.77000000000E+02 0.  0.
<mgrwt>
<rscale>  0 0.28111368E+03</rscale>
<asrwt>0</asrwt>
<pdfrwt beam="1">  1        2 0.29256489E-01 0.28111368E+03</pdfrwt>
<pdfrwt beam="2">  1       -2 0.15982880E-01 0.28111368E+03</pdfrwt>
<totfact> 0.55178806E+03</totfact>
</mgrwt>
</event>
<event>
 4    1  0.1195463E-003  0.2080393E+03  0.7818608E-02  0.1143128E+00
          2   -1    0    0  501    0  0.00000000000E+00  0.00000000000E+00  0.17827353422E+04  0.17827353422E+04  0.25500000000E-02 0.  1.
         -2   -1    0    0    0  501 -0.00000000000E+00 -0.00000000000E+00 -0.60693755464E+01  0.60693760821E+01  0.25500000000E-02 0. -1.
    5000001    1    1    2    0    0  0.38965461714E+02  0.38399439069E+02  0.51370855578E+03  0.52232011680E+03  0.77000000000E+02 0.  0.
   -5000001    1    1    2    0    0 -0.38965461714E+02 -0.38399439069E+02  0.12629574108E+04  0.12664846015E+04  0.77000000000E+02 0.  0.
<mgrwt>
<rscale>  0 0.20803933E+03</rscale>
<asrwt>0</asrwt>
<pdfrwt beam="1">  1        2 0.27426716E+00 0.20803933E+03</pdfrwt>
<pdfrwt beam="2">  1       -2 0.93374950E-03 0.20803933E+03</pdfrwt>
<totfact> 0.22498527E+04</totfact>
</mgrwt>
</event>
<event>
 4    1  0.1195463E-003  0.3500316E+03  0.7818608E-02  0.1062602E+00
         -2   -1    0    0    0  501 -0.00000000000E+00  0.00000000000E+00  0.26149516749E+02  0.26149516873E+02  0.25500000000E-02 0. -1.
          2   -1    0    0  501    0  0.00000000000E+00 -0.00000000000E+00 -0.11713614324E+04  0.11713614324E+04  0.25500000000E-02 0.  1.
    5000001    1    1    2    0    0  0.10670840912E+03  0.11516639886E+03 -0.59716959757E+03  0.62224634371E+03  0.77000000000E+02 0.  0.
   -5000001    1    1    2    0    0 -0.10670840912E+03 -0.11516639886E+03 -0.54804231805E+03  0.57526460553E+03  0.77000000000E+02 0.  0.
<mgrwt>
<rscale>  0 0.35003163E+03</rscale>
<asrwt>0</asrwt>
<pdfrwt beam="1">  1        2 0.18020941E+00 0.35003163E+03</pdfrwt>
<pdfrwt beam="2">  1       -2 0.40230035E-02 0.35003163E+03</pdfrwt>
<totfact> 0.56766922E+03</totfact>
</mgrwt>
</event>
<event>
 4    1  0.1195463E-003  0.2368048E+03  0.7818608E-02  0.1121940E+00
          2   -1    0    0  501    0  0.00000000000E+00  0.00000000000E+00  0.13871765682E+04  0.13871765682E+04  0.25500000000E-02 0.  1.
         -2   -1    0    0    0  501 -0.00000000000E+00 -0.00000000000E+00 -0.10106229318E+02  0.10106229639E+02  0.25500000000E-02 0. -1.
    5000001    1    1    2    0    0  0.80391429263E+02  0.29206186176E+02  0.52434008933E+03  0.53682149034E+03  0.77000000000E+02 0.  0.
   -5000001    1    1    2    0    0 -0.80391429263E+02 -0.29206186176E+02  0.85273024952E+03  0.86046130748E+03  0.77000000000E+02 0.  0.
<mgrwt>
<rscale>  0 0.23680477E+03</rscale>
<asrwt>0</asrwt>
<pdfrwt beam="1">  1        2 0.21341181E+00 0.23680477E+03</pdfrwt>
<pdfrwt beam="2">  1       -2 0.15548043E-02 0.23680477E+03</pdfrwt>
<totfact> 0.17465200E+04</totfact>
</mgrwt>
</event>
<event>
 4    1  0.1195463E-003  0.2191952E+03  0.7818608E-02  0.1134485E+00
         -2   -1    0    0    0  501 -0.00000000000E+00  0.00000000000E+00  0.35631484212E+02  0.35631484303E+02  0.25500000000E-02 0. -1.
          2   -1    0    0  501    0  0.00000000000E+00 -0.00000000000E+00 -0.33710725297E+03  0.33710725298E+03  0.25500000000E-02 0.  1.
    5000001    1    1    2    0    0 -0.64037271985E+02 -0.32503639952E+02 -0.20246662830E+03  0.22820822594E+03  0.77000000000E+02 0.  0.
   -5000001    1    1    2    0    0  0.64037271985E+02  0.32503639952E+02 -0.99009140458E+02  0.14453051134E+03  0.77000000000E+02 0.  0.
<mgrwt>
<rscale>  0 0.21919518E+03</rscale>
<asrwt>0</asrwt>
<pdfrwt beam="1">  1        2 0.51862652E-01 0.21919518E+03</pdfrwt>
<pdfrwt beam="2">  1       -2 0.54817670E-02 0.21919518E+03</pdfrwt>
<totfact> 0.15983518E+04</totfact>
</mgrwt>
</event>
<event>
 4    1  0.1195463E-003  0.4912721E+03  0.7818608E-02  0.1016082E+00
         -2   -1    0    0    0  501 -0.00000000000E+00  0.00000000000E+00  0.63339311419E+02  0.63339311470E+02  0.25500000000E-02 0. -1.
          2   -1    0    0  501    0  0.00000000000E+00 -0.00000000000E+00 -0.95260082932E+03  0.95260082932E+03  0.25500000000E-02 0.  1.
    5000001    1    1    2    0    0  0.15393067830E+03 -0.11410290881E+03 -0.16955114028E+03  0.26719041280E+03  0.77000000000E+02 0.  0.
   -5000001    1    1    2    0    0 -0.15393067830E+03  0.11410290881E+03 -0.71971037762E+03  0.74874972800E+03  0.77000000000E+02 0.  0.
<mgrwt>
<rscale>  0 0.49127215E+03</rscale>
<asrwt>0</asrwt>
<pdfrwt beam="1">  1        2 0.14655396E+00 0.49127215E+03</pdfrwt>
<pdfrwt beam="2">  1       -2 0.97445101E-02 0.49127215E+03</pdfrwt>
<totfact> 0.19454665E+03</totfact>
</mgrwt>
</event>
<event>
 4    1  0.1195463E-003  0.1637393E+03  0.7818608E-02  0.1184539E+00
         -2   -1    0    0    0  501 -0.00000000000E+00  0.00000000000E+00  0.70959238902E+01  0.70959243484E+01  0.25500000000E-02 0. -1.
          2   -1    0    0  501    0  0.00000000000E+00 -0.00000000000E+00 -0.94457621709E+03  0.94457621709E+03  0.25500000000E-02 0.  1.
    5000001    1    1    2    0    0  0.15819529523E+02 -0.32242225278E+01 -0.60038018356E+03  0.60551302046E+03  0.77000000000E+02 0.  0.
   -5000001    1    1    2    0    0 -0.15819529523E+02  0.32242225278E+01 -0.33710010963E+03  0.34615912098E+03  0.77000000000E+02 0.  0.
<mgrwt>
<rscale>  0 0.16373932E+03</rscale>
<asrwt>0</asrwt>
<pdfrwt beam="1">  1        2 0.14531932E+00 0.16373932E+03</pdfrwt>
<pdfrwt beam="2">  1       -2 0.10916814E-02 0.16373932E+03</pdfrwt>
<totfact> 0.50983358E+04</totfact>
</mgrwt>
</event>
<event>
 4    1  0.1195463E-003  0.2149598E+03  0.7818608E-02  0.1137697E+00
          2   -1    0    0  501    0  0.00000000000E+00  0.00000000000E+00  0.20153334564E+04  0.20153334564E+04  0.25500000000E-02 0.  1.
         -2   -1    0    0    0  501 -0.00000000000E+00 -0.00000000000E+00 -0.57320192464E+01  0.57320198136E+01  0.25500000000E-02 0. -1.
    5000001    1    1    2    0    0 -0.11640741078E+02 -0.70106282811E+02  0.77983136583E+03  0.78683947338E+03  0.77000000000E+02 0.  0.
   -5000001    1    1    2    0    0  0.11640741078E+02  0.70106282811E+02  0.12297700714E+04  0.12342260029E+04  0.77000000000E+02 0.  0.
<mgrwt>
<rscale>  0 0.21495982E+03</rscale>
<asrwt>0</asrwt>
<pdfrwt beam="1">  1        2 0.31005137E+00 0.21495982E+03</pdfrwt>
<pdfrwt beam="2">  1       -2 0.88184896E-03 0.21495982E+03</pdfrwt>
<totfact> 0.18514205E+04</totfact>
</mgrwt>
</event>
<event>
 4    1  0.1195463E-003  0.2092890E+03  0.7818608E-02  0.1142130E+00
          2   -1    0    0  501    0  0.00000000000E+00  0.00000000000E+00  0.10233998298E+04  0.10233998298E+04  0.25500000000E-02 0.  1.
         -2   -1    0    0    0  501 -0.00000000000E+00 -0.00000000000E+00 -0.10700095063E+02  0.10700095367E+02  0.25500000000E-02 0. -1.
    5000001    1    1    2    0    0 -0.61383251668E+02  0.28802617536E+02  0.40461042533E+03  0.41741596837E+03  0.77000000000E+02 0.  0.
   -5000001    1    1    2    0    0  0.61383251668E+02 -0.28802617536E+02  0.60808930938E+03  0.61668395677E+03  0.77000000000E+02 0.  0.
<mgrwt>
<rscale>  0 0.20928904E+03</rscale>
<asrwt>0</asrwt>
<pdfrwt beam="1">  1        2 0.15744618E+00 0.20928904E+03</pdfrwt>
<pdfrwt beam="2">  1       -2 0.16461680E-02 0.20928904E+03</pdfrwt>
<totfact> 0.25656463E+04</totfact>
</mgrwt>
</event>
<event>
 4    1  0.1195463E-003  0.4167460E+03  0.7818608E-02  0.1038131E+00
         -2   -1    0    0    0  501 -0.00000000000E+00  0.00000000000E+00  0.47835390618E+02  0.47835390686E+02  0.25500000000E-02 0. -1.
          2   -1    0    0  501    0  0.00000000000E+00 -0.00000000000E+00 -0.90768155160E+03  0.90768155161E+03  0.25500000000E-02 0.  1.
    5000001    1    1    2    0    0 -0.52917569294E+01 -0.19117753918E+03 -0.49921917514E+03  0.54011631989E+03  0.77000000000E+02 0.  0.
   -5000001    1    1    2    0    0  0.52917569294E+01  0.19117753918E+03 -0.36062698584E+03  0.41540062241E+03  0.77000000000E+02 0.  0.
<mgrwt>
<rscale>  0 0.41674597E+03</rscale>
<asrwt>0</asrwt>
<pdfrwt beam="1">  1        2 0.13964330E+00 0.41674597E+03</pdfrwt>
<pdfrwt beam="2">  1       -2 0.73592915E-02 0.41674597E+03</pdfrwt>
<totfact> 0.32509448E+03</totfact>
</mgrwt>
</event>
<event>
 4    1  0.1195463E-003  0.1877986E+03  0.7818608E-02  0.1160462E+00
          2   -1    0    0  501    0  0.00000000000E+00  0.00000000000E+00  0.25229500968E+03  0.25229500970E+03  0.25500000000E-02 0.  1.
         -2   -1    0    0    0  501 -0.00000000000E+00 -0.00000000000E+00 -0.34947505886E+02  0.34947505979E+02  0.25500000000E-02 0. -1.
    5000001    1    1    2    0    0 -0.43981973296E+02 -0.24006314565E+01  0.61582681855E+02  0.10798890550E+03  0.77000000000E+02 0.  0.
   -5000001    1    1    2    0    0  0.43981973296E+02  0.24006314565E+01  0.15576482194E+03  0.17925361018E+03  0.77000000000E+02 0.  0.
<mgrwt>
<rscale>  0 0.18779863E+03</rscale>
<asrwt>0</asrwt>
<pdfrwt beam="1">  1        2 0.38814619E-01 0.18779863E+03</pdfrwt>
<pdfrwt beam="2">  1       -2 0.53765391E-02 0.18779863E+03</pdfrwt>
<totfact> 0.22199972E+04</totfact>
</mgrwt>
</event>
<event>
 4    1  0.1195463E-003  0.5070951E+03  0.7818608E-02  0.1011943E+00
         -2   -1    0    0    0  501 -0.00000000000E+00  0.00000000000E+00  0.55108240196E+02  0.55108240255E+02  0.25500000000E-02 0. -1.
          2   -1    0    0  501    0  0.00000000000E+00 -0.00000000000E+00 -0.11665473093E+04  0.11665473093E+04  0.25500000000E-02 0.  1.
    5000001    1    1    2    0    0  0.22185057247E+03  0.94125027230E+02 -0.59604429239E+03  0.64751447532E+03  0.77000000000E+02 0.  0.
   -5000001    1    1    2    0    0 -0.22185057247E+03 -0.94125027230E+02 -0.51539477668E+03  0.57414107420E+03  0.77000000000E+02 0.  0.
<mgrwt>
<rscale>  0 0.50709514E+03</rscale>
<asrwt>0</asrwt>
<pdfrwt beam="1">  1        2 0.17946880E+00 0.50709514E+03</pdfrwt>
<pdfrwt beam="2">  1       -2 0.84781917E-02 0.50709514E+03</pdfrwt>
<totfact> 0.17969763E+03</totfact>
</mgrwt>
</event>
<event>
 4    1  0.1195463E-003  0.2941601E+03  0.7818608E-02  0.1088197E+00
         -2   -1    0    0    0  501 -0.00000000000E+00  0.00000000000E+00  0.40774290214E+02  0.40774290294E+02  0.25500000000E-02 0. -1.
          2   -1    0    0  501    0  0.00000000000E+00 -0.00000000000E+00 -0.53054378769E+03  0.53054378769E+03  0.25500000000E-02 0.  1.
    5000001    1    1    2    0    0 -0.74759847802E+02 -0.99854883849E+02 -0.26815177416E+03  0.30560498467E+03  0.77000000000E+02 0.  0.
   -5000001    1    1    2    0    0  0.74759847802E+02  0.99854883849E+02 -0.22161772331E+03  0.26571309331E+03  0.77000000000E+02 0.  0.
<mgrwt>
<rscale>  0 0.29416014E+03</rscale>
<asrwt>0</asrwt>
<pdfrwt beam="1">  1        2 0.81622116E-01 0.29416014E+03</pdfrwt>
<pdfrwt beam="2">  1       -2 0.62729681E-02 0.29416014E+03</pdfrwt>
<totfact> 0.80227871E+03</totfact>
</mgrwt>
</event>
<event>
 4    1  0.1195463E-003  0.5456911E+03  0.7818608E-02  0.1002496E+00
          2   -1    0    0  501    0  0.00000000000E+00  0.00000000000E+00  0.92506038010E+03  0.92506038010E+03  0.25500000000E-02 0.  1.
         -2   -1    0    0    0  501 -0.00000000000E+00 -0.00000000000E+00 -0.80475497019E+02  0.80475497059E+02  0.25500000000E-02 0. -1.
    5000001    1    1    2    0    0  0.87648150930E+02 -0.10516780607E+03  0.11191373658E+02  0.15746971975E+03  0.77000000000E+02 0.  0.
   -5000001    1    1    2    0    0 -0.87648150930E+02  0.10516780607E+03  0.83339350942E+03  0.84806615741E+03  0.77000000000E+02 0.  0.
<mgrwt>
<rscale>  0 0.54569110E+03</rscale>
<asrwt>0</asrwt>
<pdfrwt beam="1">  1        2 0.14231698E+00 0.54569110E+03</pdfrwt>
<pdfrwt beam="2">  1       -2 0.12380846E-01 0.54569110E+03</pdfrwt>
<totfact> 0.13714545E+03</totfact>
</mgrwt>
</event>
<event>
 4    1  0.1195463E-003  0.4375042E+03  0.7818608E-02  0.1031515E+00
         -2   -1    0    0    0  501 -0.00000000000E+00  0.00000000000E+00  0.24218295893E+03  0.24218295894E+03  0.25500000000E-02 0. -1.
          2   -1    0    0  501    0  0.00000000000E+00 -0.00000000000E+00 -0.19758809883E+03  0.19758809885E+03  0.25500000000E-02 0.  1.
    5000001    1    1    2    0    0  0.11093875314E+03  0.15474718142E+03 -0.53387949765E+02  0.21221067430E+03  0.77000000000E+02 0.  0.
   -5000001    1    1    2    0    0 -0.11093875314E+03 -0.15474718142E+03  0.97982809864E+02  0.22756038349E+03  0.77000000000E+02 0.  0.
<mgrwt>
<rscale>  0 0.43750415E+03</rscale>
<asrwt>0</asrwt>
<pdfrwt beam="1">  1        2 0.30398169E-01 0.43750415E+03</pdfrwt>
<pdfrwt beam="2">  1       -2 0.37258917E-01 0.43750415E+03</pdfrwt>
<totfact> 0.11882175E+03</totfact>
</mgrwt>
</event>
<event>
 4    1  0.1195463E-003  0.6485812E+03  0.7818608E-02  0.9809445E-01
         -2   -1    0    0    0  501 -0.00000000000E+00  0.00000000000E+00  0.58107183050E+02  0.58107183106E+02  0.25500000000E-02 0. -1.
          2   -1    0    0  501    0  0.00000000000E+00 -0.00000000000E+00 -0.18098346751E+04  0.18098346751E+04  0.25500000000E-02 0.  1.
    5000001    1    1    2    0    0  0.21295693077E+03 -0.23179267540E+03 -0.91193863786E+03  0.96780141453E+03  0.77000000000E+02 0.  0.
   -5000001    1    1    2    0    0 -0.21295693077E+03  0.23179267540E+03 -0.83978885421E+03  0.90014044371E+03  0.77000000000E+02 0.  0.
<mgrwt>
<rscale>  0 0.64858120E+03</rscale>
<asrwt>0</asrwt>
<pdfrwt beam="1">  1        2 0.27843606E+00 0.64858120E+03</pdfrwt>
<pdfrwt beam="2">  1       -2 0.89395680E-02 0.64858120E+03</pdfrwt>
<totfact> 0.71898534E+02</totfact>
</mgrwt>
</event>
<event>
 4    1  0.1195463E-003  0.2137473E+03  0.7818608E-02  0.1138632E+00
         -2   -1    0    0    0  501 -0.00000000000E+00  0.00000000000E+00  0.13451561739E+02  0.13451561980E+02  0.25500000000E-02 0. -1.
          2   -1    0    0  501    0  0.00000000000E+00 -0.00000000000E+00 -0.84911923450E+03  0.84911923451E+03  0.25500000000E-02 0.  1.
    5000001    1    1    2    0    0 -0.43550194004E+02  0.59394593812E+02 -0.38439960333E+03  0.39889396111E+03  0.77000000000E+02 0.  0.
   -5000001    1    1    2    0    0  0.43550194004E+02 -0.59394593812E+02 -0.45126806943E+03  0.46367683537E+03  0.77000000000E+02 0.  0.
<mgrwt>
<rscale>  0 0.21374733E+03</rscale>
<asrwt>0</asrwt>
<pdfrwt beam="1">  1        2 0.13063369E+00 0.21374733E+03</pdfrwt>
<pdfrwt beam="2">  1       -2 0.20694717E-02 0.21374733E+03</pdfrwt>
<totfact> 0.23665770E+04</totfact>
</mgrwt>
</event>
<event>
 4    1  0.1195463E-003  0.2351687E+03  0.7818608E-02  0.1123054E+00
          2   -1    0    0  501    0  0.00000000000E+00  0.00000000000E+00  0.13235777278E+03  0.13235777281E+03  0.25500000000E-02 0. -1.
         -2   -1    0    0    0  501 -0.00000000000E+00 -0.00000000000E+00 -0.10445989947E+03  0.10445989950E+03  0.25500000000E-02 0.  1.
    5000001    1    1    2    0    0  0.64559026924E+02  0.51163749090E+02  0.47521607569E+02  0.12236380333E+03  0.77000000000E+02 0.  0.
   -5000001    1    1    2    0    0 -0.64559026924E+02 -0.51163749090E+02 -0.19623734256E+02  0.11445386898E+03  0.77000000000E+02 0.  0.
<mgrwt>
<rscale>  0 0.23516870E+03</rscale>
<asrwt>0</asrwt>
<pdfrwt beam="1">  1        2 0.20362734E-01 0.23516870E+03</pdfrwt>
<pdfrwt beam="2">  1       -2 0.16070754E-01 0.23516870E+03</pdfrwt>
<totfact> 0.81422254E+03</totfact>
</mgrwt>
</event>
<event>
 4    1  0.1195463E-003  0.2726982E+03  0.7818608E-02  0.1099745E+00
          2   -1    0    0  501    0  0.00000000000E+00  0.00000000000E+00  0.24170687325E+03  0.24170687327E+03  0.25500000000E-02 0.  1.
         -2   -1    0    0    0  501 -0.00000000000E+00 -0.00000000000E+00 -0.76915811844E+02  0.76915811886E+02  0.25500000000E-02 0. -1.
    5000001    1    1    2    0    0  0.77601629140E+02  0.66690818093E+02  0.13710399332E+03  0.18760645791E+03  0.77000000000E+02 0.  0.
   -5000001    1    1    2    0    0 -0.77601629140E+02 -0.66690818093E+02  0.27687068089E+02  0.13101622725E+03  0.77000000000E+02 0.  0.
<mgrwt>
<rscale>  0 0.27269822E+03</rscale>
<asrwt>0</asrwt>
<pdfrwt beam="1">  1        2 0.37185672E-01 0.27269822E+03</pdfrwt>
<pdfrwt beam="2">  1       -2 0.11833202E-01 0.27269822E+03</pdfrwt>
<totfact> 0.69423570E+03</totfact>
</mgrwt>
</event>
<event>
 4    1  0.1195463E-003  0.3198216E+03  0.7818608E-02  0.1075731E+00
         -2   -1    0    0    0  501 -0.00000000000E+00  0.00000000000E+00  0.83152214900E+02  0.83152214939E+02  0.25500000000E-02 0. -1.
          2   -1    0    0  501    0  0.00000000000E+00 -0.00000000000E+00 -0.30752599252E+03  0.30752599253E+03  0.25500000000E-02 0.  1.
    5000001    1    1    2    0    0 -0.10389130073E+03  0.34970795238E+02 -0.55118384872E+01  0.13407363368E+03  0.77000000000E+02 0.  0.
   -5000001    1    1    2    0    0  0.10389130073E+03 -0.34970795238E+02 -0.21886193913E+03  0.25660457378E+03  0.77000000000E+02 0.  0.
<mgrwt>
<rscale>  0 0.31982162E+03</rscale>
<asrwt>0</asrwt>
<pdfrwt beam="1">  1        2 0.47311691E-01 0.31982162E+03</pdfrwt>
<pdfrwt beam="2">  1       -2 0.12792649E-01 0.31982162E+03</pdfrwt>
<totfact> 0.47405562E+03</totfact>
</mgrwt>
</event>
<event>
 4    1  0.1195463E-003  0.2309444E+03  0.7818608E-02  0.1125977E+00
         -2   -1    0    0    0  501 -0.00000000000E+00  0.00000000000E+00  0.11004899716E+02  0.11004900011E+02  0.25500000000E-02 0. -1.
          2   -1    0    0  501    0  0.00000000000E+00 -0.00000000000E+00 -0.12116261533E+04  0.12116261533E+04  0.25500000000E-02 0.  1.
    5000001    1    1    2    0    0 -0.79523421096E+02  0.15591764649E+02 -0.75354086089E+03  0.76178731065E+03  0.77000000000E+02 0.  0.
   -5000001    1    1    2    0    0  0.79523421096E+02 -0.15591764649E+02 -0.44708039274E+03  0.46084374271E+03  0.77000000000E+02 0.  0.
<mgrwt>
<rscale>  0 0.23094436E+03</rscale>
<asrwt>0</asrwt>
<pdfrwt beam="1">  1        2 0.18640392E+00 0.23094436E+03</pdfrwt>
<pdfrwt beam="2">  1       -2 0.16930625E-02 0.23094436E+03</pdfrwt>
<totfact> 0.19252572E+04</totfact>
</mgrwt>
</event>
<event>
 4    1  0.1195463E-003  0.2150404E+03  0.7818608E-02  0.1137636E+00
         -2   -1    0    0    0  501 -0.00000000000E+00  0.00000000000E+00  0.59074837618E+01  0.59074843121E+01  0.25500000000E-02 0. -1.
          2   -1    0    0  501    0  0.00000000000E+00 -0.00000000000E+00 -0.19569401109E+04  0.19569401109E+04  0.25500000000E-02 0.  1.
    5000001    1    1    2    0    0  0.46136892194E+02  0.17339555114E+02 -0.14920502583E+04  0.14948485697E+04  0.77000000000E+02 0.  0.
   -5000001    1    1    2    0    0 -0.46136892194E+02 -0.17339555114E+02 -0.45898236885E+03  0.46799902554E+03  0.77000000000E+02 0.  0.
<mgrwt>
<rscale>  0 0.21504039E+03</rscale>
<asrwt>0</asrwt>
<pdfrwt beam="1">  1        2 0.30106719E+00 0.21504039E+03</pdfrwt>
<pdfrwt beam="2">  1       -2 0.90884526E-03 0.21504039E+03</pdfrwt>
<totfact> 0.19013485E+04</totfact>
</mgrwt>
</event>
<event>
 4    1  0.1195463E-003  0.3454413E+03  0.7818608E-02  0.1064502E+00
         -2   -1    0    0    0  501 -0.00000000000E+00  0.00000000000E+00  0.11442385646E+02  0.11442385930E+02  0.25500000000E-02 0. -1.
          2   -1    0    0  501    0  0.00000000000E+00 -0.00000000000E+00 -0.26071855158E+04  0.26071855158E+04  0.25500000000E-02 0.  1.
    5000001    1    1    2    0    0  0.80531430353E+01 -0.15388547067E+03 -0.13931064588E+04  0.14037165656E+04  0.77000000000E+02 0.  0.
   -5000001    1    1    2    0    0 -0.80531430353E+01  0.15388547067E+03 -0.12026366714E+04  0.12149113361E+04  0.77000000000E+02 0.  0.
<mgrwt>
<rscale>  0 0.34544130E+03</rscale>
<asrwt>0</asrwt>
<pdfrwt beam="1">  1        2 0.40110499E+00 0.34544130E+03</pdfrwt>
<pdfrwt beam="2">  1       -2 0.17603691E-02 0.34544130E+03</pdfrwt>
<totfact> 0.32492119E+03</totfact>
</mgrwt>
</event>
<event>
 4    1  0.1195463E-003  0.2117208E+03  0.7818608E-02  0.1140211E+00
          2   -1    0    0  501    0  0.00000000000E+00  0.00000000000E+00  0.11887567462E+04  0.11887567462E+04  0.25500000000E-02 0.  1.
         -2   -1    0    0    0  501 -0.00000000000E+00 -0.00000000000E+00 -0.94270090655E+01  0.94270094104E+01  0.25500000000E-02 0. -1.
    5000001    1    1    2    0    0  0.53016473296E+02 -0.20242903811E+02  0.33299997137E+03  0.34646573066E+03  0.77000000000E+02 0.  0.
   -5000001    1    1    2    0    0 -0.53016473296E+02  0.20242903811E+02  0.84632976573E+03  0.85171802491E+03  0.77000000000E+02 0.  0.
<mgrwt>
<rscale>  0 0.21172077E+03</rscale>
<asrwt>0</asrwt>
<pdfrwt beam="1">  1        2 0.18288572E+00 0.21172077E+03</pdfrwt>
<pdfrwt beam="2">  1       -2 0.14503086E-02 0.21172077E+03</pdfrwt>
<totfact> 0.24739875E+04</totfact>
</mgrwt>
</event>
<event>
 4    1  0.1195463E-003  0.9530996E+03  0.7818608E-02  0.9361535E-01
          2   -1    0    0  501    0  0.00000000000E+00  0.00000000000E+00  0.15400634142E+04  0.15400634142E+04  0.25500000000E-02 0.  1.
         -2   -1    0    0    0  501 -0.00000000000E+00 -0.00000000000E+00 -0.14746127365E+03  0.14746127367E+03  0.25500000000E-02 0. -1.
    5000001    1    1    2    0    0 -0.25151691294E+03 -0.36383435108E+03  0.97922891862E+03  0.10772439220E+04  0.77000000000E+02 0.  0.
   -5000001    1    1    2    0    0  0.25151691294E+03  0.36383435108E+03  0.41337322191E+03  0.61028076581E+03  0.77000000000E+02 0.  0.
<mgrwt>
<rscale>  0 0.95309960E+03</rscale>
<asrwt>0</asrwt>
<pdfrwt beam="1">  1        2 0.23693282E+00 0.95309960E+03</pdfrwt>
<pdfrwt beam="2">  1       -2 0.22686351E-01 0.95309960E+03</pdfrwt>
<totfact> 0.20600116E+02</totfact>
</mgrwt>
</event>
<event>
 4    1  0.1195463E-003  0.2718872E+03  0.7818608E-02  0.1100204E+00
         -2   -1    0    0    0  501 -0.00000000000E+00  0.00000000000E+00  0.35992942366E+02  0.35992942457E+02  0.25500000000E-02 0. -1.
          2   -1    0    0  501    0  0.00000000000E+00 -0.00000000000E+00 -0.51345222839E+03  0.51345222839E+03  0.25500000000E-02 0.  1.
    5000001    1    1    2    0    0  0.50710229612E+02  0.23629975598E+02 -0.42573671747E+02  0.10426610504E+03  0.77000000000E+02 0.  0.
   -5000001    1    1    2    0    0 -0.50710229612E+02 -0.23629975598E+02 -0.43488561427E+03  0.44517906581E+03  0.77000000000E+02 0.  0.
<mgrwt>
<rscale>  0 0.27188716E+03</rscale>
<asrwt>0</asrwt>
<pdfrwt beam="1">  1        2 0.78992645E-01 0.27188716E+03</pdfrwt>
<pdfrwt beam="2">  1       -2 0.55373761E-02 0.27188716E+03</pdfrwt>
<totfact> 0.10052123E+04</totfact>
</mgrwt>
</event>
<event>
 4    1  0.1195463E-003  0.2120450E+03  0.7818608E-02  0.1139957E+00
         -2   -1    0    0    0  501 -0.00000000000E+00  0.00000000000E+00  0.10698761516E+03  0.10698761519E+03  0.25500000000E-02 0. -1.
          2   -1    0    0  501    0  0.00000000000E+00 -0.00000000000E+00 -0.10506606645E+03  0.10506606648E+03  0.25500000000E-02 0.  1.
    5000001    1    1    2    0    0 -0.66961260467E+02 -0.26828769715E+02 -0.94403547246E+01  0.10593258982E+03  0.77000000000E+02 0.  0.
   -5000001    1    1    2    0    0  0.66961260467E+02  0.26828769715E+02  0.11361903434E+02  0.10612109186E+03  0.77000000000E+02 0.  0.
<mgrwt>
<rscale>  0 0.21204498E+03</rscale>
<asrwt>0</asrwt>
<pdfrwt beam="1">  1        2 0.16164010E-01 0.21204498E+03</pdfrwt>
<pdfrwt beam="2">  1       -2 0.16459633E-01 0.21204498E+03</pdfrwt>
<totfact> 0.10156774E+04</totfact>
</mgrwt>
</event>
<event>
 4    1  0.1195463E-003  0.1840839E+03  0.7818608E-02  0.1163908E+00
          2   -1    0    0  501    0  0.00000000000E+00  0.00000000000E+00  0.11119474802E+04  0.11119474802E+04  0.25500000000E-02 0.  1.
         -2   -1    0    0    0  501 -0.00000000000E+00 -0.00000000000E+00 -0.76188148796E+01  0.76188153063E+01  0.25500000000E-02 0. -1.
    5000001    1    1    2    0    0 -0.94366621034E+01  0.49435593783E+02  0.57119736110E+03  0.57855713102E+03  0.77000000000E+02 0.  0.
   -5000001    1    1    2    0    0  0.94366621034E+01 -0.49435593783E+02  0.53313130427E+03  0.54100916454E+03  0.77000000000E+02 0.  0.
<mgrwt>
<rscale>  0 0.18408392E+03</rscale>
<asrwt>0</asrwt>
<pdfrwt beam="1">  1        2 0.17106884E+00 0.18408392E+03</pdfrwt>
<pdfrwt beam="2">  1       -2 0.11721255E-02 0.18408392E+03</pdfrwt>
<totfact> 0.36922060E+04</totfact>
</mgrwt>
</event>
<event>
 4    1  0.1195463E-003  0.3978533E+03  0.7818608E-02  0.1044526E+00
          2   -1    0    0  501    0  0.00000000000E+00  0.00000000000E+00  0.93924540866E+03  0.93924540867E+03  0.25500000000E-02 0. -1.
         -2   -1    0    0    0  501 -0.00000000000E+00 -0.00000000000E+00 -0.42131498558E+02  0.42131498635E+02  0.25500000000E-02 0.  1.
    5000001    1    1    2    0    0  0.17862209334E+03  0.41544683240E+02  0.44037453174E+03  0.48320858968E+03  0.77000000000E+02 0.  0.
   -5000001    1    1    2    0    0 -0.17862209334E+03 -0.41544683240E+02  0.45673937836E+03  0.49816831762E+03  0.77000000000E+02 0.  0.
<mgrwt>
<rscale>  0 0.39785332E+03</rscale>
<asrwt>0</asrwt>
<pdfrwt beam="1">  1        2 0.14449929E+00 0.39785332E+03</pdfrwt>
<pdfrwt beam="2">  1       -2 0.64817693E-02 0.39785332E+03</pdfrwt>
<totfact> 0.37814589E+03</totfact>
</mgrwt>
</event>
<event>
 4    1  0.1195463E-003  0.2857400E+03  0.7818608E-02  0.1092595E+00
          2   -1    0    0  501    0  0.00000000000E+00  0.00000000000E+00  0.35460671895E+04  0.35460671895E+04  0.25500000000E-02 0.  1.
         -2   -1    0    0    0  501 -0.00000000000E+00 -0.00000000000E+00 -0.57561914889E+01  0.57561920537E+01  0.25500000000E-02 0. -1.
    5000001    1    1    2    0    0 -0.10382654436E+03  0.27744411683E+02  0.24433593437E+04  0.24469335067E+04  0.77000000000E+02 0.  0.
   -5000001    1    1    2    0    0  0.10382654436E+03 -0.27744411683E+02  0.10969516543E+04  0.11048898748E+04  0.77000000000E+02 0.  0.
<mgrwt>
<rscale>  0 0.28574004E+03</rscale>
<asrwt>0</asrwt>
<pdfrwt beam="1">  1        2 0.54554895E+00 0.28574004E+03</pdfrwt>
<pdfrwt beam="2">  1       -2 0.88556771E-03 0.28574004E+03</pdfrwt>
<totfact> 0.23997690E+03</totfact>
</mgrwt>
</event>
<event>
 4    1  0.1195463E-003  0.3792380E+03  0.7818608E-02  0.1051216E+00
          2   -1    0    0  501    0  0.00000000000E+00  0.00000000000E+00  0.10938851123E+04  0.10938851123E+04  0.25500000000E-02 0.  1.
         -2   -1    0    0    0  501 -0.00000000000E+00 -0.00000000000E+00 -0.32869407866E+02  0.32869407965E+02  0.25500000000E-02 0. -1.
    5000001    1    1    2    0    0  0.13005513227E+03 -0.24733349266E+02  0.19832486435E+03  0.25057499439E+03  0.77000000000E+02 0.  0.
   -5000001    1    1    2    0    0 -0.13005513227E+03  0.24733349266E+02  0.86269084012E+03  0.87617952591E+03  0.77000000000E+02 0.  0.
<mgrwt>
<rscale>  0 0.37923795E+03</rscale>
<asrwt>0</asrwt>
<pdfrwt beam="1">  1        2 0.16828998E+00 0.37923795E+03</pdfrwt>
<pdfrwt beam="2">  1       -2 0.50568330E-02 0.37923795E+03</pdfrwt>
<totfact> 0.44518701E+03</totfact>
</mgrwt>
</event>
<event>
 4    1  0.1195463E-003  0.2229338E+03  0.7818608E-02  0.1131714E+00
          2   -1    0    0  501    0  0.00000000000E+00  0.00000000000E+00  0.76062401218E+03  0.76062401218E+03  0.25500000000E-02 0.  1.
         -2   -1    0    0    0  501 -0.00000000000E+00 -0.00000000000E+00 -0.16335102769E+02  0.16335102968E+02  0.25500000000E-02 0. -1.
    5000001    1    1    2    0    0  0.51347319789E+02 -0.14873217216E+02  0.58235777362E+03  0.58985365671E+03  0.77000000000E+02 0.  0.
   -5000001    1    1    2    0    0 -0.51347319789E+02  0.14873217216E+02  0.16193113580E+03  0.18710545845E+03  0.77000000000E+02 0.  0.
<mgrwt>
<rscale>  0 0.22293382E+03</rscale>
<asrwt>0</asrwt>
<pdfrwt beam="1">  1        2 0.11701908E+00 0.22293382E+03</pdfrwt>
<pdfrwt beam="2">  1       -2 0.25130928E-02 0.22293382E+03</pdfrwt>
<totfact> 0.20501250E+04</totfact>
</mgrwt>
</event>
<event>
 4    1  0.1195463E-003  0.4875949E+03  0.7818608E-02  0.1017069E+00
          2   -1    0    0  501    0  0.00000000000E+00  0.00000000000E+00  0.11601723296E+04  0.11601723296E+04  0.25500000000E-02 0.  1.
         -2   -1    0    0    0  501 -0.00000000000E+00 -0.00000000000E+00 -0.51231351339E+02  0.51231351402E+02  0.25500000000E-02 0. -1.
    5000001    1    1    2    0    0  0.93334777069E+02 -0.25666665331E+02  0.32511660648E+02  0.12789122878E+03  0.77000000000E+02 0.  0.
   -5000001    1    1    2    0    0 -0.93334777069E+02  0.25666665331E+02  0.10764293176E+04  0.10835124522E+04  0.77000000000E+02 0.  0.
<mgrwt>
<rscale>  0 0.48759490E+03</rscale>
<asrwt>0</asrwt>
<pdfrwt beam="1">  1        2 0.17848804E+00 0.48759490E+03</pdfrwt>
<pdfrwt beam="2">  1       -2 0.78817469E-02 0.48759490E+03</pdfrwt>
<totfact> 0.20362087E+03</totfact>
</mgrwt>
</event>
<event>
 4    1  0.1195463E-003  0.1849143E+03  0.7818608E-02  0.1163130E+00
          2   -1    0    0  501    0  0.00000000000E+00  0.00000000000E+00  0.13213409272E+04  0.13213409272E+04  0.25500000000E-02 0.  1.
         -2   -1    0    0    0  501 -0.00000000000E+00 -0.00000000000E+00 -0.64694324096E+01  0.64694329121E+01  0.25500000000E-02 0. -1.
    5000001    1    1    2    0    0 -0.30722102559E+02  0.37057000082E+02  0.53259570024E+03  0.54028163837E+03  0.77000000000E+02 0.  0.
   -5000001    1    1    2    0    0  0.30722102559E+02 -0.37057000082E+02  0.78227579459E+03  0.78752872179E+03  0.77000000000E+02 0.  0.
<mgrwt>
<rscale>  0 0.18491432E+03</rscale>
<asrwt>0</asrwt>
<pdfrwt beam="1">  1        2 0.20328337E+00 0.18491432E+03</pdfrwt>
<pdfrwt beam="2">  1       -2 0.99529661E-03 0.18491432E+03</pdfrwt>
<totfact> 0.35716876E+04</totfact>
</mgrwt>
</event>
<event>
 4    1  0.1195463E-003  0.2519817E+03  0.7818608E-02  0.1112059E+00
          2   -1    0    0  501    0  0.00000000000E+00  0.00000000000E+00  0.20559215871E+03  0.20559215872E+03  0.25500000000E-02 0.  1.
         -2   -1    0    0    0  501 -0.00000000000E+00 -0.00000000000E+00 -0.77209648065E+02  0.77209648108E+02  0.25500000000E-02 0. -1.
    5000001    1    1    2    0    0 -0.52941131311E+02 -0.66471052050E+02  0.56206744018E+01  0.11481182921E+03  0.77000000000E+02 0.  0.
   -5000001    1    1    2    0    0  0.52941131311E+02  0.66471052050E+02  0.12276183624E+03  0.16798997762E+03  0.77000000000E+02 0.  0.
<mgrwt>
<rscale>  0 0.25198173E+03</rscale>
<asrwt>0</asrwt>
<pdfrwt beam="1">  1        2 0.31629562E-01 0.25198173E+03</pdfrwt>
<pdfrwt beam="2">  1       -2 0.11878408E-01 0.25198173E+03</pdfrwt>
<totfact> 0.81992224E+03</totfact>
</mgrwt>
</event>
<event>
 4    1  0.1195463E-003  0.5404029E+03  0.7818608E-02  0.1003740E+00
         -2   -1    0    0    0  501 -0.00000000000E+00  0.00000000000E+00  0.67572814445E+02  0.67572814493E+02  0.25500000000E-02 0. -1.
          2   -1    0    0  501    0  0.00000000000E+00 -0.00000000000E+00 -0.10804468520E+04  0.10804468520E+04  0.25500000000E-02 0.  1.
    5000001    1    1    2    0    0 -0.21675302144E+03 -0.90568706439E+02 -0.27474087340E+03  0.36958911023E+03  0.77000000000E+02 0.  0.
   -5000001    1    1    2    0    0  0.21675302144E+03  0.90568706439E+02 -0.73813316413E+03  0.77843055623E+03  0.77000000000E+02 0.  0.
<mgrwt>
<rscale>  0 0.54040294E+03</rscale>
<asrwt>0</asrwt>
<pdfrwt beam="1">  1        2 0.16622258E+00 0.54040294E+03</pdfrwt>
<pdfrwt beam="2">  1       -2 0.10395818E-01 0.54040294E+03</pdfrwt>
<totfact> 0.14565946E+03</totfact>
</mgrwt>
</event>
<event>
 4    1  0.1195463E-003  0.1803663E+03  0.7818608E-02  0.1167449E+00
          2   -1    0    0  501    0  0.00000000000E+00  0.00000000000E+00  0.29966300175E+04  0.29966300175E+04  0.25500000000E-02 0.  1.
         -2   -1    0    0    0  501 -0.00000000000E+00 -0.00000000000E+00 -0.27140481647E+01  0.27140493626E+01  0.25500000000E-02 0. -1.
    5000001    1    1    2    0    0  0.44053549563E+02  0.42578836479E+00  0.12272249139E+04  0.12304271152E+04  0.77000000000E+02 0.  0.
   -5000001    1    1    2    0    0 -0.44053549563E+02 -0.42578836479E+00  0.17666910555E+04  0.17689169517E+04  0.77000000000E+02 0.  0.
<mgrwt>
<rscale>  0 0.18036629E+03</rscale>
<asrwt>0</asrwt>
<pdfrwt beam="1">  1        2 0.46101982E+00 0.18036629E+03</pdfrwt>
<pdfrwt beam="2">  1       -2 0.41754613E-03 0.18036629E+03</pdfrwt>
<totfact> 0.15668851E+04</totfact>
</mgrwt>
</event>
<event>
 4    1  0.1195463E-003  0.7774959E+03  0.7818608E-02  0.9593174E-01
         -2   -1    0    0    0  501 -0.00000000000E+00  0.00000000000E+00  0.45628521434E+02  0.45628521506E+02  0.25500000000E-02 0. -1.
          2   -1    0    0  501    0  0.00000000000E+00 -0.00000000000E+00 -0.33120724705E+04  0.33120724705E+04  0.25500000000E-02 0.  1.
    5000001    1    1    2    0    0 -0.30836515210E+03 -0.57076610005E+02 -0.69847336091E+03  0.76950688258E+03  0.77000000000E+02 0.  0.
   -5000001    1    1    2    0    0  0.30836515210E+03  0.57076610005E+02 -0.25679705881E+04  0.25881941094E+04  0.77000000000E+02 0.  0.
<mgrwt>
<rscale>  0 0.77749590E+03</rscale>
<asrwt>0</asrwt>
<pdfrwt beam="1">  1        2 0.50954942E+00 0.77749590E+03</pdfrwt>
<pdfrwt beam="2">  1       -2 0.70197751E-02 0.77749590E+03</pdfrwt>
<totfact> 0.14100347E+02</totfact>
</mgrwt>
</event>
<event>
 4    1  0.1195463E-003  0.1731511E+03  0.7818608E-02  0.1174601E+00
         -2   -1    0    0    0  501 -0.00000000000E+00  0.00000000000E+00  0.45576257251E+02  0.45576257322E+02  0.25500000000E-02 0. -1.
          2   -1    0    0  501    0  0.00000000000E+00 -0.00000000000E+00 -0.16445681199E+03  0.16445681201E+03  0.25500000000E-02 0.  1.
    5000001    1    1    2    0    0 -0.10873289480E+02  0.38031448744E+02 -0.61024844615E+02  0.10591341359E+03  0.77000000000E+02 0.  0.
   -5000001    1    1    2    0    0  0.10873289480E+02 -0.38031448744E+02 -0.57855710120E+02  0.10411965574E+03  0.77000000000E+02 0.  0.
<mgrwt>
<rscale>  0 0.17315110E+03</rscale>
<asrwt>0</asrwt>
<pdfrwt beam="1">  1        2 0.25301048E-01 0.17315110E+03</pdfrwt>
<pdfrwt beam="2">  1       -2 0.70117320E-02 0.17315110E+03</pdfrwt>
<totfact> 0.23410960E+04</totfact>
</mgrwt>
</event>
<event>
 4    1  0.1195463E-003  0.2143405E+03  0.7818608E-02  0.1138174E+00
         -2   -1    0    0    0  501 -0.00000000000E+00  0.00000000000E+00  0.22814841522E+02  0.22814841665E+02  0.25500000000E-02 0. -1.
          2   -1    0    0  501    0  0.00000000000E+00 -0.00000000000E+00 -0.50342050069E+03  0.50342050070E+03  0.25500000000E-02 0.  1.
    5000001    1    1    2    0    0  0.61098381458E+02  0.42500772570E+02 -0.25046457730E+03  0.27239829729E+03  0.77000000000E+02 0.  0.
   -5000001    1    1    2    0    0 -0.61098381458E+02 -0.42500772570E+02 -0.23014108187E+03  0.25383704507E+03  0.77000000000E+02 0.  0.
<mgrwt>
<rscale>  0 0.21434047E+03</rscale>
<asrwt>0</asrwt>
<pdfrwt beam="1">  1        2 0.77449300E-01 0.21434047E+03</pdfrwt>
<pdfrwt beam="2">  1       -2 0.35099760E-02 0.21434047E+03</pdfrwt>
<totfact> 0.20184800E+04</totfact>
</mgrwt>
</event>
<event>
 4    1  0.1195463E-003  0.3614667E+03  0.7818608E-02  0.1058005E+00
          2   -1    0    0  501    0  0.00000000000E+00  0.00000000000E+00  0.16135730286E+04  0.16135730286E+04  0.25500000000E-02 0.  1.
         -2   -1    0    0    0  501 -0.00000000000E+00 -0.00000000000E+00 -0.20243613510E+02  0.20243613671E+02  0.25500000000E-02 0. -1.
    5000001    1    1    2    0    0 -0.39836276801E+02  0.15723737398E+03  0.88984924307E+03  0.90778367253E+03  0.77000000000E+02 0.  0.
   -5000001    1    1    2    0    0  0.39836276801E+02 -0.15723737398E+03  0.70348017207E+03  0.72603296979E+03  0.77000000000E+02 0.  0.
<mgrwt>
<rscale>  0 0.36146673E+03</rscale>
<asrwt>0</asrwt>
<pdfrwt beam="1">  1        2 0.24824202E+00 0.36146673E+03</pdfrwt>
<pdfrwt beam="2">  1       -2 0.31144019E-02 0.36146673E+03</pdfrwt>
<totfact> 0.47603954E+03</totfact>
</mgrwt>
</event>
<event>
 4    1  0.1195463E-003  0.4101676E+03  0.7818608E-02  0.1040315E+00
          2   -1    0    0  501    0  0.00000000000E+00  0.00000000000E+00  0.17264576063E+04  0.17264576063E+04  0.25500000000E-02 0.  1.
         -2   -1    0    0    0  501 -0.00000000000E+00 -0.00000000000E+00 -0.24361655534E+02  0.24361655668E+02  0.25500000000E-02 0. -1.
    5000001    1    1    2    0    0  0.14558765882E+03 -0.10215098649E+03  0.56471236085E+03  0.59704241134E+03  0.77000000000E+02 0.  0.
   -5000001    1    1    2    0    0 -0.14558765882E+03  0.10215098649E+03  0.11373835899E+04  0.11537768506E+04  0.77000000000E+02 0.  0.
<mgrwt>
<rscale>  0 0.41016760E+03</rscale>
<asrwt>0</asrwt>
<pdfrwt beam="1">  1        2 0.26560889E+00 0.41016760E+03</pdfrwt>
<pdfrwt beam="2">  1       -2 0.37479466E-02 0.41016760E+03</pdfrwt>
<totfact> 0.31298982E+03</totfact>
</mgrwt>
</event>
<event>
 4    1  0.1195463E-003  0.2052681E+03  0.7818608E-02  0.1145369E+00
          2   -1    0    0  501    0  0.00000000000E+00  0.00000000000E+00  0.28967166261E+04  0.28967166261E+04  0.25500000000E-02 0.  1.
         -2   -1    0    0    0  501 -0.00000000000E+00 -0.00000000000E+00 -0.36364451495E+01  0.36364460436E+01  0.25500000000E-02 0. -1.
    5000001    1    1    2    0    0 -0.16190521143E+01 -0.65628584746E+02  0.12038483376E+04  0.12080933542E+04  0.77000000000E+02 0.  0.
   -5000001    1    1    2    0    0  0.16190521143E+01  0.65628584746E+02  0.16892318434E+04  0.16922597180E+04  0.77000000000E+02 0.  0.
<mgrwt>
<rscale>  0 0.20526814E+03</rscale>
<asrwt>0</asrwt>
<pdfrwt beam="1">  1        2 0.44565267E+00 0.20526814E+03</pdfrwt>
<pdfrwt beam="2">  1       -2 0.55944820E-03 0.20526814E+03</pdfrwt>
<totfact> 0.11814961E+04</totfact>
</mgrwt>
</event>
<event>
 4    1  0.1195463E-003  0.2710476E+03  0.7818608E-02  0.1100682E+00
         -2   -1    0    0    0  501 -0.00000000000E+00  0.00000000000E+00  0.10123417480E+02  0.10123417801E+02  0.25500000000E-02 0. -1.
          2   -1    0    0  501    0  0.00000000000E+00 -0.00000000000E+00 -0.18142784836E+04  0.18142784836E+04  0.25500000000E-02 0.  1.
    5000001    1    1    2    0    0  0.51157900473E+02  0.99078144743E+02 -0.88846630095E+03  0.89874077323E+03  0.77000000000E+02 0.  0.
   -5000001    1    1    2    0    0 -0.51157900473E+02 -0.99078144743E+02 -0.91568876515E+03  0.92566112815E+03  0.77000000000E+02 0.  0.
<mgrwt>
<rscale>  0 0.27104759E+03</rscale>
<asrwt>0</asrwt>
<pdfrwt beam="1">  1        2 0.27911951E+00 0.27104759E+03</pdfrwt>
<pdfrwt beam="2">  1       -2 0.15574503E-02 0.27104759E+03</pdfrwt>
<totfact> 0.10383439E+04</totfact>
</mgrwt>
</event>
<event>
 4    1  0.1195463E-003  0.1869772E+03  0.7818608E-02  0.1161216E+00
          2   -1    0    0  501    0  0.00000000000E+00  0.00000000000E+00  0.48959192821E+02  0.48959192888E+02  0.25500000000E-02 0.  1.
         -2   -1    0    0    0  501 -0.00000000000E+00 -0.00000000000E+00 -0.17851851543E+03  0.17851851545E+03  0.25500000000E-02 0. -1.
    5000001    1    1    2    0    0  0.78028970860E+01 -0.37022271643E+02 -0.10996784584E+03  0.13947566426E+03  0.77000000000E+02 0.  0.
   -5000001    1    1    2    0    0 -0.78028970860E+01  0.37022271643E+02 -0.19591476767E+02  0.88002044081E+02  0.77000000000E+02 0.  0.
<mgrwt>
<rscale>  0 0.18697724E+03</rscale>
<asrwt>0</asrwt>
<pdfrwt beam="1">  1        2 0.75321836E-02 0.18697724E+03</pdfrwt>
<pdfrwt beam="2">  1       -2 0.27464387E-01 0.18697724E+03</pdfrwt>
<totfact> 0.10622767E+04</totfact>
</mgrwt>
</event>
<event>
 4    1  0.1195463E-003  0.2968879E+03  0.7818608E-02  0.1086807E+00
          2   -1    0    0  501    0  0.00000000000E+00  0.00000000000E+00  0.15795590557E+04  0.15795590557E+04  0.25500000000E-02 0.  1.
         -2   -1    0    0    0  501 -0.00000000000E+00 -0.00000000000E+00 -0.13950478311E+02  0.13950478544E+02  0.25500000000E-02 0. -1.
    5000001    1    1    2    0    0  0.11354334934E+03  0.33369087925E+02  0.10288279624E+04  0.10384707817E+04  0.77000000000E+02 0.  0.
   -5000001    1    1    2    0    0 -0.11354334934E+03 -0.33369087925E+02  0.53678061499E+03  0.55503875256E+03  0.77000000000E+02 0.  0.
<mgrwt>
<rscale>  0 0.29688789E+03</rscale>
<asrwt>0</asrwt>
<pdfrwt beam="1">  1        2 0.24300911E+00 0.29688789E+03</pdfrwt>
<pdfrwt beam="2">  1       -2 0.21462273E-02 0.29688789E+03</pdfrwt>
<totfact> 0.86313762E+03</totfact>
</mgrwt>
</event>
<event>
 4    1  0.1195463E-003  0.3895729E+03  0.7818608E-02  0.1047451E+00
          2   -1    0    0  501    0  0.00000000000E+00  0.00000000000E+00  0.26783419407E+04  0.26783419407E+04  0.25500000000E-02 0.  1.
         -2   -1    0    0    0  501 -0.00000000000E+00 -0.00000000000E+00 -0.14166135376E+02  0.14166135605E+02  0.25500000000E-02 0. -1.
    5000001    1    1    2    0    0  0.15220591091E+03 -0.94047376470E+02  0.13244963609E+04  0.13387423793E+04  0.77000000000E+02 0.  0.
   -5000001    1    1    2    0    0 -0.15220591091E+03  0.94047376470E+02  0.13396794444E+04  0.13537656969E+04  0.77000000000E+02 0.  0.
<mgrwt>
<rscale>  0 0.38957287E+03</rscale>
<asrwt>0</asrwt>
<pdfrwt beam="1">  1        2 0.41205258E+00 0.38957287E+03</pdfrwt>
<pdfrwt beam="2">  1       -2 0.21794056E-02 0.38957287E+03</pdfrwt>
<totfact> 0.21508035E+03</totfact>
</mgrwt>
</event>
<event>
 4    1  0.1195463E-003  0.3392727E+03  0.7818608E-02  0.1067106E+00
         -2   -1    0    0    0  501 -0.00000000000E+00  0.00000000000E+00  0.16219451915E+02  0.16219452116E+02  0.25500000000E-02 0. -1.
          2   -1    0    0  501    0  0.00000000000E+00 -0.00000000000E+00 -0.17741959554E+04  0.17741959554E+04  0.25500000000E-02 0.  1.
    5000001    1    1    2    0    0  0.93868110101E+02  0.11112962641E+03 -0.66227060985E+03  0.68241657119E+03  0.77000000000E+02 0.  0.
   -5000001    1    1    2    0    0 -0.93868110101E+02 -0.11112962641E+03 -0.10957058936E+04  0.11079988363E+04  0.77000000000E+02 0.  0.
<mgrwt>
<rscale>  0 0.33927267E+03</rscale>
<asrwt>0</asrwt>
<pdfrwt beam="1">  1        2 0.27295307E+00 0.33927267E+03</pdfrwt>
<pdfrwt beam="2">  1       -2 0.24953017E-02 0.33927267E+03</pdfrwt>
<totfact> 0.54464145E+03</totfact>
</mgrwt>
</event>
<event>
 4    1  0.1195463E-003  0.4083606E+03  0.7818608E-02  0.1040923E+00
         -2   -1    0    0    0  501 -0.00000000000E+00  0.00000000000E+00  0.71441339153E+02  0.71441339199E+02  0.25500000000E-02 0. -1.
          2   -1    0    0  501    0  0.00000000000E+00 -0.00000000000E+00 -0.58355009114E+03  0.58355009114E+03  0.25500000000E-02 0.  1.
    5000001    1    1    2    0    0 -0.13239321792E+03  0.12231384982E+03 -0.34780216707E+03  0.39922924420E+03  0.77000000000E+02 0.  0.
   -5000001    1    1    2    0    0  0.13239321792E+03 -0.12231384982E+03 -0.16430658492E+03  0.25576218614E+03  0.77000000000E+02 0.  0.
<mgrwt>
<rscale>  0 0.40836062E+03</rscale>
<asrwt>0</asrwt>
<pdfrwt beam="1">  1        2 0.89776934E-01 0.40836062E+03</pdfrwt>
<pdfrwt beam="2">  1       -2 0.10990976E-01 0.40836062E+03</pdfrwt>
<totfact> 0.29888972E+03</totfact>
</mgrwt>
</event>
<event>
 4    1  0.1195463E-003  0.3129516E+03  0.7818608E-02  0.1078940E+00
         -2   -1    0    0    0  501 -0.00000000000E+00  0.00000000000E+00  0.40285028265E+02  0.40285028346E+02  0.25500000000E-02 0. -1.
          2   -1    0    0  501    0  0.00000000000E+00 -0.00000000000E+00 -0.60778585803E+03  0.60778585804E+03  0.25500000000E-02 0.  1.
    5000001    1    1    2    0    0  0.35161012802E+02  0.12653842748E+03 -0.35862762119E+03  0.38960369754E+03  0.77000000000E+02 0.  0.
   -5000001    1    1    2    0    0 -0.35161012802E+02 -0.12653842748E+03 -0.20887320857E+03  0.25846718885E+03  0.77000000000E+02 0.  0.
<mgrwt>
<rscale>  0 0.31295156E+03</rscale>
<asrwt>0</asrwt>
<pdfrwt beam="1">  1        2 0.93505510E-01 0.31295156E+03</pdfrwt>
<pdfrwt beam="2">  1       -2 0.61976971E-02 0.31295156E+03</pdfrwt>
<totfact> 0.70022358E+03</totfact>
</mgrwt>
</event>
<event>
 4    1  0.1195463E-003  0.2964257E+03  0.7818608E-02  0.1087041E+00
          2   -1    0    0  501    0  0.00000000000E+00  0.00000000000E+00  0.84982325038E+03  0.84982325038E+03  0.25500000000E-02 0.  1.
         -2   -1    0    0    0  501 -0.00000000000E+00 -0.00000000000E+00 -0.25848953355E+02  0.25848953481E+02  0.25500000000E-02 0. -1.
    5000001    1    1    2    0    0 -0.39020240908E+02 -0.49091251874E+02  0.73701258697E+03  0.74367269922E+03  0.77000000000E+02 0.  0.
   -5000001    1    1    2    0    0  0.39020240908E+02  0.49091251874E+02  0.86961710052E+02  0.13199950464E+03  0.77000000000E+02 0.  0.
<mgrwt>
<rscale>  0 0.29642565E+03</rscale>
<asrwt>0</asrwt>
<pdfrwt beam="1">  1        2 0.13074202E+00 0.29642565E+03</pdfrwt>
<pdfrwt beam="2">  1       -2 0.39767627E-02 0.29642565E+03</pdfrwt>
<totfact> 0.90933395E+03</totfact>
</mgrwt>
</event>
<event>
 4    1  0.1195463E-003  0.2058520E+03  0.7818608E-02  0.1144894E+00
          2   -1    0    0  501    0  0.00000000000E+00  0.00000000000E+00  0.28820180523E+03  0.28820180524E+03  0.25500000000E-02 0.  1.
         -2   -1    0    0    0  501 -0.00000000000E+00 -0.00000000000E+00 -0.36758120196E+02  0.36758120284E+02  0.25500000000E-02 0. -1.
    5000001    1    1    2    0    0 -0.60293708635E+02  0.27772798900E+02  0.10036084949E+03  0.14285643062E+03  0.77000000000E+02 0.  0.
   -5000001    1    1    2    0    0  0.60293708635E+02 -0.27772798900E+02  0.15108283555E+03  0.18210349491E+03  0.77000000000E+02 0.  0.
<mgrwt>
<rscale>  0 0.20585195E+03</rscale>
<asrwt>0</asrwt>
<pdfrwt beam="1">  1        2 0.44338740E-01 0.20585195E+03</pdfrwt>
<pdfrwt beam="2">  1       -2 0.56550954E-02 0.20585195E+03</pdfrwt>
<totfact> 0.17954172E+04</totfact>
</mgrwt>
</event>
<event>
 4    1  0.1195463E-003  0.2934558E+03  0.7818608E-02  0.1088558E+00
         -2   -1    0    0    0  501 -0.00000000000E+00  0.00000000000E+00  0.73134613875E+01  0.73134618320E+01  0.25500000000E-02 0. -1.
          2   -1    0    0  501    0  0.00000000000E+00 -0.00000000000E+00 -0.29437610992E+04  0.29437610992E+04  0.25500000000E-02 0.  1.
    5000001    1    1    2    0    0 -0.10521790845E+03  0.65553599493E+02 -0.16213969036E+04  0.16279511669E+04  0.77000000000E+02 0.  0.
   -5000001    1    1    2    0    0  0.10521790845E+03 -0.65553599493E+02 -0.13150507342E+04  0.13231233941E+04  0.77000000000E+02 0.  0.
<mgrwt>
<rscale>  0 0.29345585E+03</rscale>
<asrwt>0</asrwt>
<pdfrwt beam="1">  1        2 0.45288538E+00 0.29345585E+03</pdfrwt>
<pdfrwt beam="2">  1       -2 0.11251503E-02 0.29345585E+03</pdfrwt>
<totfact> 0.40337047E+03</totfact>
</mgrwt>
</event>
<event>
 4    1  0.1195463E-003  0.1781441E+03  0.7818608E-02  0.1169611E+00
          2   -1    0    0  501    0  0.00000000000E+00  0.00000000000E+00  0.19482035453E+03  0.19482035455E+03  0.25500000000E-02 0.  1.
         -2   -1    0    0    0  501 -0.00000000000E+00 -0.00000000000E+00 -0.40723846391E+02  0.40723846471E+02  0.25500000000E-02 0. -1.
    5000001    1    1    2    0    0  0.21549271660E+02 -0.34385161433E+02  0.52026518340E+02  0.10140251006E+03  0.77000000000E+02 0.  0.
   -5000001    1    1    2    0    0 -0.21549271660E+02  0.34385161433E+02  0.10206998980E+03  0.13414169096E+03  0.77000000000E+02 0.  0.
<mgrwt>
<rscale>  0 0.17814415E+03</rscale>
<asrwt>0</asrwt>
<pdfrwt beam="1">  1        2 0.29972362E-01 0.17814415E+03</pdfrwt>
<pdfrwt beam="2">  1       -2 0.62652072E-02 0.17814415E+03</pdfrwt>
<totfact> 0.23154234E+04</totfact>
</mgrwt>
</event>
<event>
 4    1  0.1195463E-003  0.3797171E+03  0.7818608E-02  0.1051038E+00
          2   -1    0    0  501    0  0.00000000000E+00  0.00000000000E+00  0.12306531090E+03  0.12306531093E+03  0.25500000000E-02 0.  1.
         -2   -1    0    0    0  501 -0.00000000000E+00 -0.00000000000E+00 -0.29290360584E+03  0.29290360585E+03  0.25500000000E-02 0. -1.
    5000001    1    1    2    0    0  0.40158926423E+02  0.84267790650E+02 -0.24518567476E+03  0.27342058266E+03  0.77000000000E+02 0.  0.
   -5000001    1    1    2    0    0 -0.40158926423E+02 -0.84267790650E+02  0.75347379828E+02  0.14254833412E+03  0.77000000000E+02 0.  0.
<mgrwt>
<rscale>  0 0.37971712E+03</rscale>
<asrwt>0</asrwt>
<pdfrwt beam="1">  1        2 0.18933125E-01 0.37971712E+03</pdfrwt>
<pdfrwt beam="2">  1       -2 0.45062093E-01 0.37971712E+03</pdfrwt>
<totfact> 0.14071819E+03</totfact>
</mgrwt>
</event>
<event>
 4    1  0.1195463E-003  0.1922820E+03  0.7818608E-02  0.1156419E+00
          2   -1    0    0  501    0  0.00000000000E+00  0.00000000000E+00  0.65721443942E+02  0.65721443991E+02  0.25500000000E-02 0.  1.
         -2   -1    0    0    0  501 -0.00000000000E+00 -0.00000000000E+00 -0.14064042528E+03  0.14064042531E+03  0.25500000000E-02 0. -1.
    5000001    1    1    2    0    0 -0.36621542906E+01 -0.55110457780E+02 -0.54881405507E+02  0.10950590213E+03  0.77000000000E+02 0.  0.
   -5000001    1    1    2    0    0  0.36621542906E+01  0.55110457780E+02 -0.20037575834E+02  0.96855967168E+02  0.77000000000E+02 0.  0.
<mgrwt>
<rscale>  0 0.19228200E+03</rscale>
<asrwt>0</asrwt>
<pdfrwt beam="1">  1        2 0.10110991E-01 0.19228200E+03</pdfrwt>
<pdfrwt beam="2">  1       -2 0.21636988E-01 0.19228200E+03</pdfrwt>
<totfact> 0.11172478E+04</totfact>
</mgrwt>
</event>
<event>
 4    1  0.1195463E-003  0.4208505E+03  0.7818608E-02  0.1036790E+00
         -2   -1    0    0    0  501 -0.00000000000E+00  0.00000000000E+00  0.58323269697E+02  0.58323269752E+02  0.25500000000E-02 0. -1.
          2   -1    0    0  501    0  0.00000000000E+00 -0.00000000000E+00 -0.75919605597E+03  0.75919605597E+03  0.25500000000E-02 0.  1.
    5000001    1    1    2    0    0 -0.14091919482E+03 -0.12604000355E+03 -0.44959152575E+03  0.49376699159E+03  0.77000000000E+02 0.  0.
   -5000001    1    1    2    0    0  0.14091919482E+03  0.12604000355E+03 -0.25128126053E+03  0.32375233413E+03  0.77000000000E+02 0.  0.
<mgrwt>
<rscale>  0 0.42085055E+03</rscale>
<asrwt>0</asrwt>
<pdfrwt beam="1">  1        2 0.11679939E+00 0.42085055E+03</pdfrwt>
<pdfrwt beam="2">  1       -2 0.89728113E-02 0.42085055E+03</pdfrwt>
<totfact> 0.30060759E+03</totfact>
</mgrwt>
</event>
<event>
 4    1  0.1195463E-003  0.2168649E+03  0.7818608E-02  0.1136242E+00
          2   -1    0    0  501    0  0.00000000000E+00  0.00000000000E+00  0.17486714516E+04  0.17486714516E+04  0.25500000000E-02 0.  1.
         -2   -1    0    0    0  501 -0.00000000000E+00 -0.00000000000E+00 -0.67237298662E+01  0.67237303497E+01  0.25500000000E-02 0. -1.
    5000001    1    1    2    0    0  0.40920094337E+02  0.63519765574E+02  0.78253325189E+03  0.78993449416E+03  0.77000000000E+02 0.  0.
   -5000001    1    1    2    0    0 -0.40920094337E+02 -0.63519765574E+02  0.95941446986E+03  0.96546068781E+03  0.77000000000E+02 0.  0.
<mgrwt>
<rscale>  0 0.21686489E+03</rscale>
<asrwt>0</asrwt>
<pdfrwt beam="1">  1        2 0.26902646E+00 0.21686489E+03</pdfrwt>
<pdfrwt beam="2">  1       -2 0.10344197E-02 0.21686489E+03</pdfrwt>
<totfact> 0.20250048E+04</totfact>
</mgrwt>
</event>
<event>
 4    1  0.1195463E-003  0.2120279E+03  0.7818608E-02  0.1139970E+00
          2   -1    0    0  501    0  0.00000000000E+00  0.00000000000E+00  0.52993700003E+03  0.52993700003E+03  0.25500000000E-02 0.  1.
         -2   -1    0    0    0  501 -0.00000000000E+00 -0.00000000000E+00 -0.21208093288E+02  0.21208093441E+02  0.25500000000E-02 0. -1.
    5000001    1    1    2    0    0 -0.71546743747E+02 -0.13805687252E+02  0.25268017915E+03  0.27401789444E+03  0.77000000000E+02 0.  0.
   -5000001    1    1    2    0    0  0.71546743747E+02  0.13805687252E+02  0.25604872759E+03  0.27712719903E+03  0.77000000000E+02 0.  0.
<mgrwt>
<rscale>  0 0.21202786E+03</rscale>
<asrwt>0</asrwt>
<pdfrwt beam="1">  1        2 0.81528767E-01 0.21202786E+03</pdfrwt>
<pdfrwt beam="2">  1       -2 0.32627837E-02 0.21202786E+03</pdfrwt>
<totfact> 0.21231546E+04</totfact>
</mgrwt>
</event>
<event>
 4    1  0.1195463E-003  0.3737745E+03  0.7818608E-02  0.1053259E+00
         -2   -1    0    0    0  501 -0.00000000000E+00  0.00000000000E+00  0.36594614059E+02  0.36594614148E+02  0.25500000000E-02 0.  1.
          2   -1    0    0  501    0  0.00000000000E+00 -0.00000000000E+00 -0.95442588141E+03  0.95442588141E+03  0.25500000000E-02 0. -1.
    5000001    1    1    2    0    0  0.13772471906E+03  0.90634742311E+02 -0.34595625875E+03  0.39089319222E+03  0.77000000000E+02 0.  0.
   -5000001    1    1    2    0    0 -0.13772471906E+03 -0.90634742311E+02 -0.57187500859E+03  0.60012730334E+03  0.77000000000E+02 0.  0.
<mgrwt>
<rscale>  0 0.37377451E+03</rscale>
<asrwt>0</asrwt>
<pdfrwt beam="1">  1        2 0.14683473E+00 0.37377451E+03</pdfrwt>
<pdfrwt beam="2">  1       -2 0.56299414E-02 0.37377451E+03</pdfrwt>
<totfact> 0.45973272E+03</totfact>
</mgrwt>
</event>
<event>
 4    1  0.1195463E-003  0.2632901E+03  0.7818608E-02  0.1105182E+00
         -2   -1    0    0    0  501 -0.00000000000E+00  0.00000000000E+00  0.28885597502E+02  0.28885597615E+02  0.25500000000E-02 0. -1.
          2   -1    0    0  501    0  0.00000000000E+00 -0.00000000000E+00 -0.59996759544E+03  0.59996759545E+03  0.25500000000E-02 0.  1.
    5000001    1    1    2    0    0  0.23462342648E+02  0.97820531045E+02 -0.20001994244E+03  0.23676214898E+03  0.77000000000E+02 0.  0.
   -5000001    1    1    2    0    0 -0.23462342648E+02 -0.97820531045E+02 -0.37106205550E+03  0.39209104408E+03  0.77000000000E+02 0.  0.
<mgrwt>
<rscale>  0 0.26329013E+03</rscale>
<asrwt>0</asrwt>
<pdfrwt beam="1">  1        2 0.92302698E-01 0.26329013E+03</pdfrwt>
<pdfrwt beam="2">  1       -2 0.44439385E-02 0.26329013E+03</pdfrwt>
<totfact> 0.11738576E+04</totfact>
</mgrwt>
</event>
<event>
 4    1  0.1195463E-003  0.1901286E+03  0.7818608E-02  0.1158345E+00
         -2   -1    0    0    0  501 -0.00000000000E+00  0.00000000000E+00  0.45620092503E+03  0.45620092504E+03  0.25500000000E-02 0. -1.
          2   -1    0    0  501    0  0.00000000000E+00 -0.00000000000E+00 -0.19809738600E+02  0.19809738764E+02  0.25500000000E-02 0.  1.
    5000001    1    1    2    0    0  0.12472515625E+02 -0.54338359888E+02  0.21822225961E+03  0.23802977879E+03  0.77000000000E+02 0.  0.
   -5000001    1    1    2    0    0 -0.12472515625E+02  0.54338359888E+02  0.21816892683E+03  0.23798088502E+03  0.77000000000E+02 0.  0.
<mgrwt>
<rscale>  0 0.19012860E+03</rscale>
<asrwt>0</asrwt>
<pdfrwt beam="1">  1        2 0.30476519E-02 0.19012860E+03</pdfrwt>
<pdfrwt beam="2">  1       -2 0.70184762E-01 0.19012860E+03</pdfrwt>
<totfact> 0.56510644E+03</totfact>
</mgrwt>
</event>
<event>
 4    1  0.1195463E-003  0.1708137E+03  0.7818608E-02  0.1177002E+00
          2   -1    0    0  501    0  0.00000000000E+00  0.00000000000E+00  0.48057640635E+03  0.48057640635E+03  0.25500000000E-02 0.  1.
         -2   -1    0    0    0  501 -0.00000000000E+00 -0.00000000000E+00 -0.15178301649E+02  0.15178301864E+02  0.25500000000E-02 0. -1.
    5000001    1    1    2    0    0 -0.12732447575E+01  0.36732133678E+02  0.22166151931E+03  0.23751568356E+03  0.77000000000E+02 0.  0.
   -5000001    1    1    2    0    0  0.12732447575E+01 -0.36732133678E+02  0.24373658539E+03  0.25823902465E+03  0.77000000000E+02 0.  0.
<mgrwt>
<rscale>  0 0.17081374E+03</rscale>
<asrwt>0</asrwt>
<pdfrwt beam="1">  1        2 0.73934825E-01 0.17081374E+03</pdfrwt>
<pdfrwt beam="2">  1       -2 0.23351236E-02 0.17081374E+03</pdfrwt>
<totfact> 0.38103904E+04</totfact>
</mgrwt>
</event>
<event>
 4    1  0.1195463E-003  0.2732608E+03  0.7818608E-02  0.1099428E+00
          2   -1    0    0  501    0  0.00000000000E+00  0.00000000000E+00  0.10254345718E+04  0.10254345718E+04  0.25500000000E-02 0.  1.
         -2   -1    0    0    0  501 -0.00000000000E+00 -0.00000000000E+00 -0.18204830902E+02  0.18204831081E+02  0.25500000000E-02 0. -1.
    5000001    1    1    2    0    0  0.70622277921E+02  0.87627169096E+02  0.47102018983E+03  0.49036215813E+03  0.77000000000E+02 0.  0.
   -5000001    1    1    2    0    0 -0.70622277921E+02 -0.87627169096E+02  0.53620955109E+03  0.55327724477E+03  0.77000000000E+02 0.  0.
<mgrwt>
<rscale>  0 0.27326078E+03</rscale>
<asrwt>0</asrwt>
<pdfrwt beam="1">  1        2 0.15775913E+00 0.27326078E+03</pdfrwt>
<pdfrwt beam="2">  1       -2 0.28007438E-02 0.27326078E+03</pdfrwt>
<totfact> 0.11856263E+04</totfact>
</mgrwt>
</event>
<event>
 4    1  0.1195463E-003  0.1647586E+03  0.7818608E-02  0.1183427E+00
          2   -1    0    0  501    0  0.00000000000E+00  0.00000000000E+00  0.11023537843E+04  0.11023537843E+04  0.25500000000E-02 0.  1.
         -2   -1    0    0    0  501 -0.00000000000E+00 -0.00000000000E+00 -0.61562383021E+01  0.61562388302E+01  0.25500000000E-02 0. -1.
    5000001    1    1    2    0    0 -0.14309185665E+02 -0.14543759381E+02  0.40679632857E+03  0.41452204606E+03  0.77000000000E+02 0.  0.
   -5000001    1    1    2    0    0  0.14309185665E+02  0.14543759381E+02  0.68940121738E+03  0.69398797702E+03  0.77000000000E+02 0.  0.
<mgrwt>
<rscale>  0 0.16475865E+03</rscale>
<asrwt>0</asrwt>
<pdfrwt beam="1">  1        2 0.16959287E+00 0.16475865E+03</pdfrwt>
<pdfrwt beam="2">  1       -2 0.94711372E-03 0.16475865E+03</pdfrwt>
<totfact> 0.50378351E+04</totfact>
</mgrwt>
</event>
<event>
 4    1  0.1195463E-003  0.2405665E+03  0.7818608E-02  0.1119416E+00
         -2   -1    0    0    0  501 -0.00000000000E+00  0.00000000000E+00  0.45804966105E+02  0.45804966176E+02  0.25500000000E-02 0. -1.
          2   -1    0    0  501    0  0.00000000000E+00 -0.00000000000E+00 -0.31586233659E+03  0.31586233660E+03  0.25500000000E-02 0.  1.
    5000001    1    1    2    0    0 -0.80713276387E+02  0.51730387840E+01 -0.20222353005E+03  0.23100811549E+03  0.77000000000E+02 0.  0.
   -5000001    1    1    2    0    0  0.80713276387E+02 -0.51730387840E+01 -0.67833840440E+02  0.13065918729E+03  0.77000000000E+02 0.  0.
<mgrwt>
<rscale>  0 0.24056653E+03</rscale>
<asrwt>0</asrwt>
<pdfrwt beam="1">  1        2 0.48594204E-01 0.24056653E+03</pdfrwt>
<pdfrwt beam="2">  1       -2 0.70469181E-02 0.24056653E+03</pdfrwt>
<totfact> 0.11724381E+04</totfact>
</mgrwt>
</event>
<event>
 4    1  0.1195463E-003  0.2128683E+03  0.7818608E-02  0.1139314E+00
          2   -1    0    0  501    0  0.00000000000E+00  0.00000000000E+00  0.98795808692E+03  0.98795808693E+03  0.25500000000E-02 0.  1.
         -2   -1    0    0    0  501 -0.00000000000E+00 -0.00000000000E+00 -0.11466309252E+02  0.11466309535E+02  0.25500000000E-02 0. -1.
    5000001    1    1    2    0    0  0.70511071927E+02 -0.10897226599E+02  0.40575847643E+03  0.41911752768E+03  0.77000000000E+02 0.  0.
   -5000001    1    1    2    0    0 -0.70511071927E+02  0.10897226599E+02  0.57073330124E+03  0.58030686878E+03  0.77000000000E+02 0.  0.
<mgrwt>
<rscale>  0 0.21286835E+03</rscale>
<asrwt>0</asrwt>
<pdfrwt beam="1">  1        2 0.15199355E+00 0.21286835E+03</pdfrwt>
<pdfrwt beam="2">  1       -2 0.17640477E-02 0.21286835E+03</pdfrwt>
<totfact> 0.24395116E+04</totfact>
</mgrwt>
</event>
<event>
 4    1  0.1195463E-003  0.1238366E+04  0.7818608E-02  0.9079922E-01
         -2   -1    0    0    0  501 -0.00000000000E+00  0.00000000000E+00  0.43977843383E+03  0.43977843384E+03  0.25500000000E-02 0. -1.
          2   -1    0    0  501    0  0.00000000000E+00 -0.00000000000E+00 -0.87177408035E+03  0.87177408036E+03  0.25500000000E-02 0.  1.
    5000001    1    1    2    0    0  0.42455796494E+03 -0.39314835321E+03  0.27090279030E+01  0.58373918154E+03  0.77000000000E+02 0.  0.
   -5000001    1    1    2    0    0 -0.42455796494E+03  0.39314835321E+03 -0.43470467442E+03  0.72781333266E+03  0.77000000000E+02 0.  0.
<mgrwt>
<rscale>  0 0.12383658E+04</rscale>
<asrwt>0</asrwt>
<pdfrwt beam="1">  1        2 0.13411909E+00 0.12383658E+04</pdfrwt>
<pdfrwt beam="2">  1       -2 0.67658220E-01 0.12383658E+04</pdfrwt>
<totfact> 0.60422220E+01</totfact>
</mgrwt>
</event>
<event>
 4    1  0.1195463E-003  0.2387787E+03  0.7818608E-02  0.1120609E+00
         -2   -1    0    0    0  501 -0.00000000000E+00  0.00000000000E+00  0.71540896278E+02  0.71540896323E+02  0.25500000000E-02 0. -1.
          2   -1    0    0  501    0  0.00000000000E+00 -0.00000000000E+00 -0.19924010467E+03  0.19924010469E+03  0.25500000000E-02 0.  1.
    5000001    1    1    2    0    0 -0.66014564309E+02  0.28199671337E+02  0.15955850908E-01  0.10527176459E+03  0.77000000000E+02 0.  0.
   -5000001    1    1    2    0    0  0.66014564309E+02 -0.28199671337E+02 -0.12771516425E+03  0.16550923643E+03  0.77000000000E+02 0.  0.
<mgrwt>
<rscale>  0 0.23877869E+03</rscale>
<asrwt>0</asrwt>
<pdfrwt beam="1">  1        2 0.30652324E-01 0.23877869E+03</pdfrwt>
<pdfrwt beam="2">  1       -2 0.11006292E-01 0.23877869E+03</pdfrwt>
<totfact> 0.95654691E+03</totfact>
</mgrwt>
</event>
<event>
 4    1  0.1195463E-003  0.3304707E+03  0.7818608E-02  0.1070929E+00
         -2   -1    0    0    0  501 -0.00000000000E+00  0.00000000000E+00  0.14481433077E+02  0.14481433302E+02  0.25500000000E-02 0. -1.
          2   -1    0    0  501    0  0.00000000000E+00 -0.00000000000E+00 -0.18853602490E+04  0.18853602490E+04  0.25500000000E-02 0.  1.
    5000001    1    1    2    0    0 -0.26956925850E+02 -0.82915743441E+02 -0.16100968672E+04  0.16142932256E+04  0.77000000000E+02 0.  0.
   -5000001    1    1    2    0    0  0.26956925850E+02  0.82915743441E+02 -0.26078194872E+03  0.28554845673E+03  0.77000000000E+02 0.  0.
<mgrwt>
<rscale>  0 0.33047069E+03</rscale>
<asrwt>0</asrwt>
<pdfrwt beam="1">  1        2 0.29005523E+00 0.33047069E+03</pdfrwt>
<pdfrwt beam="2">  1       -2 0.22279143E-02 0.33047069E+03</pdfrwt>
<totfact> 0.56295350E+03</totfact>
</mgrwt>
</event>
<event>
 4    1  0.1195463E-003  0.6617742E+03  0.7818608E-02  0.9784933E-01
          2   -1    0    0  501    0  0.00000000000E+00  0.00000000000E+00  0.30109196480E+03  0.30109196481E+03  0.25500000000E-02 0.  1.
         -2   -1    0    0    0  501 -0.00000000000E+00 -0.00000000000E+00 -0.36363067112E+03  0.36363067113E+03  0.25500000000E-02 0. -1.
    5000001    1    1    2    0    0 -0.15224629210E+03 -0.20948847926E+03  0.16061295084E+03  0.31430856873E+03  0.77000000000E+02 0.  0.
   -5000001    1    1    2    0    0  0.15224629210E+03  0.20948847926E+03 -0.22315165717E+03  0.35041406721E+03  0.77000000000E+02 0.  0.
<mgrwt>
<rscale>  0 0.66177420E+03</rscale>
<asrwt>0</asrwt>
<pdfrwt beam="1">  1        2 0.46321841E-01 0.66177420E+03</pdfrwt>
<pdfrwt beam="2">  1       -2 0.55943180E-01 0.66177420E+03</pdfrwt>
<totfact> 0.33131939E+02</totfact>
</mgrwt>
</event>
<event>
 4    1  0.1195463E-003  0.2913049E+03  0.7818608E-02  0.1089670E+00
         -2   -1    0    0    0  501 -0.00000000000E+00  0.00000000000E+00  0.34325215924E+03  0.34325215925E+03  0.25500000000E-02 0. -1.
          2   -1    0    0  501    0  0.00000000000E+00 -0.00000000000E+00 -0.61804818213E+02  0.61804818266E+02  0.25500000000E-02 0.  1.
    5000001    1    1    2    0    0  0.77130540239E+02  0.68608489108E+02  0.46115137415E+02  0.13679126768E+03  0.77000000000E+02 0.  0.
   -5000001    1    1    2    0    0 -0.77130540239E+02 -0.68608489108E+02  0.23533220361E+03  0.26826570983E+03  0.77000000000E+02 0.  0.
<mgrwt>
<rscale>  0 0.29130491E+03</rscale>
<asrwt>0</asrwt>
<pdfrwt beam="1">  1        2 0.95084337E-02 0.29130491E+03</pdfrwt>
<pdfrwt beam="2">  1       -2 0.52808024E-01 0.29130491E+03</pdfrwt>
<totfact> 0.23465481E+03</totfact>
</mgrwt>
</event>
<event>
 4    1  0.1195463E-003  0.2408212E+03  0.7818608E-02  0.1119247E+00
          2   -1    0    0  501    0  0.00000000000E+00  0.00000000000E+00  0.89536765033E+01  0.89536768664E+01  0.25500000000E-02 0.  1.
         -2   -1    0    0    0  501 -0.00000000000E+00 -0.00000000000E+00 -0.16193022034E+04  0.16193022034E+04  0.25500000000E-02 0. -1.
    5000001    1    1    2    0    0 -0.10337146428E+02 -0.85926367866E+02 -0.10273218286E+04  0.10338323543E+04  0.77000000000E+02 0.  0.
   -5000001    1    1    2    0    0  0.10337146428E+02  0.85926367866E+02 -0.58302669827E+03  0.59442352594E+03  0.77000000000E+02 0.  0.
<mgrwt>
<rscale>  0 0.24082117E+03</rscale>
<asrwt>0</asrwt>
<pdfrwt beam="1">  1        2 0.13774900E-02 0.24082117E+03</pdfrwt>
<pdfrwt beam="2">  1       -2 0.24912318E+00 0.24082117E+03</pdfrwt>
<totfact> 0.66650690E+02</totfact>
</mgrwt>
</event>
<event>
 4    1  0.1195463E-003  0.1793149E+03  0.7818608E-02  0.1168468E+00
         -2   -1    0    0    0  501 -0.00000000000E+00  0.00000000000E+00  0.15489778426E+02  0.15489778636E+02  0.25500000000E-02 0. -1.
          2   -1    0    0  501    0  0.00000000000E+00 -0.00000000000E+00 -0.51895267746E+03  0.51895267746E+03  0.25500000000E-02 0.  1.
    5000001    1    1    2    0    0 -0.19453237149E+02 -0.38334907831E+02 -0.29992557674E+03  0.31262172858E+03  0.77000000000E+02 0.  0.
   -5000001    1    1    2    0    0  0.19453237149E+02  0.38334907831E+02 -0.20353732229E+03  0.22182072752E+03  0.77000000000E+02 0.  0.
<mgrwt>
<rscale>  0 0.17931494E+03</rscale>
<asrwt>0</asrwt>
<pdfrwt beam="1">  1        2 0.79838860E-01 0.17931494E+03</pdfrwt>
<pdfrwt beam="2">  1       -2 0.23830432E-02 0.17931494E+03</pdfrwt>
<totfact> 0.34120429E+04</totfact>
</mgrwt>
</event>
<event>
 4    1  0.1195463E-003  0.2670933E+03  0.7818608E-02  0.1102955E+00
         -2   -1    0    0    0  501 -0.00000000000E+00  0.00000000000E+00  0.75066869860E+02  0.75066869903E+02  0.25500000000E-02 0. -1.
          2   -1    0    0  501    0  0.00000000000E+00 -0.00000000000E+00 -0.23758426686E+03  0.23758426687E+03  0.25500000000E-02 0.  1.
    5000001    1    1    2    0    0  0.78440276086E+02 -0.40766493588E+02 -0.15612867459E+03  0.19524330192E+03  0.77000000000E+02 0.  0.
   -5000001    1    1    2    0    0 -0.78440276086E+02  0.40766493588E+02 -0.63887224013E+01  0.11740783486E+03  0.77000000000E+02 0.  0.
<mgrwt>
<rscale>  0 0.26709330E+03</rscale>
<asrwt>0</asrwt>
<pdfrwt beam="1">  1        2 0.36551425E-01 0.26709330E+03</pdfrwt>
<pdfrwt beam="2">  1       -2 0.11548749E-01 0.26709330E+03</pdfrwt>
<totfact> 0.73495406E+03</totfact>
</mgrwt>
</event>
<event>
 4    1  0.1195463E-003  0.6740298E+03  0.7818608E-02  0.9762705E-01
          2   -1    0    0  501    0  0.00000000000E+00  0.00000000000E+00  0.24390551598E+04  0.24390551598E+04  0.25500000000E-02 0.  1.
         -2   -1    0    0    0  501 -0.00000000000E+00 -0.00000000000E+00 -0.46566824772E+02  0.46566824842E+02  0.25500000000E-02 0. -1.
    5000001    1    1    2    0    0 -0.24122822947E+03 -0.20338171046E+03  0.86445588220E+03  0.92345446618E+03  0.77000000000E+02 0.  0.
   -5000001    1    1    2    0    0  0.24122822947E+03  0.20338171046E+03  0.15280324528E+04  0.15621675185E+04  0.77000000000E+02 0.  0.
<mgrwt>
<rscale>  0 0.67402983E+03</rscale>
<asrwt>0</asrwt>
<pdfrwt beam="1">  1        2 0.37523927E+00 0.67402983E+03</pdfrwt>
<pdfrwt beam="2">  1       -2 0.71641266E-02 0.67402983E+03</pdfrwt>
<totfact> 0.46190973E+02</totfact>
</mgrwt>
</event>
<event>
 4    1  0.1195463E-003  0.2362611E+03  0.7818608E-02  0.1122309E+00
         -2   -1    0    0    0  501 -0.00000000000E+00  0.00000000000E+00  0.59867674787E+03  0.59867674788E+03  0.25500000000E-02 0. -1.
          2   -1    0    0  501    0  0.00000000000E+00 -0.00000000000E+00 -0.23309456419E+02  0.23309456558E+02  0.25500000000E-02 0.  1.
    5000001    1    1    2    0    0 -0.83863224991E+01 -0.87195981174E+02  0.33710126642E+03  0.35670678906E+03  0.77000000000E+02 0.  0.
   -5000001    1    1    2    0    0  0.83863224991E+01  0.87195981174E+02  0.23826602503E+03  0.26527941537E+03  0.77000000000E+02 0.  0.
<mgrwt>
<rscale>  0 0.23626112E+03</rscale>
<asrwt>0</asrwt>
<pdfrwt beam="1">  1        2 0.35860702E-02 0.23626112E+03</pdfrwt>
<pdfrwt beam="2">  1       -2 0.92104116E-01 0.23626112E+03</pdfrwt>
<totfact> 0.25249684E+03</totfact>
</mgrwt>
</event>
<event>
 4    1  0.1195463E-003  0.2696184E+03  0.7818608E-02  0.1101498E+00
          2   -1    0    0  501    0  0.00000000000E+00  0.00000000000E+00  0.20087676437E+02  0.20087676599E+02  0.25500000000E-02 0.  1.
         -2   -1    0    0    0  501 -0.00000000000E+00 -0.00000000000E+00 -0.90470982392E+03  0.90470982392E+03  0.25500000000E-02 0. -1.
    5000001    1    1    2    0    0  0.10630218453E+03  0.21784016707E+02 -0.36796413135E+03  0.39128161186E+03  0.77000000000E+02 0.  0.
   -5000001    1    1    2    0    0 -0.10630218453E+03 -0.21784016707E+02 -0.51665801613E+03  0.53351588866E+03  0.77000000000E+02 0.  0.
<mgrwt>
<rscale>  0 0.26961838E+03</rscale>
<asrwt>0</asrwt>
<pdfrwt beam="1">  1        2 0.30904125E-02 0.26961838E+03</pdfrwt>
<pdfrwt beam="2">  1       -2 0.13918610E+00 0.26961838E+03</pdfrwt>
<totfact> 0.11550781E+03</totfact>
</mgrwt>
</event>
<event>
 4    1  0.1195463E-003  0.1941231E+03  0.7818608E-02  0.1154794E+00
          2   -1    0    0  501    0  0.00000000000E+00  0.00000000000E+00  0.98563105889E+03  0.98563105889E+03  0.25500000000E-02 0. -1.
         -2   -1    0    0    0  501 -0.00000000000E+00 -0.00000000000E+00 -0.95582877357E+01  0.95582880758E+01  0.25500000000E-02 0.  1.
    5000001    1    1    2    0    0  0.77166706147E+01  0.51486945663E+02  0.63135116652E+03  0.63815652315E+03  0.77000000000E+02 0.  0.
   -5000001    1    1    2    0    0 -0.77166706147E+01 -0.51486945663E+02  0.34472160463E+03  0.35703282381E+03  0.77000000000E+02 0.  0.
<mgrwt>
<rscale>  0 0.19412311E+03</rscale>
<asrwt>0</asrwt>
<pdfrwt beam="1">  1        2 0.15163541E+00 0.19412311E+03</pdfrwt>
<pdfrwt beam="2">  1       -2 0.14705071E-02 0.19412311E+03</pdfrwt>
<totfact> 0.31710501E+04</totfact>
</mgrwt>
</event>
<event>
 4    1  0.1195463E-003  0.2337360E+03  0.7818608E-02  0.1124037E+00
          2   -1    0    0  501    0  0.00000000000E+00  0.00000000000E+00  0.47030695983E+02  0.47030696052E+02  0.25500000000E-02 0.  1.
         -2   -1    0    0    0  501 -0.00000000000E+00 -0.00000000000E+00 -0.29040885657E+03  0.29040885658E+03  0.25500000000E-02 0. -1.
    5000001    1    1    2    0    0 -0.25600274879E+02  0.83188844048E+02 -0.10381002587E+03  0.15582451450E+03  0.77000000000E+02 0.  0.
   -5000001    1    1    2    0    0  0.25600274879E+02 -0.83188844048E+02 -0.13956813472E+03  0.18161503814E+03  0.77000000000E+02 0.  0.
<mgrwt>
<rscale>  0 0.23373601E+03</rscale>
<asrwt>0</asrwt>
<pdfrwt beam="1">  1        2 0.72354919E-02 0.23373601E+03</pdfrwt>
<pdfrwt beam="2">  1       -2 0.44678285E-01 0.23373601E+03</pdfrwt>
<totfact> 0.45838868E+03</totfact>
</mgrwt>
</event>
<event>
 4    1  0.1195463E-003  0.2587716E+03  0.7818608E-02  0.1107884E+00
         -2   -1    0    0    0  501 -0.00000000000E+00  0.00000000000E+00  0.21236404554E+02  0.21236404707E+02  0.25500000000E-02 0. -1.
          2   -1    0    0  501    0  0.00000000000E+00 -0.00000000000E+00 -0.78830130048E+03  0.78830130048E+03  0.25500000000E-02 0.  1.
    5000001    1    1    2    0    0  0.33920635224E+02 -0.85502596602E+02 -0.53519895424E+03  0.54847809814E+03  0.77000000000E+02 0.  0.
   -5000001    1    1    2    0    0 -0.33920635224E+02  0.85502596602E+02 -0.23186594169E+03  0.26105960705E+03  0.77000000000E+02 0.  0.
<mgrwt>
<rscale>  0 0.25877160E+03</rscale>
<asrwt>0</asrwt>
<pdfrwt beam="1">  1        2 0.12127710E+00 0.25877160E+03</pdfrwt>
<pdfrwt beam="2">  1       -2 0.32671398E-02 0.25877160E+03</pdfrwt>
<totfact> 0.13384204E+04</totfact>
</mgrwt>
</event>
<event>
 4    1  0.1195463E-003  0.2447869E+03  0.7818608E-02  0.1116644E+00
          2   -1    0    0  501    0  0.00000000000E+00  0.00000000000E+00  0.19662659820E+03  0.19662659821E+03  0.25500000000E-02 0.  1.
         -2   -1    0    0    0  501 -0.00000000000E+00 -0.00000000000E+00 -0.76185820658E+02  0.76185820701E+02  0.25500000000E-02 0. -1.
    5000001    1    1    2    0    0 -0.46512621133E+02  0.77933723838E+02  0.28421885422E+02  0.12236785855E+03  0.77000000000E+02 0.  0.
   -5000001    1    1    2    0    0  0.46512621133E+02 -0.77933723838E+02  0.92018892118E+02  0.15044456036E+03  0.77000000000E+02 0.  0.
<mgrwt>
<rscale>  0 0.24478692E+03</rscale>
<asrwt>0</asrwt>
<pdfrwt beam="1">  1        2 0.30250246E-01 0.24478692E+03</pdfrwt>
<pdfrwt beam="2">  1       -2 0.11720896E-01 0.24478692E+03</pdfrwt>
<totfact> 0.87839662E+03</totfact>
</mgrwt>
</event>
<event>
 4    1  0.1195463E-003  0.2009036E+03  0.7818608E-02  0.1148979E+00
         -2   -1    0    0    0  501 -0.00000000000E+00  0.00000000000E+00  0.11231461798E+02  0.11231462088E+02  0.25500000000E-02 0. -1.
          2   -1    0    0  501    0  0.00000000000E+00 -0.00000000000E+00 -0.89841926581E+03  0.89841926581E+03  0.25500000000E-02 0.  1.
    5000001    1    1    2    0    0  0.14700955763E+02  0.60733508850E+02 -0.51616372038E+03  0.52560314252E+03  0.77000000000E+02 0.  0.
   -5000001    1    1    2    0    0 -0.14700955763E+02 -0.60733508850E+02 -0.37102408363E+03  0.38404758538E+03  0.77000000000E+02 0.  0.
<mgrwt>
<rscale>  0 0.20090358E+03</rscale>
<asrwt>0</asrwt>
<pdfrwt beam="1">  1        2 0.13821829E+00 0.20090358E+03</pdfrwt>
<pdfrwt beam="2">  1       -2 0.17279179E-02 0.20090358E+03</pdfrwt>
<totfact> 0.28495824E+04</totfact>
</mgrwt>
</event>
<event>
 4    1  0.1195463E-003  0.3159878E+03  0.7818608E-02  0.1077511E+00
          2   -1    0    0  501    0  0.00000000000E+00  0.00000000000E+00  0.14564110276E+04  0.14564110276E+04  0.25500000000E-02 0.  1.
         -2   -1    0    0    0  501 -0.00000000000E+00 -0.00000000000E+00 -0.17139444021E+02  0.17139444211E+02  0.25500000000E-02 0. -1.
    5000001    1    1    2    0    0  0.20361939735E+02  0.10159911609E+03  0.29488782473E+03  0.32190808961E+03  0.77000000000E+02 0.  0.
   -5000001    1    1    2    0    0 -0.20361939735E+02 -0.10159911609E+03  0.11443837589E+04  0.11516423822E+04  0.77000000000E+02 0.  0.
<mgrwt>
<rscale>  0 0.31598782E+03</rscale>
<asrwt>0</asrwt>
<pdfrwt beam="1">  1        2 0.22406321E+00 0.31598782E+03</pdfrwt>
<pdfrwt beam="2">  1       -2 0.26368378E-02 0.31598782E+03</pdfrwt>
<totfact> 0.74123264E+03</totfact>
</mgrwt>
</event>
<event>
 4    1  0.1195463E-003  0.2238803E+03  0.7818608E-02  0.1131023E+00
         -2   -1    0    0    0  501 -0.00000000000E+00  0.00000000000E+00  0.54208162782E+02  0.54208162842E+02  0.25500000000E-02 0. -1.
          2   -1    0    0  501    0  0.00000000000E+00 -0.00000000000E+00 -0.23115710394E+03  0.23115710395E+03  0.25500000000E-02 0.  1.
    5000001    1    1    2    0    0  0.21288600941E+02 -0.49532704738E+02 -0.16595400404E+03  0.19072604654E+03  0.77000000000E+02 0.  0.
   -5000001    1    1    2    0    0 -0.21288600941E+02  0.49532704738E+02 -0.10994937109E+02  0.94639220257E+02  0.77000000000E+02 0.  0.
<mgrwt>
<rscale>  0 0.22388034E+03</rscale>
<asrwt>0</asrwt>
<pdfrwt beam="1">  1        2 0.35562631E-01 0.22388034E+03</pdfrwt>
<pdfrwt beam="2">  1       -2 0.83397175E-02 0.22388034E+03</pdfrwt>
<totfact> 0.12571939E+04</totfact>
</mgrwt>
</event>
<event>
 4    1  0.1195463E-003  0.3116510E+03  0.7818608E-02  0.1079557E+00
          2   -1    0    0  501    0  0.00000000000E+00  0.00000000000E+00  0.12592458819E+04  0.12592458819E+04  0.25500000000E-02 0.  1.
         -2   -1    0    0    0  501 -0.00000000000E+00 -0.00000000000E+00 -0.19282640881E+02  0.19282641049E+02  0.25500000000E-02 0. -1.
    5000001    1    1    2    0    0  0.44441330952E+02 -0.10281613954E+03  0.30737712717E+03  0.33608910835E+03  0.77000000000E+02 0.  0.
   -5000001    1    1    2    0    0 -0.44441330952E+02  0.10281613954E+03  0.93258611388E+03  0.94243941463E+03  0.77000000000E+02 0.  0.
<mgrwt>
<rscale>  0 0.31165100E+03</rscale>
<asrwt>0</asrwt>
<pdfrwt beam="1">  1        2 0.19373008E+00 0.31165100E+03</pdfrwt>
<pdfrwt beam="2">  1       -2 0.29665610E-02 0.31165100E+03</pdfrwt>
<totfact> 0.79835206E+03</totfact>
</mgrwt>
</event>
<event>
 4    1  0.1195463E-003  0.2491412E+03  0.7818608E-02  0.1113849E+00
         -2   -1    0    0    0  501 -0.00000000000E+00  0.00000000000E+00  0.89780298632E+02  0.89780298668E+02  0.25500000000E-02 0. -1.
          2   -1    0    0  501    0  0.00000000000E+00 -0.00000000000E+00 -0.17284230812E+03  0.17284230814E+03  0.25500000000E-02 0.  1.
    5000001    1    1    2    0    0 -0.54213005098E+02 -0.19669630444E+02  0.41889717274E+02  0.10492708276E+03  0.77000000000E+02 0.  0.
   -5000001    1    1    2    0    0  0.54213005098E+02  0.19669630444E+02 -0.12495172676E+03  0.15769552405E+03  0.77000000000E+02 0.  0.
<mgrwt>
<rscale>  0 0.24914120E+03</rscale>
<asrwt>0</asrwt>
<pdfrwt beam="1">  1        2 0.26591124E-01 0.24914120E+03</pdfrwt>
<pdfrwt beam="2">  1       -2 0.13812354E-01 0.24914120E+03</pdfrwt>
<totfact> 0.77636070E+03</totfact>
</mgrwt>
</event>
<event>
 4    1  0.1195463E-003  0.4341385E+03  0.7818608E-02  0.1032561E+00
          2   -1    0    0  501    0  0.00000000000E+00  0.00000000000E+00  0.21491162737E+04  0.21491162737E+04  0.25500000000E-02 0.  1.
         -2   -1    0    0    0  501 -0.00000000000E+00 -0.00000000000E+00 -0.21924856916E+02  0.21924857065E+02  0.25500000000E-02 0. -1.
    5000001    1    1    2    0    0  0.56493401018E+02 -0.17709203569E+03  0.14709992090E+04  0.14846955130E+04  0.77000000000E+02 0.  0.
   -5000001    1    1    2    0    0 -0.56493401018E+02  0.17709203569E+03  0.65619220779E+03  0.68634561777E+03  0.77000000000E+02 0.  0.
<mgrwt>
<rscale>  0 0.43413854E+03</rscale>
<asrwt>0</asrwt>
<pdfrwt beam="1">  1        2 0.33063323E+00 0.43413854E+03</pdfrwt>
<pdfrwt beam="2">  1       -2 0.33730553E-02 0.43413854E+03</pdfrwt>
<totfact> 0.21794508E+03</totfact>
</mgrwt>
</event>
<event>
 4    1  0.1195463E-003  0.1383760E+04  0.7818608E-02  0.8965658E-01
         -2   -1    0    0    0  501 -0.00000000000E+00  0.00000000000E+00  0.22176660460E+03  0.22176660461E+03  0.25500000000E-02 0. -1.
          2   -1    0    0  501    0  0.00000000000E+00 -0.00000000000E+00 -0.21585675556E+04  0.21585675556E+04  0.25500000000E-02 0.  1.
    5000001    1    1    2    0    0  0.12041858135E+02  0.55036747595E+03 -0.16770693115E+04  0.17667880010E+04  0.77000000000E+02 0.  0.
   -5000001    1    1    2    0    0 -0.12041858135E+02 -0.55036747595E+03 -0.25973163951E+03  0.61354615922E+03  0.77000000000E+02 0.  0.
<mgrwt>
<rscale>  0 0.13837604E+04</rscale>
<asrwt>0</asrwt>
<pdfrwt beam="1">  1        2 0.33208730E+00 0.13837604E+04</pdfrwt>
<pdfrwt beam="2">  1       -2 0.34117941E-01 0.13837604E+04</pdfrwt>
<totfact> 0.42764835E+01</totfact>
</mgrwt>
</event>
<event>
 4    1  0.1195463E-003  0.1943294E+03  0.7818608E-02  0.1154613E+00
          2   -1    0    0  501    0  0.00000000000E+00  0.00000000000E+00  0.54687099833E+03  0.54687099834E+03  0.25500000000E-02 0.  1.
         -2   -1    0    0    0  501 -0.00000000000E+00 -0.00000000000E+00 -0.17263636003E+02  0.17263636191E+02  0.25500000000E-02 0. -1.
    5000001    1    1    2    0    0 -0.44499532703E+02 -0.71236487744E+01  0.15308502784E+03  0.17718628765E+03  0.77000000000E+02 0.  0.
   -5000001    1    1    2    0    0  0.44499532703E+02  0.71236487744E+01  0.37652233449E+03  0.38694834688E+03  0.77000000000E+02 0.  0.
<mgrwt>
<rscale>  0 0.19432943E+03</rscale>
<asrwt>0</asrwt>
<pdfrwt beam="1">  1        2 0.84134003E-01 0.19432943E+03</pdfrwt>
<pdfrwt beam="2">  1       -2 0.26559439E-02 0.19432943E+03</pdfrwt>
<totfact> 0.27615983E+04</totfact>
</mgrwt>
</event>
<event>
 4    1  0.1195463E-003  0.4307130E+03  0.7818608E-02  0.1033635E+00
          2   -1    0    0  501    0  0.00000000000E+00  0.00000000000E+00  0.12132532255E+04  0.12132532255E+04  0.25500000000E-02 0.  1.
         -2   -1    0    0    0  501 -0.00000000000E+00 -0.00000000000E+00 -0.38226492484E+02  0.38226492569E+02  0.25500000000E-02 0. -1.
    5000001    1    1    2    0    0  0.31161672908E+02 -0.19833216084E+03  0.55280153797E+03  0.59314857857E+03  0.77000000000E+02 0.  0.
   -5000001    1    1    2    0    0 -0.31161672908E+02  0.19833216084E+03  0.62222519506E+03  0.65833113951E+03  0.77000000000E+02 0.  0.
<mgrwt>
<rscale>  0 0.43071297E+03</rscale>
<asrwt>0</asrwt>
<pdfrwt beam="1">  1        2 0.18665433E+00 0.43071297E+03</pdfrwt>
<pdfrwt beam="2">  1       -2 0.58809993E-02 0.43071297E+03</pdfrwt>
<totfact> 0.30028348E+03</totfact>
</mgrwt>
</event>
<event>
 4    1  0.1195463E-003  0.1748642E+03  0.7818608E-02  0.1172868E+00
          2   -1    0    0  501    0  0.00000000000E+00  0.00000000000E+00  0.17809131978E+04  0.17809131978E+04  0.25500000000E-02 0.  1.
         -2   -1    0    0    0  501 -0.00000000000E+00 -0.00000000000E+00 -0.42923899906E+01  0.42923907480E+01  0.25500000000E-02 0. -1.
    5000001    1    1    2    0    0 -0.29439889277E+02  0.28512940562E+02  0.94929195651E+03  0.95329109592E+03  0.77000000000E+02 0.  0.
   -5000001    1    1    2    0    0  0.29439889277E+02 -0.28512940562E+02  0.82732885130E+03  0.83191449263E+03  0.77000000000E+02 0.  0.
<mgrwt>
<rscale>  0 0.17486423E+03</rscale>
<asrwt>0</asrwt>
<pdfrwt beam="1">  1        2 0.27398643E+00 0.17486423E+03</pdfrwt>
<pdfrwt beam="2">  1       -2 0.66036827E-03 0.17486423E+03</pdfrwt>
<totfact> 0.36743394E+04</totfact>
</mgrwt>
</event>
<event>
 4    1  0.1195463E-003  0.2969790E+03  0.7818608E-02  0.1086761E+00
          2   -1    0    0  501    0  0.00000000000E+00  0.00000000000E+00  0.13356858352E+04  0.13356858352E+04  0.25500000000E-02 0.  1.
         -2   -1    0    0    0  501 -0.00000000000E+00 -0.00000000000E+00 -0.16507721749E+02  0.16507721946E+02  0.25500000000E-02 0. -1.
    5000001    1    1    2    0    0 -0.56580795495E+02  0.96913633092E+02  0.38920283395E+03  0.41231236296E+03  0.77000000000E+02 0.  0.
   -5000001    1    1    2    0    0  0.56580795495E+02 -0.96913633092E+02  0.92997527952E+03  0.93988119421E+03  0.77000000000E+02 0.  0.
<mgrwt>
<rscale>  0 0.29697899E+03</rscale>
<asrwt>0</asrwt>
<pdfrwt beam="1">  1        2 0.20549016E+00 0.29697899E+03</pdfrwt>
<pdfrwt beam="2">  1       -2 0.25396491E-02 0.29697899E+03</pdfrwt>
<totfact> 0.91139922E+03</totfact>
</mgrwt>
</event>
<event>
 4    1  0.1195463E-003  0.2163363E+03  0.7818608E-02  0.1136644E+00
          2   -1    0    0  501    0  0.00000000000E+00  0.00000000000E+00  0.24295122901E+03  0.24295122903E+03  0.25500000000E-02 0.  1.
         -2   -1    0    0    0  501 -0.00000000000E+00 -0.00000000000E+00 -0.48159233954E+02  0.48159234021E+02  0.25500000000E-02 0. -1.
    5000001    1    1    2    0    0 -0.21713745042E+02 -0.64583164600E+02  0.52184273469E+02  0.11530251633E+03  0.77000000000E+02 0.  0.
   -5000001    1    1    2    0    0  0.21713745042E+02  0.64583164600E+02  0.14260772159E+03  0.17580794672E+03  0.77000000000E+02 0.  0.
<mgrwt>
<rscale>  0 0.21633627E+03</rscale>
<asrwt>0</asrwt>
<pdfrwt beam="1">  1        2 0.37377113E-01 0.21633627E+03</pdfrwt>
<pdfrwt beam="2">  1       -2 0.74091129E-02 0.21633627E+03</pdfrwt>
<totfact> 0.14291170E+04</totfact>
</mgrwt>
</event>
<event>
 4    1  0.1195463E-003  0.2176951E+03  0.7818608E-02  0.1135613E+00
          2   -1    0    0  501    0  0.00000000000E+00  0.00000000000E+00  0.78510891694E+03  0.78510891695E+03  0.25500000000E-02 0.  1.
         -2   -1    0    0    0  501 -0.00000000000E+00 -0.00000000000E+00 -0.15090631558E+02  0.15090631773E+02  0.25500000000E-02 0. -1.
    5000001    1    1    2    0    0 -0.37124389363E+02 -0.39312257252E+02  0.58617600346E+03  0.59367919021E+03  0.77000000000E+02 0.  0.
   -5000001    1    1    2    0    0  0.37124389363E+02  0.39312257252E+02  0.18384228193E+03  0.20652035851E+03  0.77000000000E+02 0.  0.
<mgrwt>
<rscale>  0 0.21769510E+03</rscale>
<asrwt>0</asrwt>
<pdfrwt beam="1">  1        2 0.12078604E+00 0.21769510E+03</pdfrwt>
<pdfrwt beam="2">  1       -2 0.23216347E-02 0.21769510E+03</pdfrwt>
<totfact> 0.22114145E+04</totfact>
</mgrwt>
</event>
<event>
 4    1  0.1195463E-003  0.3450032E+03  0.7818608E-02  0.1064685E+00
         -2   -1    0    0    0  501 -0.00000000000E+00  0.00000000000E+00  0.27757810164E+02  0.27757810281E+02  0.25500000000E-02 0. -1.
          2   -1    0    0  501    0  0.00000000000E+00 -0.00000000000E+00 -0.10720154715E+04  0.10720154715E+04  0.25500000000E-02 0.  1.
    5000001    1    1    2    0    0 -0.13033958749E+03 -0.15133403334E+02 -0.78130380172E+03  0.79597867971E+03  0.77000000000E+02 0.  0.
   -5000001    1    1    2    0    0  0.13033958749E+03  0.15133403334E+02 -0.26295385958E+03  0.30379460205E+03  0.77000000000E+02 0.  0.
<mgrwt>
<rscale>  0 0.34500320E+03</rscale>
<asrwt>0</asrwt>
<pdfrwt beam="1">  1        2 0.16492543E+00 0.34500320E+03</pdfrwt>
<pdfrwt beam="2">  1       -2 0.42704332E-02 0.34500320E+03</pdfrwt>
<totfact> 0.59322164E+03</totfact>
</mgrwt>
</event>
<event>
 4    1  0.1195463E-003  0.1743084E+03  0.7818608E-02  0.1173428E+00
         -2   -1    0    0    0  501 -0.00000000000E+00  0.00000000000E+00  0.81472448630E+01  0.81472452621E+01  0.25500000000E-02 0. -1.
          2   -1    0    0  501    0  0.00000000000E+00 -0.00000000000E+00 -0.93232199396E+03  0.93232199396E+03  0.25500000000E-02 0.  1.
    5000001    1    1    2    0    0 -0.23040945379E+02 -0.33700479142E+02 -0.45939880944E+03  0.46759263635E+03  0.77000000000E+02 0.  0.
   -5000001    1    1    2    0    0  0.23040945379E+02  0.33700479142E+02 -0.46477593966E+03  0.47287660287E+03  0.77000000000E+02 0.  0.
<mgrwt>
<rscale>  0 0.17430841E+03</rscale>
<asrwt>0</asrwt>
<pdfrwt beam="1">  1        2 0.14343407E+00 0.17430841E+03</pdfrwt>
<pdfrwt beam="2">  1       -2 0.12534231E-02 0.17430841E+03</pdfrwt>
<totfact> 0.42748918E+04</totfact>
</mgrwt>
</event>
<event>
 4    1  0.1195463E-003  0.4243384E+03  0.7818608E-02  0.1035663E+00
          2   -1    0    0  501    0  0.00000000000E+00  0.00000000000E+00  0.11007960689E+04  0.11007960689E+04  0.25500000000E-02 0.  1.
         -2   -1    0    0    0  501 -0.00000000000E+00 -0.00000000000E+00 -0.40893832553E+02  0.40893832633E+02  0.25500000000E-02 0. -1.
    5000001    1    1    2    0    0  0.18595891325E+03 -0.64636985125E+02  0.48121538827E+03  0.52560052052E+03  0.77000000000E+02 0.  0.
   -5000001    1    1    2    0    0 -0.18595891325E+03  0.64636985125E+02  0.57868684808E+03  0.61608938102E+03  0.77000000000E+02 0.  0.
<mgrwt>
<rscale>  0 0.42433840E+03</rscale>
<asrwt>0</asrwt>
<pdfrwt beam="1">  1        2 0.16935321E+00 0.42433840E+03</pdfrwt>
<pdfrwt beam="2">  1       -2 0.62913600E-02 0.42433840E+03</pdfrwt>
<totfact> 0.31480100E+03</totfact>
</mgrwt>
</event>
<event>
 4    1  0.1195463E-003  0.2108493E+03  0.7818608E-02  0.1140895E+00
         -2   -1    0    0    0  501 -0.00000000000E+00  0.00000000000E+00  0.27667097774E+03  0.27667097775E+03  0.25500000000E-02 0. -1.
          2   -1    0    0  501    0  0.00000000000E+00 -0.00000000000E+00 -0.40171751524E+02  0.40171751605E+02  0.25500000000E-02 0.  1.
    5000001    1    1    2    0    0  0.15643023937E+02  0.55278693765E+02  0.18349021801E+03  0.20711856095E+03  0.77000000000E+02 0.  0.
   -5000001    1    1    2    0    0 -0.15643023937E+02 -0.55278693765E+02  0.53009008201E+02  0.10972416841E+03  0.77000000000E+02 0.  0.
<mgrwt>
<rscale>  0 0.21084931E+03</rscale>
<asrwt>0</asrwt>
<pdfrwt beam="1">  1        2 0.61802696E-02 0.21084931E+03</pdfrwt>
<pdfrwt beam="2">  1       -2 0.42564765E-01 0.21084931E+03</pdfrwt>
<totfact> 0.61345725E+03</totfact>
</mgrwt>
</event>
<event>
 4    1  0.1195463E-003  0.4855428E+03  0.7818608E-02  0.1017623E+00
         -2   -1    0    0    0  501 -0.00000000000E+00  0.00000000000E+00  0.10999664281E+03  0.10999664284E+03  0.25500000000E-02 0. -1.
          2   -1    0    0  501    0  0.00000000000E+00 -0.00000000000E+00 -0.53581586152E+03  0.53581586152E+03  0.25500000000E-02 0.  1.
    5000001    1    1    2    0    0  0.17192630825E+03  0.60890888182E+02 -0.39979743942E+03  0.44613153699E+03  0.77000000000E+02 0.  0.
   -5000001    1    1    2    0    0 -0.17192630825E+03 -0.60890888182E+02 -0.26021779291E+02  0.19968096737E+03  0.77000000000E+02 0.  0.
<mgrwt>
<rscale>  0 0.48554277E+03</rscale>
<asrwt>0</asrwt>
<pdfrwt beam="1">  1        2 0.82433208E-01 0.48554277E+03</pdfrwt>
<pdfrwt beam="2">  1       -2 0.16922561E-01 0.48554277E+03</pdfrwt>
<totfact> 0.16168001E+03</totfact>
</mgrwt>
</event>
<event>
 4    1  0.1195463E-003  0.2443601E+03  0.7818608E-02  0.1116922E+00
          2   -1    0    0  501    0  0.00000000000E+00  0.00000000000E+00  0.34292274978E+03  0.34292274979E+03  0.25500000000E-02 0.  1.
         -2   -1    0    0    0  501 -0.00000000000E+00 -0.00000000000E+00 -0.43531549838E+02  0.43531549913E+02  0.25500000000E-02 0. -1.
    5000001    1    1    2    0    0 -0.48259690607E+02  0.79930159822E+02  0.17621245387E+03  0.21377010335E+03  0.77000000000E+02 0.  0.
   -5000001    1    1    2    0    0  0.48259690607E+02 -0.79930159822E+02  0.12317874607E+03  0.17268419635E+03  0.77000000000E+02 0.  0.
<mgrwt>
<rscale>  0 0.24436005E+03</rscale>
<asrwt>0</asrwt>
<pdfrwt beam="1">  1        2 0.52757346E-01 0.24436005E+03</pdfrwt>
<pdfrwt beam="2">  1       -2 0.66971615E-02 0.24436005E+03</pdfrwt>
<totfact> 0.11620125E+04</totfact>
</mgrwt>
</event>
<event>
 4    1  0.1195463E-003  0.2044882E+03  0.7818608E-02  0.1146007E+00
          2   -1    0    0  501    0  0.00000000000E+00  0.00000000000E+00  0.47452935292E+02  0.47452935360E+02  0.25500000000E-02 0.  1.
         -2   -1    0    0    0  501 -0.00000000000E+00 -0.00000000000E+00 -0.22029943494E+03  0.22029943495E+03  0.25500000000E-02 0. -1.
    5000001    1    1    2    0    0 -0.31494171362E+02 -0.22746323545E+02 -0.14519706750E+02  0.87459133020E+02  0.77000000000E+02 0.  0.
   -5000001    1    1    2    0    0  0.31494171362E+02  0.22746323545E+02 -0.15832679289E+03  0.18029323729E+03  0.77000000000E+02 0.  0.
<mgrwt>
<rscale>  0 0.20448819E+03</rscale>
<asrwt>0</asrwt>
<pdfrwt beam="1">  1        2 0.73004517E-02 0.20448819E+03</pdfrwt>
<pdfrwt beam="2">  1       -2 0.33892220E-01 0.20448819E+03</pdfrwt>
<totfact> 0.75951747E+03</totfact>
</mgrwt>
</event>
<event>
 4    1  0.1195463E-003  0.3445433E+03  0.7818608E-02  0.1064877E+00
          2   -1    0    0  501    0  0.00000000000E+00  0.00000000000E+00  0.43332247706E+03  0.43332247707E+03  0.25500000000E-02 0.  1.
         -2   -1    0    0    0  501 -0.00000000000E+00 -0.00000000000E+00 -0.68488319528E+02  0.68488319575E+02  0.25500000000E-02 0. -1.
    5000001    1    1    2    0    0  0.10974387181E+02  0.15286223592E+03  0.15887710622E+03  0.23379100758E+03  0.77000000000E+02 0.  0.
   -5000001    1    1    2    0    0 -0.10974387181E+02 -0.15286223592E+03  0.20595705132E+03  0.26801978907E+03  0.77000000000E+02 0.  0.
<mgrwt>
<rscale>  0 0.34454334E+03</rscale>
<asrwt>0</asrwt>
<pdfrwt beam="1">  1        2 0.66664996E-01 0.34454334E+03</pdfrwt>
<pdfrwt beam="2">  1       -2 0.10536665E-01 0.34454334E+03</pdfrwt>
<totfact> 0.44730384E+03</totfact>
</mgrwt>
</event>
<event>
 4    1  0.1195463E-003  0.2213997E+03  0.7818608E-02  0.1132844E+00
          2   -1    0    0  501    0  0.00000000000E+00  0.00000000000E+00  0.10491197053E+03  0.10491197056E+03  0.25500000000E-02 0.  1.
         -2   -1    0    0    0  501 -0.00000000000E+00 -0.00000000000E+00 -0.11680706267E+03  0.11680706270E+03  0.25500000000E-02 0. -1.
    5000001    1    1    2    0    0 -0.13441810145E+02 -0.76740738354E+02 -0.21959224605E+02  0.11171853350E+03  0.77000000000E+02 0.  0.
   -5000001    1    1    2    0    0  0.13441810145E+02  0.76740738354E+02  0.10064132464E+02  0.11000049975E+03  0.77000000000E+02 0.  0.
<mgrwt>
<rscale>  0 0.22139972E+03</rscale>
<asrwt>0</asrwt>
<pdfrwt beam="1">  1        2 0.16140303E-01 0.22139972E+03</pdfrwt>
<pdfrwt beam="2">  1       -2 0.17970317E-01 0.22139972E+03</pdfrwt>
<totfact> 0.88073333E+03</totfact>
</mgrwt>
</event>
<event>
 4    1  0.1195463E-003  0.1683051E+03  0.7818608E-02  0.1179627E+00
          2   -1    0    0  501    0  0.00000000000E+00  0.00000000000E+00  0.14676338134E+04  0.14676338134E+04  0.25500000000E-02 0.  1.
         -2   -1    0    0    0  501 -0.00000000000E+00 -0.00000000000E+00 -0.48252179591E+01  0.48252186329E+01  0.25500000000E-02 0. -1.
    5000001    1    1    2    0    0  0.11216497994E+02 -0.32011086442E+02  0.74418480529E+03  0.74892626066E+03  0.77000000000E+02 0.  0.
   -5000001    1    1    2    0    0 -0.11216497994E+02  0.32011086442E+02  0.71862379017E+03  0.72353277140E+03  0.77000000000E+02 0.  0.
<mgrwt>
<rscale>  0 0.16830512E+03</rscale>
<asrwt>0</asrwt>
<pdfrwt beam="1">  1        2 0.22579005E+00 0.16830512E+03</pdfrwt>
<pdfrwt beam="2">  1       -2 0.74234051E-03 0.16830512E+03</pdfrwt>
<totfact> 0.45129194E+04</totfact>
</mgrwt>
</event>
<event>
 4    1  0.1195463E-003  0.2810271E+03  0.7818608E-02  0.1095129E+00
         -2   -1    0    0    0  501 -0.00000000000E+00  0.00000000000E+00  0.33636945513E+03  0.33636945514E+03  0.25500000000E-02 0. -1.
          2   -1    0    0  501    0  0.00000000000E+00 -0.00000000000E+00 -0.58697529522E+02  0.58697529578E+02  0.25500000000E-02 0.  1.
    5000001    1    1    2    0    0  0.47780169514E+02  0.61709092859E+02  0.15284901983E+02  0.11069591216E+03  0.77000000000E+02 0.  0.
   -5000001    1    1    2    0    0 -0.47780169514E+02 -0.61709092859E+02  0.26238702362E+03  0.28437107255E+03  0.77000000000E+02 0.  0.
<mgrwt>
<rscale>  0 0.28102709E+03</rscale>
<asrwt>0</asrwt>
<pdfrwt beam="1">  1        2 0.90303890E-02 0.28102709E+03</pdfrwt>
<pdfrwt beam="2">  1       -2 0.51749148E-01 0.28102709E+03</pdfrwt>
<totfact> 0.26053106E+03</totfact>
</mgrwt>
</event>
<event>
 4    1  0.1195463E-003  0.2379137E+03  0.7818608E-02  0.1121190E+00
          2   -1    0    0  501    0  0.00000000000E+00  0.00000000000E+00  0.30101014425E+04  0.30101014425E+04  0.25500000000E-02 0.  1.
         -2   -1    0    0    0  501 -0.00000000000E+00 -0.00000000000E+00 -0.47010828344E+01  0.47010835260E+01  0.25500000000E-02 0. -1.
    5000001    1    1    2    0    0 -0.78408487780E+02 -0.36833218226E+02  0.11633504759E+04  0.11691098780E+04  0.77000000000E+02 0.  0.
   -5000001    1    1    2    0    0  0.78408487780E+02  0.36833218226E+02  0.18420498837E+04  0.18456926480E+04  0.77000000000E+02 0.  0.
<mgrwt>
<rscale>  0 0.23791374E+03</rscale>
<asrwt>0</asrwt>
<pdfrwt beam="1">  1        2 0.46309220E+00 0.23791374E+03</pdfrwt>
<pdfrwt beam="2">  1       -2 0.72324408E-03 0.23791374E+03</pdfrwt>
<totfact> 0.70167271E+03</totfact>
</mgrwt>
</event>
<event>
 4    1  0.1195463E-003  0.3540811E+03  0.7818608E-02  0.1060952E+00
         -2   -1    0    0    0  501 -0.00000000000E+00  0.00000000000E+00  0.16555306912E+02  0.16555307108E+02  0.25500000000E-02 0. -1.
          2   -1    0    0  501    0  0.00000000000E+00 -0.00000000000E+00 -0.18932514560E+04  0.18932514560E+04  0.25500000000E-02 0.  1.
    5000001    1    1    2    0    0 -0.45025342648E+02 -0.11139123769E+03 -0.37319065318E+03  0.39954418146E+03  0.77000000000E+02 0.  0.
   -5000001    1    1    2    0    0  0.45025342648E+02  0.11139123769E+03 -0.15035054959E+04  0.15102625816E+04  0.77000000000E+02 0.  0.
<mgrwt>
<rscale>  0 0.35408112E+03</rscale>
<asrwt>0</asrwt>
<pdfrwt beam="1">  1        2 0.29126928E+00 0.35408112E+03</pdfrwt>
<pdfrwt beam="2">  1       -2 0.25469718E-02 0.35408112E+03</pdfrwt>
<totfact> 0.45679141E+03</totfact>
</mgrwt>
</event>
<event>
 4    1  0.1195463E-003  0.2751008E+03  0.7818608E-02  0.1098395E+00
          2   -1    0    0  501    0  0.00000000000E+00  0.00000000000E+00  0.23917222513E+04  0.23917222513E+04  0.25500000000E-02 0.  1.
         -2   -1    0    0    0  501 -0.00000000000E+00 -0.00000000000E+00 -0.79106627423E+01  0.79106631533E+01  0.25500000000E-02 0. -1.
    5000001    1    1    2    0    0  0.73309215133E+02  0.61459524800E+02  0.65140582178E+03  0.66288012405E+03  0.77000000000E+02 0.  0.
   -5000001    1    1    2    0    0 -0.73309215133E+02 -0.61459524800E+02  0.17324057668E+04  0.17367527904E+04  0.77000000000E+02 0.  0.
<mgrwt>
<rscale>  0 0.27510077E+03</rscale>
<asrwt>0</asrwt>
<pdfrwt beam="1">  1        2 0.36795757E+00 0.27510077E+03</pdfrwt>
<pdfrwt beam="2">  1       -2 0.12170241E-02 0.27510077E+03</pdfrwt>
<totfact> 0.73583228E+03</totfact>
</mgrwt>
</event>
<event>
 4    1  0.1195463E-003  0.2472251E+03  0.7818608E-02  0.1115071E+00
         -2   -1    0    0    0  501 -0.00000000000E+00  0.00000000000E+00  0.16544936572E+03  0.16544936574E+03  0.25500000000E-02 0. -1.
          2   -1    0    0  501    0  0.00000000000E+00 -0.00000000000E+00 -0.92354880931E+02  0.92354880967E+02  0.25500000000E-02 0.  1.
    5000001    1    1    2    0    0  0.36074112144E+02 -0.76748648473E+02 -0.11910157204E+02  0.11516313843E+03  0.77000000000E+02 0.  0.
   -5000001    1    1    2    0    0 -0.36074112144E+02  0.76748648473E+02  0.85004641996E+02  0.14264110828E+03  0.77000000000E+02 0.  0.
<mgrwt>
<rscale>  0 0.24722505E+03</rscale>
<asrwt>0</asrwt>
<pdfrwt beam="1">  1        2 0.14208443E-01 0.24722505E+03</pdfrwt>
<pdfrwt beam="2">  1       -2 0.25453748E-01 0.24722505E+03</pdfrwt>
<totfact> 0.56513341E+03</totfact>
</mgrwt>
</event>
<event>
 4    1  0.1195463E-003  0.3194939E+03  0.7818608E-02  0.1075882E+00
          2   -1    0    0  501    0  0.00000000000E+00  0.00000000000E+00  0.12319089267E+04  0.12319089267E+04  0.25500000000E-02 0.  1.
         -2   -1    0    0    0  501 -0.00000000000E+00 -0.00000000000E+00 -0.20715078493E+02  0.20715078650E+02  0.25500000000E-02 0. -1.
    5000001    1    1    2    0    0 -0.29848527168E+02  0.93006328471E+02  0.99862094969E+03  0.10063368784E+04  0.77000000000E+02 0.  0.
   -5000001    1    1    2    0    0  0.29848527168E+02 -0.93006328471E+02  0.21257289853E+03  0.24628712695E+03  0.77000000000E+02 0.  0.
<mgrwt>
<rscale>  0 0.31949391E+03</rscale>
<asrwt>0</asrwt>
<pdfrwt beam="1">  1        2 0.18952446E+00 0.31949391E+03</pdfrwt>
<pdfrwt beam="2">  1       -2 0.31869350E-02 0.31949391E+03</pdfrwt>
<totfact> 0.74346859E+03</totfact>
</mgrwt>
</event>
<event>
 4    1  0.1195463E-003  0.4023288E+03  0.7818608E-02  0.1042976E+00
         -2   -1    0    0    0  501 -0.00000000000E+00  0.00000000000E+00  0.61924942612E+02  0.61924942664E+02  0.25500000000E-02 0. -1.
          2   -1    0    0  501    0  0.00000000000E+00 -0.00000000000E+00 -0.65348664341E+03  0.65348664341E+03  0.25500000000E-02 0.  1.
    5000001    1    1    2    0    0 -0.21770498927E+02  0.16743928429E+03 -0.43384171665E+03  0.47186598061E+03  0.77000000000E+02 0.  0.
   -5000001    1    1    2    0    0  0.21770498927E+02 -0.16743928429E+03 -0.15771998415E+03  0.24354560547E+03  0.77000000000E+02 0.  0.
<mgrwt>
<rscale>  0 0.40232884E+03</rscale>
<asrwt>0</asrwt>
<pdfrwt beam="1">  1        2 0.10053640E+00 0.40232884E+03</pdfrwt>
<pdfrwt beam="2">  1       -2 0.95269147E-02 0.40232884E+03</pdfrwt>
<totfact> 0.32873860E+03</totfact>
</mgrwt>
</event>
<event>
 4    1  0.1195463E-003  0.2480053E+03  0.7818608E-02  0.1114572E+00
         -2   -1    0    0    0  501 -0.00000000000E+00  0.00000000000E+00  0.88959184903E+01  0.88959188558E+01  0.25500000000E-02 0. -1.
          2   -1    0    0  501    0  0.00000000000E+00 -0.00000000000E+00 -0.17285065550E+04  0.17285065550E+04  0.25500000000E-02 0.  1.
    5000001    1    1    2    0    0 -0.60487437321E+02  0.67824820838E+02 -0.11013396235E+04  0.11077621147E+04  0.77000000000E+02 0.  0.
   -5000001    1    1    2    0    0  0.60487437321E+02 -0.67824820838E+02 -0.61827101295E+03  0.62964035913E+03  0.77000000000E+02 0.  0.
<mgrwt>
<rscale>  0 0.24800527E+03</rscale>
<asrwt>0</asrwt>
<pdfrwt beam="1">  1        2 0.26592382E+00 0.24800527E+03</pdfrwt>
<pdfrwt beam="2">  1       -2 0.13686042E-02 0.24800527E+03</pdfrwt>
<totfact> 0.13882388E+04</totfact>
</mgrwt>
</event>
<event>
 4    1  0.1195463E-003  0.3414321E+03  0.7818608E-02  0.1066188E+00
          2   -1    0    0  501    0  0.00000000000E+00  0.00000000000E+00  0.17883591109E+04  0.17883591109E+04  0.25500000000E-02 0.  1.
         -2   -1    0    0    0  501 -0.00000000000E+00 -0.00000000000E+00 -0.16296487454E+02  0.16296487653E+02  0.25500000000E-02 0. -1.
    5000001    1    1    2    0    0  0.82227449134E+02 -0.72804005237E+02  0.14442310429E+04  0.14504461665E+04  0.77000000000E+02 0.  0.
   -5000001    1    1    2    0    0 -0.82227449134E+02  0.72804005237E+02  0.32783158054E+03  0.35420943207E+03  0.77000000000E+02 0.  0.
<mgrwt>
<rscale>  0 0.34143211E+03</rscale>
<asrwt>0</asrwt>
<pdfrwt beam="1">  1        2 0.27513197E+00 0.34143211E+03</pdfrwt>
<pdfrwt beam="2">  1       -2 0.25071538E-02 0.34143211E+03</pdfrwt>
<totfact> 0.53154749E+03</totfact>
</mgrwt>
</event>
<event>
 4    1  0.1195463E-003  0.2799930E+03  0.7818608E-02  0.1095693E+00
         -2   -1    0    0    0  501 -0.00000000000E+00  0.00000000000E+00  0.11416613103E+04  0.11416613103E+04  0.25500000000E-02 0. -1.
          2   -1    0    0  501    0  0.00000000000E+00 -0.00000000000E+00 -0.17167106394E+02  0.17167106583E+02  0.25500000000E-02 0.  1.
    5000001    1    1    2    0    0 -0.78965340590E+02  0.75522200858E+02  0.73443678082E+03  0.74650218544E+03  0.77000000000E+02 0.  0.
   -5000001    1    1    2    0    0  0.78965340590E+02 -0.75522200858E+02  0.39005742305E+03  0.41232623142E+03  0.77000000000E+02 0.  0.
<mgrwt>
<rscale>  0 0.27999301E+03</rscale>
<asrwt>0</asrwt>
<pdfrwt beam="1">  1        2 0.26410935E-02 0.27999301E+03</pdfrwt>
<pdfrwt beam="2">  1       -2 0.17564019E+00 0.27999301E+03</pdfrwt>
<totfact> 0.77739911E+02</totfact>
</mgrwt>
</event>
<event>
 4    1  0.1195463E-003  0.2207553E+03  0.7818608E-02  0.1133321E+00
         -2   -1    0    0    0  501 -0.00000000000E+00  0.00000000000E+00  0.11854960913E+02  0.11854961188E+02  0.25500000000E-02 0. -1.
          2   -1    0    0  501    0  0.00000000000E+00 -0.00000000000E+00 -0.10276899220E+04  0.10276899220E+04  0.25500000000E-02 0.  1.
    5000001    1    1    2    0    0 -0.41581388046E+02  0.33180837178E+02 -0.78347641706E+03  0.78904643455E+03  0.77000000000E+02 0.  0.
   -5000001    1    1    2    0    0  0.41581388046E+02 -0.33180837178E+02 -0.23235854399E+03  0.25049844861E+03  0.77000000000E+02 0.  0.
<mgrwt>
<rscale>  0 0.22075529E+03</rscale>
<asrwt>0</asrwt>
<pdfrwt beam="1">  1        2 0.15810607E+00 0.22075529E+03</pdfrwt>
<pdfrwt beam="2">  1       -2 0.18238410E-02 0.22075529E+03</pdfrwt>
<totfact> 0.22028998E+04</totfact>
</mgrwt>
</event>
<event>
 4    1  0.1195463E-003  0.2165660E+03  0.7818608E-02  0.1136469E+00
         -2   -1    0    0    0  501 -0.00000000000E+00  0.00000000000E+00  0.79817432597E+01  0.79817436670E+01  0.25500000000E-02 0. -1.
          2   -1    0    0  501    0  0.00000000000E+00 -0.00000000000E+00 -0.14690034982E+04  0.14690034982E+04  0.25500000000E-02 0.  1.
    5000001    1    1    2    0    0 -0.74823638373E+02 -0.21347761147E+01 -0.82527606400E+03  0.83223357054E+03  0.77000000000E+02 0.  0.
   -5000001    1    1    2    0    0  0.74823638373E+02  0.21347761147E+01 -0.63574569098E+03  0.64475167136E+03  0.77000000000E+02 0.  0.
<mgrwt>
<rscale>  0 0.21656601E+03</rscale>
<asrwt>0</asrwt>
<pdfrwt beam="1">  1        2 0.22600032E+00 0.21656601E+03</pdfrwt>
<pdfrwt beam="2">  1       -2 0.12279617E-02 0.21656601E+03</pdfrwt>
<totfact> 0.22161437E+04</totfact>
</mgrwt>
</event>
<event>
 4    1  0.1195463E-003  0.3752439E+03  0.7818608E-02  0.1052706E+00
          2   -1    0    0  501    0  0.00000000000E+00  0.00000000000E+00  0.21653332021E+03  0.21653332022E+03  0.25500000000E-02 0.  1.
         -2   -1    0    0    0  501 -0.00000000000E+00 -0.00000000000E+00 -0.16257081867E+03  0.16257081869E+03  0.25500000000E-02 0. -1.
    5000001    1    1    2    0    0 -0.51503117723E+02  0.15827816838E+03 -0.13029815548E+02  0.18385680790E+03  0.77000000000E+02 0.  0.
   -5000001    1    1    2    0    0  0.51503117723E+02 -0.15827816838E+03  0.66992317081E+02  0.19524733101E+03  0.77000000000E+02 0.  0.
<mgrwt>
<rscale>  0 0.37524392E+03</rscale>
<asrwt>0</asrwt>
<pdfrwt beam="1">  1        2 0.33312819E-01 0.37524392E+03</pdfrwt>
<pdfrwt beam="2">  1       -2 0.25010895E-01 0.37524392E+03</pdfrwt>
<totfact> 0.22310507E+03</totfact>
</mgrwt>
</event>
<event>
 4    1  0.1195463E-003  0.2455699E+03  0.7818608E-02  0.1116137E+00
         -2   -1    0    0    0  501 -0.00000000000E+00  0.00000000000E+00  0.77314663750E+01  0.77314667955E+01  0.25500000000E-02 0. -1.
          2   -1    0    0  501    0  0.00000000000E+00 -0.00000000000E+00 -0.19499714058E+04  0.19499714058E+04  0.25500000000E-02 0.  1.
    5000001    1    1    2    0    0 -0.58184259565E+02  0.48401739778E+02 -0.50497455627E+03  0.51638787646E+03  0.77000000000E+02 0.  0.
   -5000001    1    1    2    0    0  0.58184259565E+02 -0.48401739778E+02 -0.14372653831E+04  0.14413149961E+04  0.77000000000E+02 0.  0.
<mgrwt>
<rscale>  0 0.24556986E+03</rscale>
<asrwt>0</asrwt>
<pdfrwt beam="1">  1        2 0.29999521E+00 0.24556986E+03</pdfrwt>
<pdfrwt beam="2">  1       -2 0.11894580E-02 0.24556986E+03</pdfrwt>
<totfact> 0.13036218E+04</totfact>
</mgrwt>
</event>
<event>
 4    1  0.1195463E-003  0.2037783E+03  0.7818608E-02  0.1146590E+00
          2   -1    0    0  501    0  0.00000000000E+00  0.00000000000E+00  0.19389648290E+03  0.19389648291E+03  0.25500000000E-02 0.  1.
         -2   -1    0    0    0  501 -0.00000000000E+00 -0.00000000000E+00 -0.53540917416E+02  0.53540917477E+02  0.25500000000E-02 0. -1.
    5000001    1    1    2    0    0 -0.61639601583E+02 -0.48967598888E+01  0.10063041289E+03  0.14099254852E+03  0.77000000000E+02 0.  0.
   -5000001    1    1    2    0    0  0.61639601583E+02  0.48967598888E+01  0.39725152593E+02  0.10644485187E+03  0.77000000000E+02 0.  0.
<mgrwt>
<rscale>  0 0.20377827E+03</rscale>
<asrwt>0</asrwt>
<pdfrwt beam="1">  1        2 0.29830228E-01 0.20377827E+03</pdfrwt>
<pdfrwt beam="2">  1       -2 0.82370642E-02 0.20377827E+03</pdfrwt>
<totfact> 0.15420132E+04</totfact>
</mgrwt>
</event>
<event>
 4    1  0.1195463E-003  0.3289973E+03  0.7818608E-02  0.1071581E+00
          2   -1    0    0  501    0  0.00000000000E+00  0.00000000000E+00  0.23235323465E+03  0.23235323466E+03  0.25500000000E-02 0.  1.
         -2   -1    0    0    0  501 -0.00000000000E+00 -0.00000000000E+00 -0.11645978144E+03  0.11645978147E+03  0.25500000000E-02 0. -1.
    5000001    1    1    2    0    0 -0.10787612233E+03  0.97261739917E+02  0.64101829861E+02  0.17645154692E+03  0.77000000000E+02 0.  0.
   -5000001    1    1    2    0    0  0.10787612233E+03 -0.97261739917E+02  0.51791623343E+02  0.17236146921E+03  0.77000000000E+02 0.  0.
<mgrwt>
<rscale>  0 0.32899731E+03</rscale>
<asrwt>0</asrwt>
<pdfrwt beam="1">  1        2 0.35746651E-01 0.32899731E+03</pdfrwt>
<pdfrwt beam="2">  1       -2 0.17916890E-01 0.32899731E+03</pdfrwt>
<totfact> 0.36737435E+03</totfact>
</mgrwt>
</event>
<event>
 4    1  0.1195463E-003  0.2801054E+03  0.7818608E-02  0.1095631E+00
         -2   -1    0    0    0  501 -0.00000000000E+00  0.00000000000E+00  0.13258065532E+02  0.13258065777E+02  0.25500000000E-02 0. -1.
          2   -1    0    0  501    0  0.00000000000E+00 -0.00000000000E+00 -0.14794586314E+04  0.14794586314E+04  0.25500000000E-02 0.  1.
    5000001    1    1    2    0    0 -0.11645634659E+03 -0.10245365832E+02 -0.75615236179E+03  0.76900093786E+03  0.77000000000E+02 0.  0.
   -5000001    1    1    2    0    0  0.11645634659E+03  0.10245365832E+02 -0.71004820411E+03  0.72371575936E+03  0.77000000000E+02 0.  0.
<mgrwt>
<rscale>  0 0.28010541E+03</rscale>
<asrwt>0</asrwt>
<pdfrwt beam="1">  1        2 0.22760889E+00 0.28010541E+03</pdfrwt>
<pdfrwt beam="2">  1       -2 0.20397036E-02 0.28010541E+03</pdfrwt>
<totfact> 0.10514542E+04</totfact>
</mgrwt>
</event>
<event>
 4    1  0.1195463E-003  0.1910100E+03  0.7818608E-02  0.1157554E+00
          2   -1    0    0  501    0  0.00000000000E+00  0.00000000000E+00  0.34563455992E+03  0.34563455993E+03  0.25500000000E-02 0.  1.
         -2   -1    0    0    0  501 -0.00000000000E+00 -0.00000000000E+00 -0.26389726511E+02  0.26389726634E+02  0.25500000000E-02 0. -1.
    5000001    1    1    2    0    0  0.93747690446E+01 -0.47905587054E+02  0.10421233202E+03  0.13846314207E+03  0.77000000000E+02 0.  0.
   -5000001    1    1    2    0    0 -0.93747690446E+01  0.47905587054E+02  0.21503250139E+03  0.23356114450E+03  0.77000000000E+02 0.  0.
<mgrwt>
<rscale>  0 0.19100996E+03</rscale>
<asrwt>0</asrwt>
<pdfrwt beam="1">  1        2 0.53174547E-01 0.19100996E+03</pdfrwt>
<pdfrwt beam="2">  1       -2 0.40599580E-02 0.19100996E+03</pdfrwt>
<totfact> 0.24238787E+04</totfact>
</mgrwt>
</event>
<event>
 4    1  0.1195463E-003  0.2428189E+03  0.7818608E-02  0.1117929E+00
         -2   -1    0    0    0  501 -0.00000000000E+00  0.00000000000E+00  0.46011880824E+01  0.46011887890E+01  0.25500000000E-02 0. -1.
          2   -1    0    0  501    0  0.00000000000E+00 -0.00000000000E+00 -0.32035747397E+04  0.32035747397E+04  0.25500000000E-02 0.  1.
    5000001    1    1    2    0    0 -0.40018046426E+02 -0.78684603455E+02 -0.11778244259E+04  0.11836351165E+04  0.77000000000E+02 0.  0.
   -5000001    1    1    2    0    0  0.40018046426E+02  0.78684603455E+02 -0.20211491258E+04  0.20245408120E+04  0.77000000000E+02 0.  0.
<mgrwt>
<rscale>  0 0.24281887E+03</rscale>
<asrwt>0</asrwt>
<pdfrwt beam="1">  1        2 0.49285587E+00 0.24281887E+03</pdfrwt>
<pdfrwt beam="2">  1       -2 0.70787770E-03 0.24281887E+03</pdfrwt>
<totfact> 0.55314230E+03</totfact>
</mgrwt>
</event>
<event>
 4    1  0.1195463E-003  0.2913274E+03  0.7818608E-02  0.1089658E+00
          2   -1    0    0  501    0  0.00000000000E+00  0.00000000000E+00  0.77793437875E+02  0.77793437917E+02  0.25500000000E-02 0.  1.
         -2   -1    0    0    0  501 -0.00000000000E+00 -0.00000000000E+00 -0.27274683089E+03  0.27274683090E+03  0.25500000000E-02 0. -1.
    5000001    1    1    2    0    0  0.60207081079E+02 -0.88288108922E+02 -0.22630643544E+02  0.13364441184E+03  0.77000000000E+02 0.  0.
   -5000001    1    1    2    0    0 -0.60207081079E+02  0.88288108922E+02 -0.17232274947E+03  0.21689585698E+03  0.77000000000E+02 0.  0.
<mgrwt>
<rscale>  0 0.29132740E+03</rscale>
<asrwt>0</asrwt>
<pdfrwt beam="1">  1        2 0.11968221E-01 0.29132740E+03</pdfrwt>
<pdfrwt beam="2">  1       -2 0.41961050E-01 0.29132740E+03</pdfrwt>
<totfact> 0.27801115E+03</totfact>
</mgrwt>
</event>
<event>
 4    1  0.1195463E-003  0.2394816E+03  0.7818608E-02  0.1120139E+00
         -2   -1    0    0    0  501 -0.00000000000E+00  0.00000000000E+00  0.49600639653E+02  0.49600639719E+02  0.25500000000E-02 0. -1.
          2   -1    0    0  501    0  0.00000000000E+00 -0.00000000000E+00 -0.28906591071E+03  0.28906591072E+03  0.25500000000E-02 0.  1.
    5000001    1    1    2    0    0 -0.73952188958E+02  0.40991729072E+02 -0.16992268083E+03  0.20482178977E+03  0.77000000000E+02 0.  0.
   -5000001    1    1    2    0    0  0.73952188958E+02 -0.40991729072E+02 -0.69542590230E+02  0.13384476067E+03  0.77000000000E+02 0.  0.
<mgrwt>
<rscale>  0 0.23948156E+03</rscale>
<asrwt>0</asrwt>
<pdfrwt beam="1">  1        2 0.44471678E-01 0.23948156E+03</pdfrwt>
<pdfrwt beam="2">  1       -2 0.76308678E-02 0.23948156E+03</pdfrwt>
<totfact> 0.11394551E+04</totfact>
</mgrwt>
</event>
<event>
 4    1  0.1195463E-003  0.3191893E+03  0.7818608E-02  0.1076023E+00
          2   -1    0    0  501    0  0.00000000000E+00  0.00000000000E+00  0.67749369117E+03  0.67749369118E+03  0.25500000000E-02 0.  1.
         -2   -1    0    0    0  501 -0.00000000000E+00 -0.00000000000E+00 -0.37595119287E+02  0.37595119373E+02  0.25500000000E-02 0. -1.
    5000001    1    1    2    0    0  0.11758903919E+03  0.61794839355E+02  0.41749163423E+03  0.44483035976E+03  0.77000000000E+02 0.  0.
   -5000001    1    1    2    0    0 -0.11758903919E+03 -0.61794839355E+02  0.22240693765E+03  0.27025845079E+03  0.77000000000E+02 0.  0.
<mgrwt>
<rscale>  0 0.31918932E+03</rscale>
<asrwt>0</asrwt>
<pdfrwt beam="1">  1        2 0.10422979E+00 0.31918932E+03</pdfrwt>
<pdfrwt beam="2">  1       -2 0.57838648E-02 0.31918932E+03</pdfrwt>
<totfact> 0.68484481E+03</totfact>
</mgrwt>
</event>
<event>
 4    1  0.1195463E-003  0.5272485E+03  0.7818608E-02  0.1006902E+00
         -2   -1    0    0    0  501 -0.00000000000E+00  0.00000000000E+00  0.54831463786E+03  0.54831463787E+03  0.25500000000E-02 0. -1.
          2   -1    0    0  501    0  0.00000000000E+00 -0.00000000000E+00 -0.12674792002E+03  0.12674792005E+03  0.25500000000E-02 0.  1.
    5000001    1    1    2    0    0 -0.23627650036E+03  0.83205133032E+02  0.24742600535E+03  0.36041407701E+03  0.77000000000E+02 0.  0.
   -5000001    1    1    2    0    0  0.23627650036E+03 -0.83205133032E+02  0.17414071249E+03  0.31464848090E+03  0.77000000000E+02 0.  0.
<mgrwt>
<rscale>  0 0.52724848E+03</rscale>
<asrwt>0</asrwt>
<pdfrwt beam="1">  1        2 0.19499680E-01 0.52724848E+03</pdfrwt>
<pdfrwt beam="2">  1       -2 0.84356099E-01 0.52724848E+03</pdfrwt>
<totfact> 0.36275028E+02</totfact>
</mgrwt>
</event>
<event>
 4    1  0.1195463E-003  0.1740770E+03  0.7818608E-02  0.1173662E+00
          2   -1    0    0  501    0  0.00000000000E+00  0.00000000000E+00  0.87014730138E+03  0.87014730138E+03  0.25500000000E-02 0.  1.
         -2   -1    0    0    0  501 -0.00000000000E+00 -0.00000000000E+00 -0.87062302073E+01  0.87062305807E+01  0.25500000000E-02 0. -1.
    5000001    1    1    2    0    0 -0.24282399299E+02 -0.32044665351E+02  0.40297253721E+03  0.41222853036E+03  0.77000000000E+02 0.  0.
   -5000001    1    1    2    0    0  0.24282399299E+02  0.32044665351E+02  0.45846853396E+03  0.46662500160E+03  0.77000000000E+02 0.  0.
<mgrwt>
<rscale>  0 0.17407703E+03</rscale>
<asrwt>0</asrwt>
<pdfrwt beam="1">  1        2 0.13386884E+00 0.17407703E+03</pdfrwt>
<pdfrwt beam="2">  1       -2 0.13394199E-02 0.17407703E+03</pdfrwt>
<totfact> 0.42540083E+04</totfact>
</mgrwt>
</event>
<event>
 4    1  0.1195463E-003  0.3107369E+03  0.7818608E-02  0.1079993E+00
         -2   -1    0    0    0  501 -0.00000000000E+00  0.00000000000E+00  0.33355388271E+02  0.33355388369E+02  0.25500000000E-02 0. -1.
          2   -1    0    0  501    0  0.00000000000E+00 -0.00000000000E+00 -0.72370182113E+03  0.72370182114E+03  0.25500000000E-02 0.  1.
    5000001    1    1    2    0    0  0.55236996238E+02 -0.11954227911E+03 -0.27335840438E+03  0.31304200915E+03  0.77000000000E+02 0.  0.
   -5000001    1    1    2    0    0 -0.55236996238E+02  0.11954227911E+03 -0.41698802848E+03  0.44401520035E+03  0.77000000000E+02 0.  0.
<mgrwt>
<rscale>  0 0.31073690E+03</rscale>
<asrwt>0</asrwt>
<pdfrwt beam="1">  1        2 0.11133873E+00 0.31073690E+03</pdfrwt>
<pdfrwt beam="2">  1       -2 0.51315988E-02 0.31073690E+03</pdfrwt>
<totfact> 0.75842651E+03</totfact>
</mgrwt>
</event>
<event>
 4    1  0.1195463E-003  0.3699530E+03  0.7818608E-02  0.1054711E+00
         -2   -1    0    0    0  501 -0.00000000000E+00  0.00000000000E+00  0.69979286099E+02  0.69979286145E+02  0.25500000000E-02 0. -1.
          2   -1    0    0  501    0  0.00000000000E+00 -0.00000000000E+00 -0.48894915791E+03  0.48894915792E+03  0.25500000000E-02 0.  1.
    5000001    1    1    2    0    0 -0.10677513657E+03 -0.44398687949E+02 -0.39399636564E+03  0.41777303577E+03  0.77000000000E+02 0.  0.
   -5000001    1    1    2    0    0  0.10677513657E+03  0.44398687949E+02 -0.24973506176E+02  0.14115540829E+03  0.77000000000E+02 0.  0.
<mgrwt>
<rscale>  0 0.36995304E+03</rscale>
<asrwt>0</asrwt>
<pdfrwt beam="1">  1        2 0.75222945E-01 0.36995304E+03</pdfrwt>
<pdfrwt beam="2">  1       -2 0.10766044E-01 0.36995304E+03</pdfrwt>
<totfact> 0.37810794E+03</totfact>
</mgrwt>
</event>
<event>
 4    1  0.1195463E-003  0.1678361E+03  0.7818608E-02  0.1180123E+00
         -2   -1    0    0    0  501 -0.00000000000E+00  0.00000000000E+00  0.52310525976E+02  0.52310526038E+02  0.25500000000E-02 0. -1.
          2   -1    0    0  501    0  0.00000000000E+00 -0.00000000000E+00 -0.13462370531E+03  0.13462370534E+03  0.25500000000E-02 0.  1.
    5000001    1    1    2    0    0 -0.23757610906E+02  0.22883310455E+02 -0.46744097122E+02  0.95927475673E+02  0.77000000000E+02 0.  0.
   -5000001    1    1    2    0    0  0.23757610906E+02 -0.22883310455E+02 -0.35569082214E+02  0.91006755699E+02  0.77000000000E+02 0.  0.
<mgrwt>
<rscale>  0 0.16783607E+03</rscale>
<asrwt>0</asrwt>
<pdfrwt beam="1">  1        2 0.20711339E-01 0.16783607E+03</pdfrwt>
<pdfrwt beam="2">  1       -2 0.80477733E-02 0.16783607E+03</pdfrwt>
<totfact> 0.23608258E+04</totfact>
</mgrwt>
</event>
<event>
 4    1  0.1195463E-003  0.2917875E+03  0.7818608E-02  0.1089420E+00
          2   -1    0    0  501    0  0.00000000000E+00  0.00000000000E+00  0.82452353753E+03  0.82452353753E+03  0.25500000000E-02 0.  1.
         -2   -1    0    0    0  501 -0.00000000000E+00 -0.00000000000E+00 -0.25814890667E+02  0.25814890793E+02  0.25500000000E-02 0. -1.
    5000001    1    1    2    0    0 -0.11884661125E+03 -0.18588271204E+02  0.48609610144E+03  0.50664431376E+03  0.77000000000E+02 0.  0.
   -5000001    1    1    2    0    0  0.11884661125E+03  0.18588271204E+02  0.31261254542E+03  0.34369411457E+03  0.77000000000E+02 0.  0.
<mgrwt>
<rscale>  0 0.29178749E+03</rscale>
<asrwt>0</asrwt>
<pdfrwt beam="1">  1        2 0.12684978E+00 0.29178749E+03</pdfrwt>
<pdfrwt beam="2">  1       -2 0.39715215E-02 0.29178749E+03</pdfrwt>
<totfact> 0.94723897E+03</totfact>
</mgrwt>
</event>
<event>
 4    1  0.1195463E-003  0.1729198E+03  0.7818608E-02  0.1174837E+00
          2   -1    0    0  501    0  0.00000000000E+00  0.00000000000E+00  0.39623432753E+02  0.39623432835E+02  0.25500000000E-02 0.  1.
         -2   -1    0    0    0  501 -0.00000000000E+00 -0.00000000000E+00 -0.18865899002E+03  0.18865899004E+03  0.25500000000E-02 0. -1.
    5000001    1    1    2    0    0 -0.20420983583E+02  0.28364667472E+02 -0.50727501363E+02  0.98609585365E+02  0.77000000000E+02 0.  0.
   -5000001    1    1    2    0    0  0.20420983583E+02 -0.28364667472E+02 -0.98308055902E+02  0.12967283751E+03  0.77000000000E+02 0.  0.
<mgrwt>
<rscale>  0 0.17291983E+03</rscale>
<asrwt>0</asrwt>
<pdfrwt beam="1">  1        2 0.60959129E-02 0.17291983E+03</pdfrwt>
<pdfrwt beam="2">  1       -2 0.29024459E-01 0.17291983E+03</pdfrwt>
<totfact> 0.12543881E+04</totfact>
</mgrwt>
</event>
<event>
 4    1  0.1195463E-003  0.1703194E+03  0.7818608E-02  0.1177515E+00
         -2   -1    0    0    0  501 -0.00000000000E+00  0.00000000000E+00  0.91662608082E+02  0.91662608117E+02  0.25500000000E-02 0. -1.
          2   -1    0    0  501    0  0.00000000000E+00 -0.00000000000E+00 -0.79118114671E+02  0.79118114712E+02  0.25500000000E-02 0.  1.
    5000001    1    1    2    0    0 -0.87452721757E+01 -0.30965214906E+02  0.23284299026E+02  0.86639961339E+02  0.77000000000E+02 0.  0.
   -5000001    1    1    2    0    0  0.87452721757E+01  0.30965214906E+02 -0.10739805615E+02  0.84140761491E+02  0.77000000000E+02 0.  0.
<mgrwt>
<rscale>  0 0.17031938E+03</rscale>
<asrwt>0</asrwt>
<pdfrwt beam="1">  1        2 0.12172018E-01 0.17031938E+03</pdfrwt>
<pdfrwt beam="2">  1       -2 0.14101940E-01 0.17031938E+03</pdfrwt>
<totfact> 0.18054328E+04</totfact>
</mgrwt>
</event>
<event>
 4    1  0.1195463E-003  0.2712389E+03  0.7818608E-02  0.1100573E+00
         -2   -1    0    0    0  501 -0.00000000000E+00  0.00000000000E+00  0.18850030687E+02  0.18850030859E+02  0.25500000000E-02 0. -1.
          2   -1    0    0  501    0  0.00000000000E+00 -0.00000000000E+00 -0.97573489451E+03  0.97573489451E+03  0.25500000000E-02 0.  1.
    5000001    1    1    2    0    0 -0.63517379979E+02  0.90454568472E+02 -0.42079672616E+03  0.44183183596E+03  0.77000000000E+02 0.  0.
   -5000001    1    1    2    0    0  0.63517379979E+02 -0.90454568472E+02 -0.53608813766E+03  0.55275308941E+03  0.77000000000E+02 0.  0.
<mgrwt>
<rscale>  0 0.27123888E+03</rscale>
<asrwt>0</asrwt>
<pdfrwt beam="1">  1        2 0.15011302E+00 0.27123888E+03</pdfrwt>
<pdfrwt beam="2">  1       -2 0.29000055E-02 0.27123888E+03</pdfrwt>
<totfact> 0.12072755E+04</totfact>
</mgrwt>
</event>
<event>
 4    1  0.1195463E-003  0.2957416E+03  0.7818608E-02  0.1087389E+00
         -2   -1    0    0    0  501 -0.00000000000E+00  0.00000000000E+00  0.20179460755E+03  0.20179460757E+03  0.25500000000E-02 0. -1.
          2   -1    0    0  501    0  0.00000000000E+00 -0.00000000000E+00 -0.10835658774E+03  0.10835658777E+03  0.25500000000E-02 0.  1.
    5000001    1    1    2    0    0 -0.66190289084E+02  0.10677583045E+03  0.33681778734E+02  0.15114792277E+03  0.77000000000E+02 0.  0.
   -5000001    1    1    2    0    0  0.66190289084E+02 -0.10677583045E+03  0.59756241080E+02  0.15900327256E+03  0.77000000000E+02 0.  0.
<mgrwt>
<rscale>  0 0.29574161E+03</rscale>
<asrwt>0</asrwt>
<pdfrwt beam="1">  1        2 0.16670244E-01 0.29574161E+03</pdfrwt>
<pdfrwt beam="2">  1       -2 0.31045324E-01 0.29574161E+03</pdfrwt>
<totfact> 0.32944694E+03</totfact>
</mgrwt>
</event>
<event>
 4    1  0.1195463E-003  0.3672594E+03  0.7818608E-02  0.1055746E+00
         -2   -1    0    0    0  501 -0.00000000000E+00  0.00000000000E+00  0.23315821635E+02  0.23315821775E+02  0.25500000000E-02 0. -1.
          2   -1    0    0  501    0  0.00000000000E+00 -0.00000000000E+00 -0.14462223443E+04  0.14462223443E+04  0.25500000000E-02 0.  1.
    5000001    1    1    2    0    0 -0.84983618153E+02 -0.13642205278E+03 -0.53441066304E+03  0.56334443159E+03  0.77000000000E+02 0.  0.
   -5000001    1    1    2    0    0  0.84983618153E+02  0.13642205278E+03 -0.88849585962E+03  0.90619373447E+03  0.77000000000E+02 0.  0.
<mgrwt>
<rscale>  0 0.36725938E+03</rscale>
<asrwt>0</asrwt>
<pdfrwt beam="1">  1        2 0.22249568E+00 0.36725938E+03</pdfrwt>
<pdfrwt beam="2">  1       -2 0.35870506E-02 0.36725938E+03</pdfrwt>
<totfact> 0.47380510E+03</totfact>
</mgrwt>
</event>
<event>
 4    1  0.1195463E-003  0.3611001E+03  0.7818608E-02  0.1058149E+00
         -2   -1    0    0    0  501 -0.00000000000E+00  0.00000000000E+00  0.44316440475E+02  0.44316440549E+02  0.25500000000E-02 0. -1.
          2   -1    0    0  501    0  0.00000000000E+00 -0.00000000000E+00 -0.73558085143E+03  0.73558085143E+03  0.25500000000E-02 0.  1.
    5000001    1    1    2    0    0 -0.61842157114E+02 -0.12870560074E+03 -0.51678367779E+03  0.54164929030E+03  0.77000000000E+02 0.  0.
   -5000001    1    1    2    0    0  0.61842157114E+02  0.12870560074E+03 -0.17448073316E+03  0.23824800168E+03  0.77000000000E+02 0.  0.
<mgrwt>
<rscale>  0 0.36110012E+03</rscale>
<asrwt>0</asrwt>
<pdfrwt beam="1">  1        2 0.11316628E+00 0.36110012E+03</pdfrwt>
<pdfrwt beam="2">  1       -2 0.68179145E-02 0.36110012E+03</pdfrwt>
<totfact> 0.48120117E+03</totfact>
</mgrwt>
</event>
<event>
 4    1  0.1195463E-003  0.1940482E+03  0.7818608E-02  0.1154860E+00
         -2   -1    0    0    0  501 -0.00000000000E+00  0.00000000000E+00  0.93205561535E+01  0.93205565023E+01  0.25500000000E-02 0. -1.
          2   -1    0    0  501    0  0.00000000000E+00 -0.00000000000E+00 -0.10099907063E+04  0.10099907063E+04  0.25500000000E-02 0.  1.
    5000001    1    1    2    0    0  0.13049392517E+01 -0.34049997222E+02 -0.24712842364E+03  0.26107961037E+03  0.77000000000E+02 0.  0.
   -5000001    1    1    2    0    0 -0.13049392517E+01  0.34049997222E+02 -0.75354172648E+03  0.75823165241E+03  0.77000000000E+02 0.  0.
<mgrwt>
<rscale>  0 0.19404819E+03</rscale>
<asrwt>0</asrwt>
<pdfrwt beam="1">  1        2 0.15538310E+00 0.19404819E+03</pdfrwt>
<pdfrwt beam="2">  1       -2 0.14339325E-02 0.19404819E+03</pdfrwt>
<totfact> 0.31790462E+04</totfact>
</mgrwt>
</event>
<event>
 4    1  0.1195463E-003  0.5253526E+03  0.7818608E-02  0.1007365E+00
         -2   -1    0    0    0  501 -0.00000000000E+00  0.00000000000E+00  0.47069437127E+02  0.47069437196E+02  0.25500000000E-02 0.  1.
          2   -1    0    0  501    0  0.00000000000E+00 -0.00000000000E+00 -0.14658948601E+04  0.14658948601E+04  0.25500000000E-02 0. -1.
    5000001    1    1    2    0    0  0.12288702750E+02  0.20094245664E+03 -0.27703429903E+03  0.35100695995E+03  0.77000000000E+02 0.  0.
   -5000001    1    1    2    0    0 -0.12288702750E+02 -0.20094245664E+03 -0.11417911239E+04  0.11619573373E+04  0.77000000000E+02 0.  0.
<mgrwt>
<rscale>  0 0.52535263E+03</rscale>
<asrwt>0</asrwt>
<pdfrwt beam="1">  1        2 0.22552225E+00 0.52535263E+03</pdfrwt>
<pdfrwt beam="2">  1       -2 0.72414530E-02 0.52535263E+03</pdfrwt>
<totfact> 0.15592722E+03</totfact>
</mgrwt>
</event>
<event>
 4    1  0.1195463E-003  0.2911122E+03  0.7818608E-02  0.1089770E+00
          2   -1    0    0  501    0  0.00000000000E+00  0.00000000000E+00  0.10428059324E+04  0.10428059324E+04  0.25500000000E-02 0.  1.
         -2   -1    0    0    0  501 -0.00000000000E+00 -0.00000000000E+00 -0.20316889794E+02  0.20316889954E+02  0.25500000000E-02 0. -1.
    5000001    1    1    2    0    0 -0.97297248413E+02 -0.14708500064E+02  0.23858214291E+03  0.26932050319E+03  0.77000000000E+02 0.  0.
   -5000001    1    1    2    0    0  0.97297248413E+02  0.14708500064E+02  0.78390689968E+03  0.79380231915E+03  0.77000000000E+02 0.  0.
<mgrwt>
<rscale>  0 0.29111217E+03</rscale>
<asrwt>0</asrwt>
<pdfrwt beam="1">  1        2 0.16043166E+00 0.29111217E+03</pdfrwt>
<pdfrwt beam="2">  1       -2 0.31256758E-02 0.29111217E+03</pdfrwt>
<totfact> 0.98463212E+03</totfact>
</mgrwt>
</event>
<event>
 4    1  0.1195463E-003  0.2120402E+03  0.7818608E-02  0.1139960E+00
         -2   -1    0    0    0  501 -0.00000000000E+00  0.00000000000E+00  0.43828807793E+03  0.43828807793E+03  0.25500000000E-02 0. -1.
          2   -1    0    0  501    0  0.00000000000E+00 -0.00000000000E+00 -0.25645835395E+02  0.25645835522E+02  0.25500000000E-02 0.  1.
    5000001    1    1    2    0    0  0.17363381581E+02 -0.70754150999E+02  0.21048802468E+03  0.23567317505E+03  0.77000000000E+02 0.  0.
   -5000001    1    1    2    0    0 -0.17363381581E+02  0.70754150999E+02  0.20215421785E+03  0.22826073841E+03  0.77000000000E+02 0.  0.
<mgrwt>
<rscale>  0 0.21204022E+03</rscale>
<asrwt>0</asrwt>
<pdfrwt beam="1">  1        2 0.39455133E-02 0.21204022E+03</pdfrwt>
<pdfrwt beam="2">  1       -2 0.67428932E-01 0.21204022E+03</pdfrwt>
<totfact> 0.43783934E+03</totfact>
</mgrwt>
</event>
<event>
 4    1  0.1195463E-003  0.4716008E+03  0.7818608E-02  0.1021469E+00
         -2   -1    0    0    0  501 -0.00000000000E+00  0.00000000000E+00  0.11812137829E+03  0.11812137832E+03  0.25500000000E-02 0. -1.
          2   -1    0    0  501    0  0.00000000000E+00 -0.00000000000E+00 -0.47071766427E+03  0.47071766427E+03  0.25500000000E-02 0.  1.
    5000001    1    1    2    0    0  0.15670734409E+03 -0.15747698845E+03 -0.15408064273E+03  0.28111570224E+03  0.77000000000E+02 0.  0.
   -5000001    1    1    2    0    0 -0.15670734409E+03  0.15747698845E+03 -0.19851564324E+03  0.30772334035E+03  0.77000000000E+02 0.  0.
<mgrwt>
<rscale>  0 0.47160076E+03</rscale>
<asrwt>0</asrwt>
<pdfrwt beam="1">  1        2 0.72418102E-01 0.47160076E+03</pdfrwt>
<pdfrwt beam="2">  1       -2 0.18172520E-01 0.47160076E+03</pdfrwt>
<totfact> 0.16605139E+03</totfact>
</mgrwt>
</event>
<event>
 4    1  0.1195463E-003  0.2994491E+03  0.7818608E-02  0.1085516E+00
         -2   -1    0    0    0  501 -0.00000000000E+00  0.00000000000E+00  0.55592561625E+02  0.55592561683E+02  0.25500000000E-02 0. -1.
          2   -1    0    0  501    0  0.00000000000E+00 -0.00000000000E+00 -0.40324543109E+03  0.40324543109E+03  0.25500000000E-02 0.  1.
    5000001    1    1    2    0    0 -0.72679535460E+02 -0.10548911301E+03 -0.16027827213E+03  0.21915380982E+03  0.77000000000E+02 0.  0.
   -5000001    1    1    2    0    0  0.72679535460E+02  0.10548911301E+03 -0.18737459733E+03  0.23968418296E+03  0.77000000000E+02 0.  0.
<mgrwt>
<rscale>  0 0.29944914E+03</rscale>
<asrwt>0</asrwt>
<pdfrwt beam="1">  1        2 0.62037757E-01 0.29944914E+03</pdfrwt>
<pdfrwt beam="2">  1       -2 0.85527021E-02 0.29944914E+03</pdfrwt>
<totfact> 0.67181756E+03</totfact>
</mgrwt>
</event>
<event>
 4    1  0.1195463E-003  0.2137773E+03  0.7818608E-02  0.1138609E+00
         -2   -1    0    0    0  501 -0.00000000000E+00  0.00000000000E+00  0.91347135538E+01  0.91347139098E+01  0.25500000000E-02 0. -1.
          2   -1    0    0  501    0  0.00000000000E+00 -0.00000000000E+00 -0.12507434436E+04  0.12507434436E+04  0.25500000000E-02 0.  1.
    5000001    1    1    2    0    0 -0.50139824649E+02  0.53521648601E+02 -0.68471855089E+03  0.69292644835E+03  0.77000000000E+02 0.  0.
   -5000001    1    1    2    0    0  0.50139824649E+02 -0.53521648601E+02 -0.55689017911E+03  0.56695170912E+03  0.77000000000E+02 0.  0.
<mgrwt>
<rscale>  0 0.21377730E+03</rscale>
<asrwt>0</asrwt>
<pdfrwt beam="1">  1        2 0.19242193E+00 0.21377730E+03</pdfrwt>
<pdfrwt beam="2">  1       -2 0.14053416E-02 0.21377730E+03</pdfrwt>
<totfact> 0.23921153E+04</totfact>
</mgrwt>
</event>
<event>
 4    1  0.1195463E-003  0.5230140E+03  0.7818608E-02  0.1007941E+00
          2   -1    0    0  501    0  0.00000000000E+00  0.00000000000E+00  0.13956499334E+04  0.13956499334E+04  0.25500000000E-02 0.  1.
         -2   -1    0    0    0  501 -0.00000000000E+00 -0.00000000000E+00 -0.48999327477E+02  0.48999327543E+02  0.25500000000E-02 0. -1.
    5000001    1    1    2    0    0 -0.51752120320E+02  0.23525833526E+03  0.48943622152E+03  0.55090977592E+03  0.77000000000E+02 0.  0.
   -5000001    1    1    2    0    0  0.51752120320E+02 -0.23525833526E+03  0.85721438439E+03  0.89373948502E+03  0.77000000000E+02 0.  0.
<mgrwt>
<rscale>  0 0.52301399E+03</rscale>
<asrwt>0</asrwt>
<pdfrwt beam="1">  1        2 0.21471538E+00 0.52301399E+03</pdfrwt>
<pdfrwt beam="2">  1       -2 0.75383580E-02 0.52301399E+03</pdfrwt>
<totfact> 0.16008878E+03</totfact>
</mgrwt>
</event>
<event>
 4    1  0.1195463E-003  0.3545609E+03  0.7818608E-02  0.1060758E+00
         -2   -1    0    0    0  501 -0.00000000000E+00  0.00000000000E+00  0.32931613155E+02  0.32931613254E+02  0.25500000000E-02 0. -1.
          2   -1    0    0  501    0  0.00000000000E+00 -0.00000000000E+00 -0.95435233697E+03  0.95435233697E+03  0.25500000000E-02 0.  1.
    5000001    1    1    2    0    0  0.11825445548E+03 -0.10281169821E+03 -0.37511165065E+03  0.41375368516E+03  0.77000000000E+02 0.  0.
   -5000001    1    1    2    0    0 -0.11825445548E+03  0.10281169821E+03 -0.54630907316E+03  0.57353026507E+03  0.77000000000E+02 0.  0.
<mgrwt>
<rscale>  0 0.35456092E+03</rscale>
<asrwt>0</asrwt>
<pdfrwt beam="1">  1        2 0.14682342E+00 0.35456092E+03</pdfrwt>
<pdfrwt beam="2">  1       -2 0.50664028E-02 0.35456092E+03</pdfrwt>
<totfact> 0.54030955E+03</totfact>
</mgrwt>
</event>
<event>
 4    1  0.1195463E-003  0.2496659E+03  0.7818608E-02  0.1113516E+00
         -2   -1    0    0    0  501 -0.00000000000E+00  0.00000000000E+00  0.94530664799E+01  0.94530668239E+01  0.25500000000E-02 0. -1.
          2   -1    0    0  501    0  0.00000000000E+00 -0.00000000000E+00 -0.16484882814E+04  0.16484882814E+04  0.25500000000E-02 0.  1.
    5000001    1    1    2    0    0  0.47907121028E+02  0.72202218652E+02 -0.11271460253E+04  0.11330910885E+04  0.77000000000E+02 0.  0.
   -5000001    1    1    2    0    0 -0.47907121028E+02 -0.72202218652E+02 -0.51188918968E+03  0.52485025973E+03  0.77000000000E+02 0.  0.
<mgrwt>
<rscale>  0 0.24966593E+03</rscale>
<asrwt>0</asrwt>
<pdfrwt beam="1">  1        2 0.25361335E+00 0.24966593E+03</pdfrwt>
<pdfrwt beam="2">  1       -2 0.14543193E-02 0.24966593E+03</pdfrwt>
<totfact> 0.13999238E+04</totfact>
</mgrwt>
</event>
<event>
 4    1  0.1195463E-003  0.1561978E+03  0.7818608E-02  0.1193058E+00
         -2   -1    0    0    0  501 -0.00000000000E+00  0.00000000000E+00  0.45998753618E+01  0.45998760686E+01  0.25500000000E-02 0. -1.
          2   -1    0    0  501    0  0.00000000000E+00 -0.00000000000E+00 -0.13260009063E+04  0.13260009063E+04  0.25500000000E-02 0.  1.
    5000001    1    1    2    0    0  0.20388194515E+01  0.11938998932E+02 -0.61919176955E+03  0.62407863603E+03  0.77000000000E+02 0.  0.
   -5000001    1    1    2    0    0 -0.20388194515E+01 -0.11938998932E+02 -0.70220926142E+03  0.70652214637E+03  0.77000000000E+02 0.  0.
<mgrwt>
<rscale>  0 0.15619782E+03</rscale>
<asrwt>0</asrwt>
<pdfrwt beam="1">  1        2 0.20399983E+00 0.15619782E+03</pdfrwt>
<pdfrwt beam="2">  1       -2 0.70767425E-03 0.15619782E+03</pdfrwt>
<totfact> 0.57155016E+04</totfact>
</mgrwt>
</event>
<event>
 4    1  0.1195463E-003  0.2130295E+03  0.7818608E-02  0.1139189E+00
         -2   -1    0    0    0  501 -0.00000000000E+00  0.00000000000E+00  0.14190067082E+02  0.14190067312E+02  0.25500000000E-02 0. -1.
          2   -1    0    0  501    0  0.00000000000E+00 -0.00000000000E+00 -0.79953020068E+03  0.79953020069E+03  0.25500000000E-02 0.  1.
    5000001    1    1    2    0    0 -0.72273959019E+02 -0.75980046000E+01 -0.34826676124E+03  0.36400548321E+03  0.77000000000E+02 0.  0.
   -5000001    1    1    2    0    0  0.72273959019E+02  0.75980046000E+01 -0.43707337236E+03  0.44971478478E+03  0.77000000000E+02 0.  0.
<mgrwt>
<rscale>  0 0.21302946E+03</rscale>
<asrwt>0</asrwt>
<pdfrwt beam="1">  1        2 0.12300461E+00 0.21302946E+03</pdfrwt>
<pdfrwt beam="2">  1       -2 0.21830879E-02 0.21302946E+03</pdfrwt>
<totfact> 0.23626324E+04</totfact>
</mgrwt>
</event>
<event>
 4    1  0.1195463E-003  0.3406014E+03  0.7818608E-02  0.1066540E+00
          2   -1    0    0  501    0  0.00000000000E+00  0.00000000000E+00  0.14599749929E+03  0.14599749931E+03  0.25500000000E-02 0.  1.
         -2   -1    0    0    0  501 -0.00000000000E+00 -0.00000000000E+00 -0.19864943077E+03  0.19864943079E+03  0.25500000000E-02 0. -1.
    5000001    1    1    2    0    0 -0.77497230659E+02  0.71499240898E+02  0.84313313808E+02  0.15542103170E+03  0.77000000000E+02 0.  0.
   -5000001    1    1    2    0    0  0.77497230659E+02 -0.71499240898E+02 -0.13696524529E+03  0.18922589840E+03  0.77000000000E+02 0.  0.
<mgrwt>
<rscale>  0 0.34060135E+03</rscale>
<asrwt>0</asrwt>
<pdfrwt beam="1">  1        2 0.22461154E-01 0.34060135E+03</pdfrwt>
<pdfrwt beam="2">  1       -2 0.30561451E-01 0.34060135E+03</pdfrwt>
<totfact> 0.24105381E+03</totfact>
</mgrwt>
</event>
<event>
 4    1  0.1195463E-003  0.1957386E+03  0.7818608E-02  0.1153385E+00
         -2   -1    0    0    0  501 -0.00000000000E+00  0.00000000000E+00  0.94473941577E+03  0.94473941577E+03  0.25500000000E-02 0. -1.
          2   -1    0    0  501    0  0.00000000000E+00 -0.00000000000E+00 -0.10138672847E+02  0.10138673167E+02  0.25500000000E-02 0.  1.
    5000001    1    1    2    0    0  0.58214852460E+02 -0.10863886085E+02  0.52551646322E+03  0.53441888644E+03  0.77000000000E+02 0.  0.
   -5000001    1    1    2    0    0 -0.58214852460E+02  0.10863886085E+02  0.40908427970E+03  0.42045920250E+03  0.77000000000E+02 0.  0.
<mgrwt>
<rscale>  0 0.19573864E+03</rscale>
<asrwt>0</asrwt>
<pdfrwt beam="1">  1        2 0.15597952E-02 0.19573864E+03</pdfrwt>
<pdfrwt beam="2">  1       -2 0.14534459E+00 0.19573864E+03</pdfrwt>
<totfact> 0.26094331E+03</totfact>
</mgrwt>
</event>
<event>
 4    1  0.1195463E-003  0.2247693E+03  0.7818608E-02  0.1130376E+00
         -2   -1    0    0    0  501 -0.00000000000E+00  0.00000000000E+00  0.26528694584E+02  0.26528694707E+02  0.25500000000E-02 0. -1.
          2   -1    0    0  501    0  0.00000000000E+00 -0.00000000000E+00 -0.47609998239E+03  0.47609998239E+03  0.25500000000E-02 0.  1.
    5000001    1    1    2    0    0 -0.80665935215E+02 -0.10534966674E+02 -0.24519913421E+03  0.26957298463E+03  0.77000000000E+02 0.  0.
   -5000001    1    1    2    0    0  0.80665935215E+02  0.10534966674E+02 -0.20437215360E+03  0.23305569247E+03  0.77000000000E+02 0.  0.
<mgrwt>
<rscale>  0 0.22476931E+03</rscale>
<asrwt>0</asrwt>
<pdfrwt beam="1">  1        2 0.73246145E-01 0.22476931E+03</pdfrwt>
<pdfrwt beam="2">  1       -2 0.40813380E-02 0.22476931E+03</pdfrwt>
<totfact> 0.17189552E+04</totfact>
</mgrwt>
</event>
<event>
 4    1  0.1195463E-003  0.2525906E+03  0.7818608E-02  0.1111679E+00
          2   -1    0    0  501    0  0.00000000000E+00  0.00000000000E+00  0.43250483551E+03  0.43250483552E+03  0.25500000000E-02 0.  1.
         -2   -1    0    0    0  501 -0.00000000000E+00 -0.00000000000E+00 -0.36879348342E+02  0.36879348430E+02  0.25500000000E-02 0. -1.
    5000001    1    1    2    0    0 -0.27037118394E+02 -0.69442190002E+02  0.32202979102E+03  0.33938976093E+03  0.77000000000E+02 0.  0.
   -5000001    1    1    2    0    0  0.27037118394E+02  0.69442190002E+02  0.73595696155E+02  0.12999442302E+03  0.77000000000E+02 0.  0.
<mgrwt>
<rscale>  0 0.25259055E+03</rscale>
<asrwt>0</asrwt>
<pdfrwt beam="1">  1        2 0.66539204E-01 0.25259055E+03</pdfrwt>
<pdfrwt beam="2">  1       -2 0.56737460E-02 0.25259055E+03</pdfrwt>
<totfact> 0.11675204E+04</totfact>
</mgrwt>
</event>
<event>
 4    1  0.1195463E-003  0.2344107E+03  0.7818608E-02  0.1123573E+00
          2   -1    0    0  501    0  0.00000000000E+00  0.00000000000E+00  0.42149205607E+03  0.42149205608E+03  0.25500000000E-02 0.  1.
         -2   -1    0    0    0  501 -0.00000000000E+00 -0.00000000000E+00 -0.32591596915E+02  0.32591597015E+02  0.25500000000E-02 0. -1.
    5000001    1    1    2    0    0 -0.61687053293E+02  0.62874918328E+02  0.18081426173E+03  0.21536328643E+03  0.77000000000E+02 0.  0.
   -5000001    1    1    2    0    0  0.61687053293E+02 -0.62874918328E+02  0.20808619743E+03  0.23872036666E+03  0.77000000000E+02 0.  0.
<mgrwt>
<rscale>  0 0.23441074E+03</rscale>
<asrwt>0</asrwt>
<pdfrwt beam="1">  1        2 0.64844931E-01 0.23441074E+03</pdfrwt>
<pdfrwt beam="2">  1       -2 0.50140919E-02 0.23441074E+03</pdfrwt>
<totfact> 0.14438601E+04</totfact>
</mgrwt>
</event>
<event>
 4    1  0.1195463E-003  0.2951043E+03  0.7818608E-02  0.1087714E+00
         -2   -1    0    0    0  501 -0.00000000000E+00  0.00000000000E+00  0.23887177459E+03  0.23887177461E+03  0.25500000000E-02 0. -1.
          2   -1    0    0  501    0  0.00000000000E+00 -0.00000000000E+00 -0.91143636690E+02  0.91143636725E+02  0.25500000000E-02 0.  1.
    5000001    1    1    2    0    0 -0.56865502174E+01  0.11447865812E+03  0.13202584074E+03  0.19104324810E+03  0.77000000000E+02 0.  0.
   -5000001    1    1    2    0    0  0.56865502174E+01 -0.11447865812E+03  0.15702297161E+02  0.13897216324E+03  0.77000000000E+02 0.  0.
<mgrwt>
<rscale>  0 0.29510434E+03</rscale>
<asrwt>0</asrwt>
<pdfrwt beam="1">  1        2 0.14022098E-01 0.29510434E+03</pdfrwt>
<pdfrwt beam="2">  1       -2 0.36749504E-01 0.29510434E+03</pdfrwt>
<totfact> 0.29570264E+03</totfact>
</mgrwt>
</event>
<event>
 4    1  0.1195463E-003  0.1863397E+03  0.7818608E-02  0.1161805E+00
          2   -1    0    0  501    0  0.00000000000E+00  0.00000000000E+00  0.10631301714E+03  0.10631301717E+03  0.25500000000E-02 0.  1.
         -2   -1    0    0    0  501 -0.00000000000E+00 -0.00000000000E+00 -0.81651531562E+02  0.81651531602E+02  0.25500000000E-02 0. -1.
    5000001    1    1    2    0    0  0.41144499598E+02 -0.32132412648E+02  0.17499769204E+02  0.94660465412E+02  0.77000000000E+02 0.  0.
   -5000001    1    1    2    0    0 -0.41144499598E+02  0.32132412648E+02  0.71617163712E+01  0.93304083357E+02  0.77000000000E+02 0.  0.
<mgrwt>
<rscale>  0 0.18633970E+03</rscale>
<asrwt>0</asrwt>
<pdfrwt beam="1">  1        2 0.16355849E-01 0.18633970E+03</pdfrwt>
<pdfrwt beam="2">  1       -2 0.12561774E-01 0.18633970E+03</pdfrwt>
<totfact> 0.15454815E+04</totfact>
</mgrwt>
</event>
<event>
 4    1  0.1195463E-003  0.4450415E+03  0.7818608E-02  0.1029211E+00
          2   -1    0    0  501    0  0.00000000000E+00  0.00000000000E+00  0.21003971993E+03  0.21003971995E+03  0.25500000000E-02 0.  1.
         -2   -1    0    0    0  501 -0.00000000000E+00 -0.00000000000E+00 -0.23574339027E+03  0.23574339028E+03  0.25500000000E-02 0. -1.
    5000001    1    1    2    0    0  0.14767850941E+03 -0.13882590649E+03  0.37280558170E+02  0.22000094198E+03  0.77000000000E+02 0.  0.
   -5000001    1    1    2    0    0 -0.14767850941E+03  0.13882590649E+03 -0.62984228507E+02  0.22578216824E+03  0.77000000000E+02 0.  0.
<mgrwt>
<rscale>  0 0.44504146E+03</rscale>
<asrwt>0</asrwt>
<pdfrwt beam="1">  1        2 0.32313803E-01 0.44504146E+03</pdfrwt>
<pdfrwt beam="2">  1       -2 0.36268214E-01 0.44504146E+03</pdfrwt>
<totfact> 0.11686531E+03</totfact>
</mgrwt>
</event>
<event>
 4    1  0.1195463E-003  0.2518063E+03  0.7818608E-02  0.1112169E+00
          2   -1    0    0  501    0  0.00000000000E+00  0.00000000000E+00  0.22683056620E+03  0.22683056621E+03  0.25500000000E-02 0.  1.
         -2   -1    0    0    0  501 -0.00000000000E+00 -0.00000000000E+00 -0.69883013761E+02  0.69883013808E+02  0.25500000000E-02 0. -1.
    5000001    1    1    2    0    0  0.41866419402E+02 -0.26114545042E+02 -0.23490729622E+02  0.94422353892E+02  0.77000000000E+02 0.  0.
   -5000001    1    1    2    0    0 -0.41866419402E+02  0.26114545042E+02  0.18043828206E+03  0.20229122613E+03  0.77000000000E+02 0.  0.
<mgrwt>
<rscale>  0 0.25180630E+03</rscale>
<asrwt>0</asrwt>
<pdfrwt beam="1">  1        2 0.34897010E-01 0.25180630E+03</pdfrwt>
<pdfrwt beam="2">  1       -2 0.10751233E-01 0.25180630E+03</pdfrwt>
<totfact> 0.86450621E+03</totfact>
</mgrwt>
</event>
<event>
 4    1  0.1195463E-003  0.4473380E+03  0.7818608E-02  0.1028519E+00
          2   -1    0    0  501    0  0.00000000000E+00  0.00000000000E+00  0.26612427067E+03  0.26612427068E+03  0.25500000000E-02 0.  1.
         -2   -1    0    0    0  501 -0.00000000000E+00 -0.00000000000E+00 -0.18798671536E+03  0.18798671537E+03  0.25500000000E-02 0. -1.
    5000001    1    1    2    0    0 -0.18259776526E+03  0.21207456169E+02 -0.63992379465E+02  0.20932205976E+03  0.77000000000E+02 0.  0.
   -5000001    1    1    2    0    0  0.18259776526E+03 -0.21207456169E+02  0.14212993478E+03  0.24478892629E+03  0.77000000000E+02 0.  0.
<mgrwt>
<rscale>  0 0.44733803E+03</rscale>
<asrwt>0</asrwt>
<pdfrwt beam="1">  1        2 0.40942196E-01 0.44733803E+03</pdfrwt>
<pdfrwt beam="2">  1       -2 0.28921033E-01 0.44733803E+03</pdfrwt>
<totfact> 0.13719551E+03</totfact>
</mgrwt>
</event>
<event>
 4    1  0.1195463E-003  0.2713706E+03  0.7818608E-02  0.1100498E+00
         -2   -1    0    0    0  501 -0.00000000000E+00  0.00000000000E+00  0.70266784537E+02  0.70266784583E+02  0.25500000000E-02 0. -1.
          2   -1    0    0  501    0  0.00000000000E+00 -0.00000000000E+00 -0.26200862543E+03  0.26200862544E+03  0.25500000000E-02 0.  1.
    5000001    1    1    2    0    0 -0.92663151865E+02 -0.42854358234E+02 -0.40316853037E+02  0.13407984327E+03  0.77000000000E+02 0.  0.
   -5000001    1    1    2    0    0  0.92663151865E+02  0.42854358234E+02 -0.15142498785E+03  0.19819556675E+03  0.77000000000E+02 0.  0.
<mgrwt>
<rscale>  0 0.27137062E+03</rscale>
<asrwt>0</asrwt>
<pdfrwt beam="1">  1        2 0.40309019E-01 0.27137062E+03</pdfrwt>
<pdfrwt beam="2">  1       -2 0.10810275E-01 0.27137062E+03</pdfrwt>
<totfact> 0.73561850E+03</totfact>
</mgrwt>
</event>
<event>
 4    1  0.1195463E-003  0.2125887E+03  0.7818608E-02  0.1139532E+00
         -2   -1    0    0    0  501 -0.00000000000E+00  0.00000000000E+00  0.42167605302E+02  0.42167605379E+02  0.25500000000E-02 0. -1.
          2   -1    0    0  501    0  0.00000000000E+00 -0.00000000000E+00 -0.26794244708E+03  0.26794244709E+03  0.25500000000E-02 0.  1.
    5000001    1    1    2    0    0  0.65872383880E+02 -0.20169431280E+02 -0.14931236391E+03  0.18157411416E+03  0.77000000000E+02 0.  0.
   -5000001    1    1    2    0    0 -0.65872383880E+02  0.20169431280E+02 -0.76462477869E+02  0.12853593831E+03  0.77000000000E+02 0.  0.
<mgrwt>
<rscale>  0 0.21258872E+03</rscale>
<asrwt>0</asrwt>
<pdfrwt beam="1">  1        2 0.41221914E-01 0.21258872E+03</pdfrwt>
<pdfrwt beam="2">  1       -2 0.64873241E-02 0.21258872E+03</pdfrwt>
<totfact> 0.15770671E+04</totfact>
</mgrwt>
</event>
<event>
 4    1  0.1195463E-003  0.3625275E+03  0.7818608E-02  0.1057588E+00
          2   -1    0    0  501    0  0.00000000000E+00  0.00000000000E+00  0.14640872940E+03  0.14640872942E+03  0.25500000000E-02 0.  1.
         -2   -1    0    0    0  501 -0.00000000000E+00 -0.00000000000E+00 -0.22441656167E+03  0.22441656168E+03  0.25500000000E-02 0. -1.
    5000001    1    1    2    0    0  0.59487028192E+02 -0.21896680209E+02 -0.19382674907E+03  0.21798160423E+03  0.77000000000E+02 0.  0.
   -5000001    1    1    2    0    0 -0.59487028192E+02  0.21896680209E+02  0.11581891681E+03  0.15284368688E+03  0.77000000000E+02 0.  0.
<mgrwt>
<rscale>  0 0.36252748E+03</rscale>
<asrwt>0</asrwt>
<pdfrwt beam="1">  1        2 0.22524420E-01 0.36252748E+03</pdfrwt>
<pdfrwt beam="2">  1       -2 0.34525625E-01 0.36252748E+03</pdfrwt>
<totfact> 0.19191988E+03</totfact>
</mgrwt>
</event>
<event>
 4    1  0.1195463E-003  0.1859761E+03  0.7818608E-02  0.1162141E+00
         -2   -1    0    0    0  501 -0.00000000000E+00  0.00000000000E+00  0.58135514775E+02  0.58135514831E+02  0.25500000000E-02 0. -1.
          2   -1    0    0  501    0  0.00000000000E+00 -0.00000000000E+00 -0.14873491519E+03  0.14873491521E+03  0.25500000000E-02 0.  1.
    5000001    1    1    2    0    0  0.43308789145E+02 -0.21479650548E+02 -0.23594510686E+02  0.93929375274E+02  0.77000000000E+02 0.  0.
   -5000001    1    1    2    0    0 -0.43308789145E+02  0.21479650548E+02 -0.67004889731E+02  0.11294105477E+03  0.77000000000E+02 0.  0.
<mgrwt>
<rscale>  0 0.18597614E+03</rscale>
<asrwt>0</asrwt>
<pdfrwt beam="1">  1        2 0.22882295E-01 0.18597614E+03</pdfrwt>
<pdfrwt beam="2">  1       -2 0.89439254E-02 0.18597614E+03</pdfrwt>
<totfact> 0.18058044E+04</totfact>
</mgrwt>
</event>
<event>
 4    1  0.1195463E-003  0.2585033E+03  0.7818608E-02  0.1108046E+00
          2   -1    0    0  501    0  0.00000000000E+00  0.00000000000E+00  0.56948624785E+03  0.56948624785E+03  0.25500000000E-02 0.  1.
         -2   -1    0    0    0  501 -0.00000000000E+00 -0.00000000000E+00 -0.29335201732E+02  0.29335201843E+02  0.25500000000E-02 0. -1.
    5000001    1    1    2    0    0  0.55261355259E+02 -0.69302270174E+02  0.39525994184E+03  0.41233001790E+03  0.77000000000E+02 0.  0.
   -5000001    1    1    2    0    0 -0.55261355259E+02  0.69302270174E+02  0.14489110428E+03  0.18649143180E+03  0.77000000000E+02 0.  0.
<mgrwt>
<rscale>  0 0.25850334E+03</rscale>
<asrwt>0</asrwt>
<pdfrwt beam="1">  1        2 0.87613272E-01 0.25850334E+03</pdfrwt>
<pdfrwt beam="2">  1       -2 0.45131078E-02 0.25850334E+03</pdfrwt>
<totfact> 0.12168635E+04</totfact>
</mgrwt>
</event>
<event>
 4    1  0.1195463E-003  0.2152039E+03  0.7818608E-02  0.1137510E+00
          2   -1    0    0  501    0  0.00000000000E+00  0.00000000000E+00  0.22135491660E+04  0.22135491660E+04  0.25500000000E-02 0.  1.
         -2   -1    0    0    0  501 -0.00000000000E+00 -0.00000000000E+00 -0.52305941284E+01  0.52305947500E+01  0.25500000000E-02 0. -1.
    5000001    1    1    2    0    0  0.27022568793E+02 -0.65661638433E+02  0.13582800087E+04  0.13623124649E+04  0.77000000000E+02 0.  0.
   -5000001    1    1    2    0    0 -0.27022568793E+02  0.65661638433E+02  0.85003856321E+03  0.85646729589E+03  0.77000000000E+02 0.  0.
<mgrwt>
<rscale>  0 0.21520388E+03</rscale>
<asrwt>0</asrwt>
<pdfrwt beam="1">  1        2 0.34054736E+00 0.21520388E+03</pdfrwt>
<pdfrwt beam="2">  1       -2 0.80470367E-03 0.21520388E+03</pdfrwt>
<totfact> 0.16628547E+04</totfact>
</mgrwt>
</event>
<event>
 4    1  0.1195463E-003  0.2826737E+03  0.7818608E-02  0.1094238E+00
          2   -1    0    0  501    0  0.00000000000E+00  0.00000000000E+00  0.56425476379E+03  0.56425476380E+03  0.25500000000E-02 0.  1.
         -2   -1    0    0    0  501 -0.00000000000E+00 -0.00000000000E+00 -0.35402631123E+02  0.35402631215E+02  0.25500000000E-02 0. -1.
    5000001    1    1    2    0    0  0.15804179621E+02 -0.91603419247E+02  0.10844867712E+03  0.16226852461E+03  0.77000000000E+02 0.  0.
   -5000001    1    1    2    0    0 -0.15804179621E+02  0.91603419247E+02  0.42040345555E+03  0.43738887040E+03  0.77000000000E+02 0.  0.
<mgrwt>
<rscale>  0 0.28267369E+03</rscale>
<asrwt>0</asrwt>
<pdfrwt beam="1">  1        2 0.86808423E-01 0.28267369E+03</pdfrwt>
<pdfrwt beam="2">  1       -2 0.54465588E-02 0.28267369E+03</pdfrwt>
<totfact> 0.92763213E+03</totfact>
</mgrwt>
</event>
<event>
 4    1  0.1195463E-003  0.1777829E+03  0.7818608E-02  0.1169966E+00
         -2   -1    0    0    0  501 -0.00000000000E+00  0.00000000000E+00  0.12459131978E+03  0.12459131981E+03  0.25500000000E-02 0. -1.
          2   -1    0    0  501    0  0.00000000000E+00 -0.00000000000E+00 -0.63420886295E+02  0.63420886346E+02  0.25500000000E-02 0.  1.
    5000001    1    1    2    0    0  0.24273658332E+02  0.88798267769E+00  0.69909324205E+02  0.10680033995E+03  0.77000000000E+02 0.  0.
   -5000001    1    1    2    0    0 -0.24273658332E+02 -0.88798267769E+00 -0.87388907166E+01  0.81211866208E+02  0.77000000000E+02 0.  0.
<mgrwt>
<rscale>  0 0.17778292E+03</rscale>
<asrwt>0</asrwt>
<pdfrwt beam="1">  1        2 0.97570595E-02 0.17778292E+03</pdfrwt>
<pdfrwt beam="2">  1       -2 0.19167895E-01 0.17778292E+03</pdfrwt>
<totfact> 0.14268232E+04</totfact>
</mgrwt>
</event>
<event>
 4    1  0.1195463E-003  0.2697582E+03  0.7818608E-02  0.1101418E+00
          2   -1    0    0  501    0  0.00000000000E+00  0.00000000000E+00  0.31912789197E+04  0.31912789197E+04  0.25500000000E-02 0.  1.
         -2   -1    0    0    0  501 -0.00000000000E+00 -0.00000000000E+00 -0.57006521939E+01  0.57006527643E+01  0.25500000000E-02 0. -1.
    5000001    1    1    2    0    0  0.56098055985E+02  0.91463425725E+02  0.19175275610E+04  0.19220701073E+04  0.77000000000E+02 0.  0.
   -5000001    1    1    2    0    0 -0.56098055985E+02 -0.91463425725E+02  0.12680507065E+04  0.12749094651E+04  0.77000000000E+02 0.  0.
<mgrwt>
<rscale>  0 0.26975820E+03</rscale>
<asrwt>0</asrwt>
<pdfrwt beam="1">  1        2 0.49096414E+00 0.26975820E+03</pdfrwt>
<pdfrwt beam="2">  1       -2 0.87702675E-03 0.26975820E+03</pdfrwt>
<totfact> 0.41208647E+03</totfact>
</mgrwt>
</event>
<event>
 4    1  0.1195463E-003  0.2086371E+03  0.7818608E-02  0.1142650E+00
          2   -1    0    0  501    0  0.00000000000E+00  0.00000000000E+00  0.60072410903E+03  0.60072410904E+03  0.25500000000E-02 0.  1.
         -2   -1    0    0    0  501 -0.00000000000E+00 -0.00000000000E+00 -0.18115402970E+02  0.18115403149E+02  0.25500000000E-02 0. -1.
    5000001    1    1    2    0    0 -0.40972085348E+02 -0.54795562390E+02  0.24237765187E+03  0.26335753561E+03  0.77000000000E+02 0.  0.
   -5000001    1    1    2    0    0  0.40972085348E+02  0.54795562390E+02  0.34023105419E+03  0.35548197658E+03  0.77000000000E+02 0.  0.
<mgrwt>
<rscale>  0 0.20863710E+03</rscale>
<asrwt>0</asrwt>
<pdfrwt beam="1">  1        2 0.92419078E-01 0.20863710E+03</pdfrwt>
<pdfrwt beam="2">  1       -2 0.27869856E-02 0.20863710E+03</pdfrwt>
<totfact> 0.23228132E+04</totfact>
</mgrwt>
</event>
<event>
 4    1  0.1195463E-003  0.6508047E+03  0.7818608E-02  0.9805270E-01
          2   -1    0    0  501    0  0.00000000000E+00  0.00000000000E+00  0.76756265667E+03  0.76756265668E+03  0.25500000000E-02 0.  1.
         -2   -1    0    0    0  501 -0.00000000000E+00 -0.00000000000E+00 -0.13795183027E+03  0.13795183029E+03  0.25500000000E-02 0. -1.
    5000001    1    1    2    0    0 -0.11466673805E+03  0.25781740260E+03  0.11637244999E+03  0.31478535706E+03  0.77000000000E+02 0.  0.
   -5000001    1    1    2    0    0  0.11466673805E+03 -0.25781740260E+03  0.51323837641E+03  0.59072912991E+03  0.77000000000E+02 0.  0.
<mgrwt>
<rscale>  0 0.65080465E+03</rscale>
<asrwt>0</asrwt>
<pdfrwt beam="1">  1        2 0.11808656E+00 0.65080465E+03</pdfrwt>
<pdfrwt beam="2">  1       -2 0.21223359E-01 0.65080465E+03</pdfrwt>
<totfact> 0.70329935E+02</totfact>
</mgrwt>
</event>
<event>
 4    1  0.1195463E-003  0.3304746E+03  0.7818608E-02  0.1070927E+00
         -2   -1    0    0    0  501 -0.00000000000E+00  0.00000000000E+00  0.31236004337E+02  0.31236004441E+02  0.25500000000E-02 0. -1.
          2   -1    0    0  501    0  0.00000000000E+00 -0.00000000000E+00 -0.87409937209E+03  0.87409937209E+03  0.25500000000E-02 0.  1.
    5000001    1    1    2    0    0  0.10223151685E+03 -0.46117291411E+02 -0.16449803747E+03  0.21346356114E+03  0.77000000000E+02 0.  0.
   -5000001    1    1    2    0    0 -0.10223151685E+03  0.46117291411E+02 -0.67836533028E+03  0.69187181539E+03  0.77000000000E+02 0.  0.
<mgrwt>
<rscale>  0 0.33047464E+03</rscale>
<asrwt>0</asrwt>
<pdfrwt beam="1">  1        2 0.13447681E+00 0.33047464E+03</pdfrwt>
<pdfrwt beam="2">  1       -2 0.48055398E-02 0.33047464E+03</pdfrwt>
<totfact> 0.65935256E+03</totfact>
</mgrwt>
</event>
<event>
 4    1  0.1195463E-003  0.3891766E+03  0.7818608E-02  0.1047593E+00
          2   -1    0    0  501    0  0.00000000000E+00  0.00000000000E+00  0.16617259939E+04  0.16617259939E+04  0.25500000000E-02 0.  1.
         -2   -1    0    0    0  501 -0.00000000000E+00 -0.00000000000E+00 -0.22786315937E+02  0.22786316080E+02  0.25500000000E-02 0. -1.
    5000001    1    1    2    0    0 -0.27688157042E+02 -0.12716121730E+03  0.13495708649E+04  0.13580158794E+04  0.77000000000E+02 0.  0.
   -5000001    1    1    2    0    0  0.27688157042E+02  0.12716121730E+03  0.28936881299E+03  0.32649643055E+03  0.77000000000E+02 0.  0.
<mgrwt>
<rscale>  0 0.38917664E+03</rscale>
<asrwt>0</asrwt>
<pdfrwt beam="1">  1        2 0.25565017E+00 0.38917664E+03</pdfrwt>
<pdfrwt beam="2">  1       -2 0.35055869E-02 0.38917664E+03</pdfrwt>
<totfact> 0.37525507E+03</totfact>
</mgrwt>
</event>
<event>
 4    1  0.1195463E-003  0.2405679E+03  0.7818608E-02  0.1119415E+00
          2   -1    0    0  501    0  0.00000000000E+00  0.00000000000E+00  0.13054571513E+03  0.13054571516E+03  0.25500000000E-02 0.  1.
         -2   -1    0    0    0  501 -0.00000000000E+00 -0.00000000000E+00 -0.11082883242E+03  0.11082883245E+03  0.25500000000E-02 0. -1.
    5000001    1    1    2    0    0 -0.83340304525E+02  0.24615100465E+02  0.41391829532E+02  0.12326310511E+03  0.77000000000E+02 0.  0.
   -5000001    1    1    2    0    0  0.83340304525E+02 -0.24615100465E+02 -0.21674946820E+02  0.11811144250E+03  0.77000000000E+02 0.  0.
<mgrwt>
<rscale>  0 0.24056790E+03</rscale>
<asrwt>0</asrwt>
<pdfrwt beam="1">  1        2 0.20083956E-01 0.24056790E+03</pdfrwt>
<pdfrwt beam="2">  1       -2 0.17050590E-01 0.24056790E+03</pdfrwt>
<totfact> 0.75023924E+03</totfact>
</mgrwt>
</event>
<event>
 4    1  0.1195463E-003  0.1873748E+03  0.7818608E-02  0.1160851E+00
          2   -1    0    0  501    0  0.00000000000E+00  0.00000000000E+00  0.72594945004E+02  0.72594945048E+02  0.25500000000E-02 0.  1.
         -2   -1    0    0    0  501 -0.00000000000E+00 -0.00000000000E+00 -0.12090821576E+03  0.12090821579E+03  0.25500000000E-02 0. -1.
    5000001    1    1    2    0    0  0.78751106265E+01  0.52728548071E+02 -0.21625317531E+02  0.96119568805E+02  0.77000000000E+02 0.  0.
   -5000001    1    1    2    0    0 -0.78751106265E+01 -0.52728548071E+02 -0.26687953224E+02  0.97383592028E+02  0.77000000000E+02 0.  0.
<mgrwt>
<rscale>  0 0.18737476E+03</rscale>
<asrwt>0</asrwt>
<pdfrwt beam="1">  1        2 0.11168453E-01 0.18737476E+03</pdfrwt>
<pdfrwt beam="2">  1       -2 0.18601264E-01 0.18737476E+03</pdfrwt>
<totfact> 0.12766796E+04</totfact>
</mgrwt>
</event>
<event>
 4    1  0.1195463E-003  0.3301096E+03  0.7818608E-02  0.1071088E+00
         -2   -1    0    0    0  501 -0.00000000000E+00  0.00000000000E+00  0.14607696951E+02  0.14607697174E+02  0.25500000000E-02 0. -1.
          2   -1    0    0  501    0  0.00000000000E+00 -0.00000000000E+00 -0.18649818586E+04  0.18649818586E+04  0.25500000000E-02 0.  1.
    5000001    1    1    2    0    0  0.13833096022E+03  0.45303367589E+02 -0.86121301701E+03  0.87681509472E+03  0.77000000000E+02 0.  0.
   -5000001    1    1    2    0    0 -0.13833096022E+03 -0.45303367589E+02 -0.98916114460E+03  0.10027744610E+04  0.77000000000E+02 0.  0.
<mgrwt>
<rscale>  0 0.33010962E+03</rscale>
<asrwt>0</asrwt>
<pdfrwt beam="1">  1        2 0.28692010E+00 0.33010962E+03</pdfrwt>
<pdfrwt beam="2">  1       -2 0.22473395E-02 0.33010962E+03</pdfrwt>
<totfact> 0.56970695E+03</totfact>
</mgrwt>
</event>
<event>
 4    1  0.1195463E-003  0.1730266E+03  0.7818608E-02  0.1174728E+00
          2   -1    0    0  501    0  0.00000000000E+00  0.00000000000E+00  0.21156869682E+04  0.21156869682E+04  0.25500000000E-02 0.  1.
         -2   -1    0    0    0  501 -0.00000000000E+00 -0.00000000000E+00 -0.35376440053E+01  0.35376449244E+01  0.25500000000E-02 0. -1.
    5000001    1    1    2    0    0 -0.18975790157E+02  0.33432587809E+02  0.11640582735E+04  0.11672354015E+04  0.77000000000E+02 0.  0.
   -5000001    1    1    2    0    0  0.18975790157E+02 -0.33432587809E+02  0.94809105069E+03  0.95198921156E+03  0.77000000000E+02 0.  0.
<mgrwt>
<rscale>  0 0.17302657E+03</rscale>
<asrwt>0</asrwt>
<pdfrwt beam="1">  1        2 0.32548990E+00 0.17302657E+03</pdfrwt>
<pdfrwt beam="2">  1       -2 0.54425367E-03 0.17302657E+03</pdfrwt>
<totfact> 0.32488212E+04</totfact>
</mgrwt>
</event>
<event>
 4    1  0.1195463E-003  0.2829829E+03  0.7818608E-02  0.1094071E+00
         -2   -1    0    0    0  501 -0.00000000000E+00  0.00000000000E+00  0.30179370573E+02  0.30179370681E+02  0.25500000000E-02 0. -1.
          2   -1    0    0  501    0  0.00000000000E+00 -0.00000000000E+00 -0.66336151841E+03  0.66336151841E+03  0.25500000000E-02 0.  1.
    5000001    1    1    2    0    0  0.79695021626E+02 -0.59288187487E+02 -0.15729803186E+03  0.20134064784E+03  0.77000000000E+02 0.  0.
   -5000001    1    1    2    0    0 -0.79695021626E+02  0.59288187487E+02 -0.47588411598E+03  0.49220024125E+03  0.77000000000E+02 0.  0.
<mgrwt>
<rscale>  0 0.28298292E+03</rscale>
<asrwt>0</asrwt>
<pdfrwt beam="1">  1        2 0.10205561E+00 0.28298292E+03</pdfrwt>
<pdfrwt beam="2">  1       -2 0.46429806E-02 0.28298292E+03</pdfrwt>
<totfact> 0.97877613E+03</totfact>
</mgrwt>
</event>
<event>
 4    1  0.1195463E-003  0.3799070E+03  0.7818608E-02  0.1050968E+00
         -2   -1    0    0    0  501 -0.00000000000E+00  0.00000000000E+00  0.18445411124E+03  0.18445411125E+03  0.25500000000E-02 0. -1.
          2   -1    0    0  501    0  0.00000000000E+00 -0.00000000000E+00 -0.19561687776E+03  0.19561687777E+03  0.25500000000E-02 0.  1.
    5000001    1    1    2    0    0 -0.73971298980E+02  0.11929510548E+03  0.96689259403E+02  0.18703178379E+03  0.77000000000E+02 0.  0.
   -5000001    1    1    2    0    0  0.73971298980E+02 -0.11929510548E+03 -0.10785202592E+03  0.19303920524E+03  0.77000000000E+02 0.  0.
<mgrwt>
<rscale>  0 0.37990703E+03</rscale>
<asrwt>0</asrwt>
<pdfrwt beam="1">  1        2 0.30094904E-01 0.37990703E+03</pdfrwt>
<pdfrwt beam="2">  1       -2 0.28377556E-01 0.37990703E+03</pdfrwt>
<totfact> 0.19900680E+03</totfact>
</mgrwt>
</event>
<event>
 4    1  0.1195463E-003  0.1916750E+03  0.7818608E-02  0.1156959E+00
          2   -1    0    0  501    0  0.00000000000E+00  0.00000000000E+00  0.38800465910E+03  0.38800465911E+03  0.25500000000E-02 0.  1.
         -2   -1    0    0    0  501 -0.00000000000E+00 -0.00000000000E+00 -0.23671946799E+02  0.23671946936E+02  0.25500000000E-02 0. -1.
    5000001    1    1    2    0    0 -0.53227469054E+02 -0.19830336171E+02  0.19381598113E+03  0.21614819045E+03  0.77000000000E+02 0.  0.
   -5000001    1    1    2    0    0  0.53227469054E+02  0.19830336171E+02  0.17051673117E+03  0.19552841559E+03  0.77000000000E+02 0.  0.
<mgrwt>
<rscale>  0 0.19167499E+03</rscale>
<asrwt>0</asrwt>
<pdfrwt beam="1">  1        2 0.59693018E-01 0.19167499E+03</pdfrwt>
<pdfrwt beam="2">  1       -2 0.36418384E-02 0.19167499E+03</pdfrwt>
<totfact> 0.25188327E+04</totfact>
</mgrwt>
</event>
<event>
 4    1  0.1195463E-003  0.2092632E+03  0.7818608E-02  0.1142151E+00
         -2   -1    0    0    0  501 -0.00000000000E+00  0.00000000000E+00  0.15984774549E+02  0.15984774752E+02  0.25500000000E-02 0. -1.
          2   -1    0    0  501    0  0.00000000000E+00 -0.00000000000E+00 -0.68488754493E+03  0.68488754493E+03  0.25500000000E-02 0.  1.
    5000001    1    1    2    0    0  0.42018194722E+02  0.53339628765E+02 -0.26678944921E+03  0.28586055149E+03  0.77000000000E+02 0.  0.
   -5000001    1    1    2    0    0 -0.42018194722E+02 -0.53339628765E+02 -0.40211332116E+03  0.41501176820E+03  0.77000000000E+02 0.  0.
<mgrwt>
<rscale>  0 0.20926321E+03</rscale>
<asrwt>0</asrwt>
<pdfrwt beam="1">  1        2 0.10536729E+00 0.20926321E+03</pdfrwt>
<pdfrwt beam="2">  1       -2 0.24591966E-02 0.20926321E+03</pdfrwt>
<totfact> 0.23955192E+04</totfact>
</mgrwt>
</event>
<event>
 4    1  0.1195463E-003  0.1875958E+03  0.7818608E-02  0.1160648E+00
         -2   -1    0    0    0  501 -0.00000000000E+00  0.00000000000E+00  0.36726975151E+01  0.36726984003E+01  0.25500000000E-02 0. -1.
          2   -1    0    0  501    0  0.00000000000E+00 -0.00000000000E+00 -0.23955279403E+04  0.23955279403E+04  0.25500000000E-02 0.  1.
    5000001    1    1    2    0    0 -0.51781605603E+02  0.12040075254E+02 -0.11123049508E+04  0.11162336680E+04  0.77000000000E+02 0.  0.
   -5000001    1    1    2    0    0  0.51781605603E+02 -0.12040075254E+02 -0.12795502920E+04  0.12829669706E+04  0.77000000000E+02 0.  0.
<mgrwt>
<rscale>  0 0.18759585E+03</rscale>
<asrwt>0</asrwt>
<pdfrwt beam="1">  1        2 0.36854151E+00 0.18759585E+03</pdfrwt>
<pdfrwt beam="2">  1       -2 0.56503237E-03 0.18759585E+03</pdfrwt>
<totfact> 0.22013554E+04</totfact>
</mgrwt>
</event>
<event>
 4    1  0.1195463E-003  0.3568172E+03  0.7818608E-02  0.1059851E+00
         -2   -1    0    0    0  501 -0.00000000000E+00  0.00000000000E+00  0.47895899357E+02  0.47895899425E+02  0.25500000000E-02 0. -1.
          2   -1    0    0  501    0  0.00000000000E+00 -0.00000000000E+00 -0.66455842245E+03  0.66455842245E+03  0.25500000000E-02 0.  1.
    5000001    1    1    2    0    0 -0.22816844456E+02  0.15928686083E+03 -0.31387578680E+03  0.36102620676E+03  0.77000000000E+02 0.  0.
   -5000001    1    1    2    0    0  0.22816844456E+02 -0.15928686083E+03 -0.30278673629E+03  0.35142811512E+03  0.77000000000E+02 0.  0.
<mgrwt>
<rscale>  0 0.35681717E+03</rscale>
<asrwt>0</asrwt>
<pdfrwt beam="1">  1        2 0.10223975E+00 0.35681717E+03</pdfrwt>
<pdfrwt beam="2">  1       -2 0.73686004E-02 0.35681717E+03</pdfrwt>
<totfact> 0.48270700E+03</totfact>
</mgrwt>
</event>
<event>
 4    1  0.1195463E-003  0.3191424E+03  0.7818608E-02  0.1076045E+00
         -2   -1    0    0    0  501 -0.00000000000E+00  0.00000000000E+00  0.17123791776E+02  0.17123791965E+02  0.25500000000E-02 0. -1.
          2   -1    0    0  501    0  0.00000000000E+00 -0.00000000000E+00 -0.14869932670E+04  0.14869932670E+04  0.25500000000E-02 0.  1.
    5000001    1    1    2    0    0  0.12295670933E+03  0.20688725752E+00 -0.42175730399E+03  0.44601190415E+03  0.77000000000E+02 0.  0.
   -5000001    1    1    2    0    0 -0.12295670933E+03 -0.20688725752E+00 -0.10481121712E+04  0.10581051548E+04  0.77000000000E+02 0.  0.
<mgrwt>
<rscale>  0 0.31914237E+03</rscale>
<asrwt>0</asrwt>
<pdfrwt beam="1">  1        2 0.22876809E+00 0.31914237E+03</pdfrwt>
<pdfrwt beam="2">  1       -2 0.26344307E-02 0.31914237E+03</pdfrwt>
<totfact> 0.71460077E+03</totfact>
</mgrwt>
</event>
<event>
 4    1  0.1195463E-003  0.3380059E+03  0.7818608E-02  0.1067648E+00
          2   -1    0    0  501    0  0.00000000000E+00  0.00000000000E+00  0.14902814590E+03  0.14902814592E+03  0.25500000000E-02 0.  1.
         -2   -1    0    0    0  501 -0.00000000000E+00 -0.00000000000E+00 -0.19165504990E+03  0.19165504992E+03  0.25500000000E-02 0. -1.
    5000001    1    1    2    0    0  0.70982162431E+02 -0.11879742416E+03 -0.80786773462E+02  0.17778300857E+03  0.77000000000E+02 0.  0.
   -5000001    1    1    2    0    0 -0.70982162431E+02  0.11879742416E+03  0.38159869459E+02  0.16290018726E+03  0.77000000000E+02 0.  0.
<mgrwt>
<rscale>  0 0.33800590E+03</rscale>
<asrwt>0</asrwt>
<pdfrwt beam="1">  1        2 0.22927407E-01 0.33800590E+03</pdfrwt>
<pdfrwt beam="2">  1       -2 0.29485392E-01 0.33800590E+03</pdfrwt>
<totfact> 0.25137605E+03</totfact>
</mgrwt>
</event>
<event>
 4    1  0.1195463E-003  0.2007919E+03  0.7818608E-02  0.1149073E+00
          2   -1    0    0  501    0  0.00000000000E+00  0.00000000000E+00  0.98903508111E+03  0.98903508111E+03  0.25500000000E-02 0.  1.
         -2   -1    0    0    0  501 -0.00000000000E+00 -0.00000000000E+00 -0.10191092236E+02  0.10191092555E+02  0.25500000000E-02 0. -1.
    5000001    1    1    2    0    0  0.49630813750E+02 -0.39440293608E+02  0.43233531953E+03  0.44369086417E+03  0.77000000000E+02 0.  0.
   -5000001    1    1    2    0    0 -0.49630813750E+02  0.39440293608E+02  0.54650866934E+03  0.55553530950E+03  0.77000000000E+02 0.  0.
<mgrwt>
<rscale>  0 0.20079191E+03</rscale>
<asrwt>0</asrwt>
<pdfrwt beam="1">  1        2 0.15215924E+00 0.20079191E+03</pdfrwt>
<pdfrwt beam="2">  1       -2 0.15678604E-02 0.20079191E+03</pdfrwt>
<totfact> 0.28818060E+04</totfact>
</mgrwt>
</event>
<event>
 4    1  0.1195463E-003  0.4068028E+03  0.7818608E-02  0.1041449E+00
         -2   -1    0    0    0  501 -0.00000000000E+00  0.00000000000E+00  0.37974798125E+02  0.37974798210E+02  0.25500000000E-02 0. -1.
          2   -1    0    0  501    0  0.00000000000E+00 -0.00000000000E+00 -0.10894627323E+04  0.10894627323E+04  0.25500000000E-02 0.  1.
    5000001    1    1    2    0    0  0.18113072513E+03  0.50050965336E+02 -0.55730560706E+03  0.59315426187E+03  0.77000000000E+02 0.  0.
   -5000001    1    1    2    0    0 -0.18113072513E+03 -0.50050965336E+02 -0.49418232714E+03  0.53428326866E+03  0.77000000000E+02 0.  0.
<mgrwt>
<rscale>  0 0.40680279E+03</rscale>
<asrwt>0</asrwt>
<pdfrwt beam="1">  1        2 0.16760963E+00 0.40680279E+03</pdfrwt>
<pdfrwt beam="2">  1       -2 0.58422775E-02 0.40680279E+03</pdfrwt>
<totfact> 0.35869745E+03</totfact>
</mgrwt>
</event>
<event>
 4    1  0.1195463E-003  0.2962182E+03  0.7818608E-02  0.1087147E+00
          2   -1    0    0  501    0  0.00000000000E+00  0.00000000000E+00  0.10534042994E+04  0.10534042994E+04  0.25500000000E-02 0.  1.
         -2   -1    0    0    0  501 -0.00000000000E+00 -0.00000000000E+00 -0.20824207544E+02  0.20824207700E+02  0.25500000000E-02 0. -1.
    5000001    1    1    2    0    0 -0.23959897477E+02 -0.11181614017E+03  0.71260218513E+03  0.72581526585E+03  0.77000000000E+02 0.  0.
   -5000001    1    1    2    0    0  0.23959897477E+02  0.11181614017E+03  0.31997790675E+03  0.34841324128E+03  0.77000000000E+02 0.  0.
<mgrwt>
<rscale>  0 0.29621823E+03</rscale>
<asrwt>0</asrwt>
<pdfrwt beam="1">  1        2 0.16206220E+00 0.29621823E+03</pdfrwt>
<pdfrwt beam="2">  1       -2 0.32037243E-02 0.29621823E+03</pdfrwt>
<totfact> 0.93559781E+03</totfact>
</mgrwt>
</event>
<event>
 4    1  0.1195463E-003  0.2649987E+03  0.7818608E-02  0.1104177E+00
         -2   -1    0    0    0  501 -0.00000000000E+00  0.00000000000E+00  0.13763315418E+02  0.13763315655E+02  0.25500000000E-02 0. -1.
          2   -1    0    0  501    0  0.00000000000E+00 -0.00000000000E+00 -0.12755702014E+04  0.12755702014E+04  0.25500000000E-02 0.  1.
    5000001    1    1    2    0    0 -0.29812019399E+02 -0.10097887485E+03 -0.51767511909E+03  0.53385580319E+03  0.77000000000E+02 0.  0.
   -5000001    1    1    2    0    0  0.29812019399E+02  0.10097887485E+03 -0.74413176690E+03  0.75547771388E+03  0.77000000000E+02 0.  0.
<mgrwt>
<rscale>  0 0.26499868E+03</rscale>
<asrwt>0</asrwt>
<pdfrwt beam="1">  1        2 0.19624148E+00 0.26499868E+03</pdfrwt>
<pdfrwt beam="2">  1       -2 0.21174342E-02 0.26499868E+03</pdfrwt>
<totfact> 0.12838546E+04</totfact>
</mgrwt>
</event>
<event>
 4    1  0.1195463E-003  0.2660888E+03  0.7818608E-02  0.1103539E+00
          2   -1    0    0  501    0  0.00000000000E+00  0.00000000000E+00  0.36013019134E+03  0.36013019135E+03  0.25500000000E-02 0.  1.
         -2   -1    0    0    0  501 -0.00000000000E+00 -0.00000000000E+00 -0.49151143616E+02  0.49151143682E+02  0.25500000000E-02 0. -1.
    5000001    1    1    2    0    0 -0.76795544769E+02  0.68127811867E+02  0.10148233183E+03  0.16360506753E+03  0.77000000000E+02 0.  0.
   -5000001    1    1    2    0    0  0.76795544769E+02 -0.68127811867E+02  0.20949671589E+03  0.24567626750E+03  0.77000000000E+02 0.  0.
<mgrwt>
<rscale>  0 0.26608879E+03</rscale>
<asrwt>0</asrwt>
<pdfrwt beam="1">  1        2 0.55404646E-01 0.26608879E+03</pdfrwt>
<pdfrwt beam="2">  1       -2 0.75617142E-02 0.26608879E+03</pdfrwt>
<totfact> 0.91692021E+03</totfact>
</mgrwt>
</event>
<event>
 4    1  0.1195463E-003  0.2498121E+03  0.7818608E-02  0.1113424E+00
          2   -1    0    0  501    0  0.00000000000E+00  0.00000000000E+00  0.29822935477E+04  0.29822935477E+04  0.25500000000E-02 0.  1.
         -2   -1    0    0    0  501 -0.00000000000E+00 -0.00000000000E+00 -0.52313823171E+01  0.52313829386E+01  0.25500000000E-02 0. -1.
    5000001    1    1    2    0    0 -0.90507797672E+02  0.32725815741E+02  0.12464139525E+04  0.12524932660E+04  0.77000000000E+02 0.  0.
   -5000001    1    1    2    0    0  0.90507797672E+02 -0.32725815741E+02  0.17306482130E+04  0.17350316647E+04  0.77000000000E+02 0.  0.
<mgrwt>
<rscale>  0 0.24981208E+03</rscale>
<asrwt>0</asrwt>
<pdfrwt beam="1">  1        2 0.45881575E+00 0.24981208E+03</pdfrwt>
<pdfrwt beam="2">  1       -2 0.80482571E-03 0.24981208E+03</pdfrwt>
<totfact> 0.62429030E+03</totfact>
</mgrwt>
</event>
<event>
 4    1  0.1195463E-003  0.6851775E+03  0.7818608E-02  0.9742922E-01
         -2   -1    0    0    0  501 -0.00000000000E+00  0.00000000000E+00  0.19502023792E+03  0.19502023794E+03  0.25500000000E-02 0. -1.
          2   -1    0    0  501    0  0.00000000000E+00 -0.00000000000E+00 -0.60181982649E+03  0.60181982650E+03  0.25500000000E-02 0.  1.
    5000001    1    1    2    0    0  0.27814838517E+02  0.30392982836E+03 -0.36068478419E+03  0.47871653341E+03  0.77000000000E+02 0.  0.
   -5000001    1    1    2    0    0 -0.27814838517E+02 -0.30392982836E+03 -0.46114804375E+02  0.31812353103E+03  0.77000000000E+02 0.  0.
<mgrwt>
<rscale>  0 0.68517748E+03</rscale>
<asrwt>0</asrwt>
<pdfrwt beam="1">  1        2 0.92587665E-01 0.68517748E+03</pdfrwt>
<pdfrwt beam="2">  1       -2 0.30003114E-01 0.68517748E+03</pdfrwt>
<totfact> 0.50968844E+02</totfact>
</mgrwt>
</event>
<event>
 4    1  0.1195463E-003  0.2134603E+03  0.7818608E-02  0.1138855E+00
         -2   -1    0    0    0  501 -0.00000000000E+00  0.00000000000E+00  0.28166918342E+02  0.28166918457E+02  0.25500000000E-02 0. -1.
          2   -1    0    0  501    0  0.00000000000E+00 -0.00000000000E+00 -0.40442226711E+03  0.40442226712E+03  0.25500000000E-02 0.  1.
    5000001    1    1    2    0    0  0.34754840496E+02 -0.28798154298E+01 -0.32018285760E+03  0.33115291721E+03  0.77000000000E+02 0.  0.
   -5000001    1    1    2    0    0 -0.34754840496E+02  0.28798154298E+01 -0.56072491174E+02  0.10143626837E+03  0.77000000000E+02 0.  0.
<mgrwt>
<rscale>  0 0.21346034E+03</rscale>
<asrwt>0</asrwt>
<pdfrwt beam="1">  1        2 0.62218806E-01 0.21346034E+03</pdfrwt>
<pdfrwt beam="2">  1       -2 0.43333724E-02 0.21346034E+03</pdfrwt>
<totfact> 0.18714068E+04</totfact>
</mgrwt>
</event>
<event>
 4    1  0.1195463E-003  0.1572180E+03  0.7818608E-02  0.1191874E+00
         -2   -1    0    0    0  501 -0.00000000000E+00  0.00000000000E+00  0.25410957432E+01  0.25410970227E+01  0.25500000000E-02 0. -1.
          2   -1    0    0  501    0  0.00000000000E+00 -0.00000000000E+00 -0.24317754072E+04  0.24317754072E+04  0.25500000000E-02 0.  1.
    5000001    1    1    2    0    0  0.11607052646E+02  0.69916284617E+00 -0.13807791133E+04  0.13829733086E+04  0.77000000000E+02 0.  0.
   -5000001    1    1    2    0    0 -0.11607052646E+02 -0.69916284617E+00 -0.10484551982E+04  0.10513431957E+04  0.77000000000E+02 0.  0.
<mgrwt>
<rscale>  0 0.15721801E+03</rscale>
<asrwt>0</asrwt>
<pdfrwt beam="1">  1        2 0.37411743E+00 0.15721801E+03</pdfrwt>
<pdfrwt beam="2">  1       -2 0.39093985E-03 0.15721801E+03</pdfrwt>
<totfact> 0.35291176E+04</totfact>
</mgrwt>
</event>
<event>
 4    1  0.1195463E-003  0.2041027E+03  0.7818608E-02  0.1146323E+00
         -2   -1    0    0    0  501 -0.00000000000E+00  0.00000000000E+00  0.33567441032E+02  0.33567441129E+02  0.25500000000E-02 0. -1.
          2   -1    0    0  501    0  0.00000000000E+00 -0.00000000000E+00 -0.31025546398E+03  0.31025546399E+03  0.25500000000E-02 0.  1.
    5000001    1    1    2    0    0 -0.62874375649E+02 -0.10860803425E+02 -0.10405434389E+03  0.14431718763E+03  0.77000000000E+02 0.  0.
   -5000001    1    1    2    0    0  0.62874375649E+02  0.10860803425E+02 -0.17263367906E+03  0.19950571748E+03  0.77000000000E+02 0.  0.
<mgrwt>
<rscale>  0 0.20410274E+03</rscale>
<asrwt>0</asrwt>
<pdfrwt beam="1">  1        2 0.47731608E-01 0.20410274E+03</pdfrwt>
<pdfrwt beam="2">  1       -2 0.51642219E-02 0.20410274E+03</pdfrwt>
<totfact> 0.19034652E+04</totfact>
</mgrwt>
</event>
<event>
 4    1  0.1195463E-003  0.1936664E+03  0.7818608E-02  0.1155195E+00
         -2   -1    0    0    0  501 -0.00000000000E+00  0.00000000000E+00  0.15602616827E+02  0.15602617035E+02  0.25500000000E-02 0. -1.
          2   -1    0    0  501    0  0.00000000000E+00 -0.00000000000E+00 -0.60096765105E+03  0.60096765105E+03  0.25500000000E-02 0.  1.
    5000001    1    1    2    0    0 -0.26868834257E+02  0.37374538896E+02 -0.17662565908E+03  0.19810202891E+03  0.77000000000E+02 0.  0.
   -5000001    1    1    2    0    0  0.26868834257E+02 -0.37374538896E+02 -0.40873937514E+03  0.41846823918E+03  0.77000000000E+02 0.  0.
<mgrwt>
<rscale>  0 0.19366639E+03</rscale>
<asrwt>0</asrwt>
<pdfrwt beam="1">  1        2 0.92456544E-01 0.19366639E+03</pdfrwt>
<pdfrwt beam="2">  1       -2 0.24004031E-02 0.19366639E+03</pdfrwt>
<totfact> 0.28776591E+04</totfact>
</mgrwt>
</event>
<event>
 4    1  0.1195463E-003  0.2002914E+03  0.7818608E-02  0.1149493E+00
         -2   -1    0    0    0  501 -0.00000000000E+00  0.00000000000E+00  0.94037189198E+01  0.94037192655E+01  0.25500000000E-02 0. -1.
          2   -1    0    0  501    0  0.00000000000E+00 -0.00000000000E+00 -0.10665104842E+04  0.10665104842E+04  0.25500000000E-02 0.  1.
    5000001    1    1    2    0    0  0.27991225378E+02 -0.46276717463E+02 -0.34440975896E+03  0.35703238697E+03  0.77000000000E+02 0.  0.
   -5000001    1    1    2    0    0 -0.27991225378E+02  0.46276717463E+02 -0.71269700635E+03  0.71888181653E+03  0.77000000000E+02 0.  0.
<mgrwt>
<rscale>  0 0.20029144E+03</rscale>
<asrwt>0</asrwt>
<pdfrwt beam="1">  1        2 0.16407844E+00 0.20029144E+03</pdfrwt>
<pdfrwt beam="2">  1       -2 0.14467269E-02 0.20029144E+03</pdfrwt>
<totfact> 0.29103946E+04</totfact>
</mgrwt>
</event>
<event>
 4    1  0.1195463E-003  0.3206013E+03  0.7818608E-02  0.1075373E+00
          2   -1    0    0  501    0  0.00000000000E+00  0.00000000000E+00  0.20754862176E+03  0.20754862177E+03  0.25500000000E-02 0.  1.
         -2   -1    0    0    0  501 -0.00000000000E+00 -0.00000000000E+00 -0.12380858457E+03  0.12380858460E+03  0.25500000000E-02 0. -1.
    5000001    1    1    2    0    0  0.58285186006E+02  0.87768499784E+02 -0.54349066473E+02  0.14136227746E+03  0.77000000000E+02 0.  0.
   -5000001    1    1    2    0    0 -0.58285186006E+02 -0.87768499784E+02  0.13808910366E+03  0.18999492891E+03  0.77000000000E+02 0.  0.
<mgrwt>
<rscale>  0 0.32060132E+03</rscale>
<asrwt>0</asrwt>
<pdfrwt beam="1">  1        2 0.31930557E-01 0.32060132E+03</pdfrwt>
<pdfrwt beam="2">  1       -2 0.19047475E-01 0.32060132E+03</pdfrwt>
<totfact> 0.37438510E+03</totfact>
</mgrwt>
</event>
<event>
 4    1  0.1195463E-003  0.2560522E+03  0.7818608E-02  0.1109539E+00
          2   -1    0    0  501    0  0.00000000000E+00  0.00000000000E+00  0.59828458436E+03  0.59828458436E+03  0.25500000000E-02 0.  1.
         -2   -1    0    0    0  501 -0.00000000000E+00 -0.00000000000E+00 -0.27396123163E+02  0.27396123281E+02  0.25500000000E-02 0. -1.
    5000001    1    1    2    0    0  0.33314274169E+02 -0.66957167672E+02  0.11494389417E+03  0.15727110978E+03  0.77000000000E+02 0.  0.
   -5000001    1    1    2    0    0 -0.33314274169E+02  0.66957167672E+02  0.45594456703E+03  0.46840959786E+03  0.77000000000E+02 0.  0.
<mgrwt>
<rscale>  0 0.25605217E+03</rscale>
<asrwt>0</asrwt>
<pdfrwt beam="1">  1        2 0.92043780E-01 0.25605217E+03</pdfrwt>
<pdfrwt beam="2">  1       -2 0.42147883E-02 0.25605217E+03</pdfrwt>
<totfact> 0.12740321E+04</totfact>
</mgrwt>
</event>
<event>
 4    1  0.1195463E-003  0.2647939E+03  0.7818608E-02  0.1104297E+00
          2   -1    0    0  501    0  0.00000000000E+00  0.00000000000E+00  0.23102112991E+03  0.23102112993E+03  0.25500000000E-02 0.  1.
         -2   -1    0    0    0  501 -0.00000000000E+00 -0.00000000000E+00 -0.75875972240E+02  0.75875972282E+02  0.25500000000E-02 0. -1.
    5000001    1    1    2    0    0  0.73969254768E+02  0.54558078620E+02  0.14264130106E+03  0.18634262895E+03  0.77000000000E+02 0.  0.
   -5000001    1    1    2    0    0 -0.73969254768E+02 -0.54558078620E+02  0.12503856610E+02  0.12055447326E+03  0.77000000000E+02 0.  0.
<mgrwt>
<rscale>  0 0.26479390E+03</rscale>
<asrwt>0</asrwt>
<pdfrwt beam="1">  1        2 0.35541712E-01 0.26479390E+03</pdfrwt>
<pdfrwt beam="2">  1       -2 0.11673227E-01 0.26479390E+03</pdfrwt>
<totfact> 0.74438678E+03</totfact>
</mgrwt>
</event>
<event>
 4    1  0.1195463E-003  0.3998738E+03  0.7818608E-02  0.1043823E+00
          2   -1    0    0  501    0  0.00000000000E+00  0.00000000000E+00  0.12791334536E+04  0.12791334536E+04  0.25500000000E-02 0.  1.
         -2   -1    0    0    0  501 -0.00000000000E+00 -0.00000000000E+00 -0.31251433522E+02  0.31251433626E+02  0.25500000000E-02 0. -1.
    5000001    1    1    2    0    0 -0.12109882204E+03  0.77477010134E+02  0.24491074791E+03  0.29424120418E+03  0.77000000000E+02 0.  0.
   -5000001    1    1    2    0    0  0.12109882204E+03 -0.77477010134E+02  0.10029712722E+04  0.10161436830E+04  0.77000000000E+02 0.  0.
<mgrwt>
<rscale>  0 0.39987375E+03</rscale>
<asrwt>0</asrwt>
<pdfrwt beam="1">  1        2 0.19678973E+00 0.39987375E+03</pdfrwt>
<pdfrwt beam="2">  1       -2 0.48079135E-02 0.39987375E+03</pdfrwt>
<totfact> 0.37570322E+03</totfact>
</mgrwt>
</event>
<event>
 4    1  0.1195463E-003  0.1811616E+03  0.7818608E-02  0.1166684E+00
          2   -1    0    0  501    0  0.00000000000E+00  0.00000000000E+00  0.11488971292E+04  0.11488971292E+04  0.25500000000E-02 0.  1.
         -2   -1    0    0    0  501 -0.00000000000E+00 -0.00000000000E+00 -0.71415244779E+01  0.71415249332E+01  0.25500000000E-02 0. -1.
    5000001    1    1    2    0    0 -0.19368191880E+02 -0.42393713686E+02  0.63580484475E+03  0.64214418507E+03  0.77000000000E+02 0.  0.
   -5000001    1    1    2    0    0  0.19368191880E+02  0.42393713686E+02  0.50595076001E+03  0.51389446910E+03  0.77000000000E+02 0.  0.
<mgrwt>
<rscale>  0 0.18116155E+03</rscale>
<asrwt>0</asrwt>
<pdfrwt beam="1">  1        2 0.17675330E+00 0.18116155E+03</pdfrwt>
<pdfrwt beam="2">  1       -2 0.10986968E-02 0.18116155E+03</pdfrwt>
<totfact> 0.38560215E+04</totfact>
</mgrwt>
</event>
<event>
 4    1  0.1195463E-003  0.2724292E+03  0.7818608E-02  0.1099897E+00
          2   -1    0    0  501    0  0.00000000000E+00  0.00000000000E+00  0.25993991424E+04  0.25993991424E+04  0.25500000000E-02 0.  1.
         -2   -1    0    0    0  501 -0.00000000000E+00 -0.00000000000E+00 -0.71379652199E+01  0.71379656754E+01  0.25500000000E-02 0. -1.
    5000001    1    1    2    0    0 -0.10669562362E+03  0.11851974101E+01  0.16330543516E+04  0.16383469950E+04  0.77000000000E+02 0.  0.
   -5000001    1    1    2    0    0  0.10669562362E+03 -0.11851974101E+01  0.95920682560E+03  0.96819011308E+03  0.77000000000E+02 0.  0.
<mgrwt>
<rscale>  0 0.27242923E+03</rscale>
<asrwt>0</asrwt>
<pdfrwt beam="1">  1        2 0.39990731E+00 0.27242923E+03</pdfrwt>
<pdfrwt beam="2">  1       -2 0.10981492E-02 0.27242923E+03</pdfrwt>
<totfact> 0.65768351E+03</totfact>
</mgrwt>
</event>
<event>
 4    1  0.1195463E-003  0.2240127E+03  0.7818608E-02  0.1130926E+00
          2   -1    0    0  501    0  0.00000000000E+00  0.00000000000E+00  0.12784470202E+04  0.12784470202E+04  0.25500000000E-02 0.  1.
         -2   -1    0    0    0  501 -0.00000000000E+00 -0.00000000000E+00 -0.98130153534E+01  0.98130156847E+01  0.25500000000E-02 0. -1.
    5000001    1    1    2    0    0  0.42723419796E+01 -0.45465355005E+02  0.10214242194E+04  0.10253398399E+04  0.77000000000E+02 0.  0.
   -5000001    1    1    2    0    0 -0.42723419796E+01  0.45465355005E+02  0.24720978547E+03  0.26292019596E+03  0.77000000000E+02 0.  0.
<mgrwt>
<rscale>  0 0.22401268E+03</rscale>
<asrwt>0</asrwt>
<pdfrwt beam="1">  1        2 0.19668403E+00 0.22401268E+03</pdfrwt>
<pdfrwt beam="2">  1       -2 0.15096957E-02 0.22401268E+03</pdfrwt>
<totfact> 0.20854977E+04</totfact>
</mgrwt>
</event>
<event>
 4    1  0.1195463E-003  0.6277324E+03  0.7818608E-02  0.9849484E-01
         -2   -1    0    0    0  501 -0.00000000000E+00  0.00000000000E+00  0.67261274149E+02  0.67261274197E+02  0.25500000000E-02 0. -1.
          2   -1    0    0  501    0  0.00000000000E+00 -0.00000000000E+00 -0.14646167957E+04  0.14646167957E+04  0.25500000000E-02 0.  1.
    5000001    1    1    2    0    0  0.56181538496E+01  0.28768739994E+03 -0.45725230583E+03  0.54571446281E+03  0.77000000000E+02 0.  0.
   -5000001    1    1    2    0    0 -0.56181538496E+01 -0.28768739994E+03 -0.94010321573E+03  0.98616360709E+03  0.77000000000E+02 0.  0.
<mgrwt>
<rscale>  0 0.62773240E+03</rscale>
<asrwt>0</asrwt>
<pdfrwt beam="1">  1        2 0.22532564E+00 0.62773240E+03</pdfrwt>
<pdfrwt beam="2">  1       -2 0.10347889E-01 0.62773240E+03</pdfrwt>
<totfact> 0.87767670E+02</totfact>
</mgrwt>
</event>
<event>
 4    1  0.1195463E-003  0.1985637E+03  0.7818608E-02  0.1150957E+00
          2   -1    0    0  501    0  0.00000000000E+00  0.00000000000E+00  0.91215435745E+03  0.91215435745E+03  0.25500000000E-02 0.  1.
         -2   -1    0    0    0  501 -0.00000000000E+00 -0.00000000000E+00 -0.10806157130E+02  0.10806157431E+02  0.25500000000E-02 0. -1.
    5000001    1    1    2    0    0  0.39539791795E+02 -0.39689665155E+02  0.58125571230E+03  0.58900413219E+03  0.77000000000E+02 0.  0.
   -5000001    1    1    2    0    0 -0.39539791795E+02  0.39689665155E+02  0.32009248801E+03  0.33395638269E+03  0.77000000000E+02 0.  0.
<mgrwt>
<rscale>  0 0.19856368E+03</rscale>
<asrwt>0</asrwt>
<pdfrwt beam="1">  1        2 0.14033150E+00 0.19856368E+03</pdfrwt>
<pdfrwt beam="2">  1       -2 0.16624851E-02 0.19856368E+03</pdfrwt>
<totfact> 0.29519024E+04</totfact>
</mgrwt>
</event>
<event>
 4    1  0.1195463E-003  0.2320505E+03  0.7818608E-02  0.1125205E+00
          2   -1    0    0  501    0  0.00000000000E+00  0.00000000000E+00  0.11788095429E+04  0.11788095429E+04  0.25500000000E-02 0.  1.
         -2   -1    0    0    0  501 -0.00000000000E+00 -0.00000000000E+00 -0.11419880352E+02  0.11419880636E+02  0.25500000000E-02 0. -1.
    5000001    1    1    2    0    0 -0.63358463776E+02 -0.52543256080E+02  0.44250014869E+03  0.45662946716E+03  0.77000000000E+02 0.  0.
   -5000001    1    1    2    0    0  0.63358463776E+02  0.52543256080E+02  0.72488951382E+03  0.73359995633E+03  0.77000000000E+02 0.  0.
<mgrwt>
<rscale>  0 0.23205055E+03</rscale>
<asrwt>0</asrwt>
<pdfrwt beam="1">  1        2 0.18135531E+00 0.23205055E+03</pdfrwt>
<pdfrwt beam="2">  1       -2 0.17569047E-02 0.23205055E+03</pdfrwt>
<totfact> 0.19039736E+04</totfact>
</mgrwt>
</event>
<event>
 4    1  0.1195463E-003  0.2278046E+03  0.7818608E-02  0.1128195E+00
         -2   -1    0    0    0  501 -0.00000000000E+00  0.00000000000E+00  0.12113379738E+02  0.12113380006E+02  0.25500000000E-02 0. -1.
          2   -1    0    0  501    0  0.00000000000E+00 -0.00000000000E+00 -0.10710253710E+04  0.10710253710E+04  0.25500000000E-02 0.  1.
    5000001    1    1    2    0    0 -0.64431008523E+02  0.43407519019E+02 -0.37841194228E+03  0.39390375173E+03  0.77000000000E+02 0.  0.
   -5000001    1    1    2    0    0  0.64431008523E+02 -0.43407519019E+02 -0.68050004899E+03  0.68923499928E+03  0.77000000000E+02 0.  0.
<mgrwt>
<rscale>  0 0.22780463E+03</rscale>
<asrwt>0</asrwt>
<pdfrwt beam="1">  1        2 0.16477306E+00 0.22780463E+03</pdfrwt>
<pdfrwt beam="2">  1       -2 0.18635977E-02 0.22780463E+03</pdfrwt>
<totfact> 0.20147431E+04</totfact>
</mgrwt>
</event>
<event>
 4    1  0.1195463E-003  0.1846272E+03  0.7818608E-02  0.1163398E+00
         -2   -1    0    0    0  501 -0.00000000000E+00  0.00000000000E+00  0.39937916181E+02  0.39937916262E+02  0.25500000000E-02 0. -1.
          2   -1    0    0  501    0  0.00000000000E+00 -0.00000000000E+00 -0.21337617066E+03  0.21337617067E+03  0.25500000000E-02 0.  1.
    5000001    1    1    2    0    0  0.27933105894E+02 -0.30888246034E+02 -0.46519402239E+02  0.99133228197E+02  0.77000000000E+02 0.  0.
   -5000001    1    1    2    0    0 -0.27933105894E+02  0.30888246034E+02 -0.12691885224E+03  0.15418085874E+03  0.77000000000E+02 0.  0.
<mgrwt>
<rscale>  0 0.18462719E+03</rscale>
<asrwt>0</asrwt>
<pdfrwt beam="1">  1        2 0.32827103E-01 0.18462719E+03</pdfrwt>
<pdfrwt beam="2">  1       -2 0.61442949E-02 0.18462719E+03</pdfrwt>
<totfact> 0.21675050E+04</totfact>
</mgrwt>
</event>
<event>
 4    1  0.1195463E-003  0.4355626E+03  0.7818608E-02  0.1032117E+00
          2   -1    0    0  501    0  0.00000000000E+00  0.00000000000E+00  0.45853556447E+03  0.45853556448E+03  0.25500000000E-02 0.  1.
         -2   -1    0    0    0  501 -0.00000000000E+00 -0.00000000000E+00 -0.10343516815E+03  0.10343516818E+03  0.25500000000E-02 0. -1.
    5000001    1    1    2    0    0  0.15751183210E+03  0.12818866680E+03  0.15685067563E+03  0.26790566622E+03  0.77000000000E+02 0.  0.
   -5000001    1    1    2    0    0 -0.15751183210E+03 -0.12818866680E+03  0.19824972069E+03  0.29406506644E+03  0.77000000000E+02 0.  0.
<mgrwt>
<rscale>  0 0.43556264E+03</rscale>
<asrwt>0</asrwt>
<pdfrwt beam="1">  1        2 0.70543934E-01 0.43556264E+03</pdfrwt>
<pdfrwt beam="2">  1       -2 0.15913102E-01 0.43556264E+03</pdfrwt>
<totfact> 0.21414664E+03</totfact>
</mgrwt>
</event>
<event>
 4    1  0.1195463E-003  0.1998952E+03  0.7818608E-02  0.1149827E+00
          2   -1    0    0  501    0  0.00000000000E+00  0.00000000000E+00  0.82820053197E+03  0.82820053197E+03  0.25500000000E-02 0.  1.
         -2   -1    0    0    0  501 -0.00000000000E+00 -0.00000000000E+00 -0.12061715451E+02  0.12061715720E+02  0.25500000000E-02 0. -1.
    5000001    1    1    2    0    0 -0.52660970182E+02  0.35101180915E+02  0.37682493963E+03  0.38978366540E+03  0.77000000000E+02 0.  0.
   -5000001    1    1    2    0    0  0.52660970182E+02 -0.35101180915E+02  0.43931387688E+03  0.45047858229E+03  0.77000000000E+02 0.  0.
<mgrwt>
<rscale>  0 0.19989517E+03</rscale>
<asrwt>0</asrwt>
<pdfrwt beam="1">  1        2 0.12741548E+00 0.19989517E+03</pdfrwt>
<pdfrwt beam="2">  1       -2 0.18556483E-02 0.19989517E+03</pdfrwt>
<totfact> 0.28538533E+04</totfact>
</mgrwt>
</event>
<event>
 4    1  0.1195463E-003  0.1994741E+03  0.7818608E-02  0.1150183E+00
          2   -1    0    0  501    0  0.00000000000E+00  0.00000000000E+00  0.10039466843E+04  0.10039466843E+04  0.25500000000E-02 0.  1.
         -2   -1    0    0    0  501 -0.00000000000E+00 -0.00000000000E+00 -0.99083736151E+01  0.99083739432E+01  0.25500000000E-02 0. -1.
    5000001    1    1    2    0    0  0.49331937906E+02  0.29828532563E+02  0.63102145174E+03  0.63831062501E+03  0.77000000000E+02 0.  0.
   -5000001    1    1    2    0    0 -0.49331937906E+02 -0.29828532563E+02  0.36301685896E+03  0.37554443324E+03  0.77000000000E+02 0.  0.
<mgrwt>
<rscale>  0 0.19947410E+03</rscale>
<asrwt>0</asrwt>
<pdfrwt beam="1">  1        2 0.15445332E+00 0.19947410E+03</pdfrwt>
<pdfrwt beam="2">  1       -2 0.15243653E-02 0.19947410E+03</pdfrwt>
<totfact> 0.29389056E+04</totfact>
</mgrwt>
</event>
<event>
 4    1  0.1195463E-003  0.3501503E+03  0.7818608E-02  0.1062553E+00
         -2   -1    0    0    0  501 -0.00000000000E+00  0.00000000000E+00  0.23398225497E+03  0.23398225499E+03  0.25500000000E-02 0. -1.
          2   -1    0    0  501    0  0.00000000000E+00 -0.00000000000E+00 -0.13099845899E+03  0.13099845901E+03  0.25500000000E-02 0.  1.
    5000001    1    1    2    0    0 -0.15246319967E+03 -0.10033632942E+02  0.12817690322E+02  0.17157795380E+03  0.77000000000E+02 0.  0.
   -5000001    1    1    2    0    0  0.15246319967E+03  0.10033632942E+02  0.90166105663E+02  0.19340276020E+03  0.77000000000E+02 0.  0.
<mgrwt>
<rscale>  0 0.35015034E+03</rscale>
<asrwt>0</asrwt>
<pdfrwt beam="1">  1        2 0.20153609E-01 0.35015034E+03</pdfrwt>
<pdfrwt beam="2">  1       -2 0.35997270E-01 0.35015034E+03</pdfrwt>
<totfact> 0.20147206E+03</totfact>
</mgrwt>
</event>
<event>
 4    1  0.1195463E-003  0.2338628E+03  0.7818608E-02  0.1123950E+00
          2   -1    0    0  501    0  0.00000000000E+00  0.00000000000E+00  0.86584486854E+03  0.86584486855E+03  0.25500000000E-02 0.  1.
         -2   -1    0    0    0  501 -0.00000000000E+00 -0.00000000000E+00 -0.15791452263E+02  0.15791452469E+02  0.25500000000E-02 0. -1.
    5000001    1    1    2    0    0 -0.76875882792E+02  0.41319248544E+02  0.46747208389E+03  0.48174301331E+03  0.77000000000E+02 0.  0.
   -5000001    1    1    2    0    0  0.76875882792E+02 -0.41319248544E+02  0.38258133239E+03  0.39989330770E+03  0.77000000000E+02 0.  0.
<mgrwt>
<rscale>  0 0.23386276E+03</rscale>
<asrwt>0</asrwt>
<pdfrwt beam="1">  1        2 0.13320694E+00 0.23386276E+03</pdfrwt>
<pdfrwt beam="2">  1       -2 0.24294536E-02 0.23386276E+03</pdfrwt>
<totfact> 0.18320109E+04</totfact>
</mgrwt>
</event>
<event>
 4    1  0.1195463E-003  0.5875812E+03  0.7818608E-02  0.9931511E-01
          2   -1    0    0  501    0  0.00000000000E+00  0.00000000000E+00  0.12892716911E+03  0.12892716914E+03  0.25500000000E-02 0.  1.
         -2   -1    0    0    0  501 -0.00000000000E+00 -0.00000000000E+00 -0.66947024495E+03  0.66947024495E+03  0.25500000000E-02 0. -1.
    5000001    1    1    2    0    0 -0.78838947732E+02 -0.25542815614E+03 -0.39863754834E+03  0.48610700219E+03  0.77000000000E+02 0.  0.
   -5000001    1    1    2    0    0  0.78838947732E+02  0.25542815614E+03 -0.14190552749E+03  0.31229041190E+03  0.77000000000E+02 0.  0.
<mgrwt>
<rscale>  0 0.58758116E+03</rscale>
<asrwt>0</asrwt>
<pdfrwt beam="1">  1        2 0.19834949E-01 0.58758116E+03</pdfrwt>
<pdfrwt beam="2">  1       -2 0.10299542E+00 0.58758116E+03</pdfrwt>
<totfact> 0.22365116E+02</totfact>
</mgrwt>
</event>
<event>
 4    1  0.1195463E-003  0.2267744E+03  0.7818608E-02  0.1128931E+00
         -2   -1    0    0    0  501 -0.00000000000E+00  0.00000000000E+00  0.43371090141E+01  0.43371097638E+01  0.25500000000E-02 0. -1.
          2   -1    0    0  501    0  0.00000000000E+00 -0.00000000000E+00 -0.29643383175E+04  0.29643383175E+04  0.25500000000E-02 0.  1.
    5000001    1    1    2    0    0  0.28067727854E+02 -0.74367729854E+02 -0.11568646415E+04  0.11621459268E+04  0.77000000000E+02 0.  0.
   -5000001    1    1    2    0    0 -0.28067727854E+02  0.74367729854E+02 -0.18031365671E+04  0.18065295005E+04  0.77000000000E+02 0.  0.
<mgrwt>
<rscale>  0 0.22677442E+03</rscale>
<asrwt>0</asrwt>
<pdfrwt beam="1">  1        2 0.45605043E+00 0.22677442E+03</pdfrwt>
<pdfrwt beam="2">  1       -2 0.66724997E-03 0.22677442E+03</pdfrwt>
<totfact> 0.83857481E+03</totfact>
</mgrwt>
</event>
<event>
 4    1  0.1195463E-003  0.2481110E+03  0.7818608E-02  0.1114504E+00
          2   -1    0    0  501    0  0.00000000000E+00  0.00000000000E+00  0.68528316547E+03  0.68528316547E+03  0.25500000000E-02 0.  1.
         -2   -1    0    0    0  501 -0.00000000000E+00 -0.00000000000E+00 -0.22457534111E+02  0.22457534256E+02  0.25500000000E-02 0. -1.
    5000001    1    1    2    0    0 -0.69471792435E+02  0.66404230524E+02  0.37419279256E+03  0.39393539798E+03  0.77000000000E+02 0.  0.
   -5000001    1    1    2    0    0  0.69471792435E+02 -0.66404230524E+02  0.28863283880E+03  0.31380530175E+03  0.77000000000E+02 0.  0.
<mgrwt>
<rscale>  0 0.24811102E+03</rscale>
<asrwt>0</asrwt>
<pdfrwt beam="1">  1        2 0.10542817E+00 0.24811102E+03</pdfrwt>
<pdfrwt beam="2">  1       -2 0.34550054E-02 0.24811102E+03</pdfrwt>
<totfact> 0.14603084E+04</totfact>
</mgrwt>
</event>
<event>
 4    1  0.1195463E-003  0.3132390E+03  0.7818608E-02  0.1078804E+00
          2   -1    0    0  501    0  0.00000000000E+00  0.00000000000E+00  0.71331573293E+03  0.71331573293E+03  0.25500000000E-02 0.  1.
         -2   -1    0    0    0  501 -0.00000000000E+00 -0.00000000000E+00 -0.34388241514E+02  0.34388241608E+02  0.25500000000E-02 0. -1.
    5000001    1    1    2    0    0 -0.34591105563E+02  0.12982113141E+03  0.28345277610E+03  0.32299310678E+03  0.77000000000E+02 0.  0.
   -5000001    1    1    2    0    0  0.34591105563E+02 -0.12982113141E+03  0.39547471531E+03  0.42471086776E+03  0.77000000000E+02 0.  0.
<mgrwt>
<rscale>  0 0.31323904E+03</rscale>
<asrwt>0</asrwt>
<pdfrwt beam="1">  1        2 0.10974087E+00 0.31323904E+03</pdfrwt>
<pdfrwt beam="2">  1       -2 0.52904992E-02 0.31323904E+03</pdfrwt>
<totfact> 0.73704437E+03</totfact>
</mgrwt>
</event>
<event>
 4    1  0.1195463E-003  0.2145262E+03  0.7818608E-02  0.1138031E+00
          2   -1    0    0  501    0  0.00000000000E+00  0.00000000000E+00  0.75117942171E+03  0.75117942172E+03  0.25500000000E-02 0.  1.
         -2   -1    0    0    0  501 -0.00000000000E+00 -0.00000000000E+00 -0.15316410755E+02  0.15316410967E+02  0.25500000000E-02 0. -1.
    5000001    1    1    2    0    0 -0.23379082806E+02 -0.62442762508E+02  0.48807540493E+03  0.49859029373E+03  0.77000000000E+02 0.  0.
   -5000001    1    1    2    0    0  0.23379082806E+02  0.62442762508E+02  0.24778760603E+03  0.26790553896E+03  0.77000000000E+02 0.  0.
<mgrwt>
<rscale>  0 0.21452620E+03</rscale>
<asrwt>0</asrwt>
<pdfrwt beam="1">  1        2 0.11556608E+00 0.21452620E+03</pdfrwt>
<pdfrwt beam="2">  1       -2 0.23563707E-02 0.21452620E+03</pdfrwt>
<totfact> 0.22838309E+04</totfact>
</mgrwt>
</event>
<event>
 4    1  0.1195463E-003  0.3010186E+03  0.7818608E-02  0.1084733E+00
         -2   -1    0    0    0  501 -0.00000000000E+00  0.00000000000E+00  0.11835368460E+03  0.11835368463E+03  0.25500000000E-02 0. -1.
          2   -1    0    0  501    0  0.00000000000E+00 -0.00000000000E+00 -0.19140132858E+03  0.19140132860E+03  0.25500000000E-02 0.  1.
    5000001    1    1    2    0    0 -0.12060912038E+03 -0.45012653200E+02 -0.23864181161E+02  0.15189206039E+03  0.77000000000E+02 0.  0.
   -5000001    1    1    2    0    0  0.12060912038E+03  0.45012653200E+02 -0.49183462817E+02  0.15786295284E+03  0.77000000000E+02 0.  0.
<mgrwt>
<rscale>  0 0.30101862E+03</rscale>
<asrwt>0</asrwt>
<pdfrwt beam="1">  1        2 0.29446358E-01 0.30101862E+03</pdfrwt>
<pdfrwt beam="2">  1       -2 0.18208259E-01 0.30101862E+03</pdfrwt>
<totfact> 0.44110124E+03</totfact>
</mgrwt>
</event>
<event>
 4    1  0.1195463E-003  0.4881614E+03  0.7818608E-02  0.1016916E+00
          2   -1    0    0  501    0  0.00000000000E+00  0.00000000000E+00  0.12858064571E+04  0.12858064571E+04  0.25500000000E-02 0.  1.
         -2   -1    0    0    0  501 -0.00000000000E+00 -0.00000000000E+00 -0.46333082364E+02  0.46333082434E+02  0.25500000000E-02 0. -1.
    5000001    1    1    2    0    0  0.20721539974E+03 -0.90337337516E+01  0.90104488913E+03  0.92780963697E+03  0.77000000000E+02 0.  0.
   -5000001    1    1    2    0    0 -0.20721539974E+03  0.90337337516E+01  0.33842848560E+03  0.40432990256E+03  0.77000000000E+02 0.  0.
<mgrwt>
<rscale>  0 0.48816135E+03</rscale>
<asrwt>0</asrwt>
<pdfrwt beam="1">  1        2 0.19781635E+00 0.48816135E+03</pdfrwt>
<pdfrwt beam="2">  1       -2 0.71281674E-02 0.48816135E+03</pdfrwt>
<totfact> 0.20185699E+03</totfact>
</mgrwt>
</event>
<event>
 4    1  0.1195463E-003  0.2398553E+03  0.7818608E-02  0.1119889E+00
         -2   -1    0    0    0  501 -0.00000000000E+00  0.00000000000E+00  0.58883834385E+01  0.58883839906E+01  0.25500000000E-02 0. -1.
          2   -1    0    0  501    0  0.00000000000E+00 -0.00000000000E+00 -0.24425447565E+04  0.24425447565E+04  0.25500000000E-02 0.  1.
    5000001    1    1    2    0    0  0.37860505595E+02  0.83751913003E+02 -0.11936596352E+04  0.11996666727E+04  0.77000000000E+02 0.  0.
   -5000001    1    1    2    0    0 -0.37860505595E+02 -0.83751913003E+02 -0.12429967378E+04  0.12487664678E+04  0.77000000000E+02 0.  0.
<mgrwt>
<rscale>  0 0.23985530E+03</rscale>
<asrwt>0</asrwt>
<pdfrwt beam="1">  1        2 0.37577531E+00 0.23985530E+03</pdfrwt>
<pdfrwt beam="2">  1       -2 0.90590714E-03 0.23985530E+03</pdfrwt>
<totfact> 0.10595301E+04</totfact>
</mgrwt>
</event>
<event>
 4    1  0.1195463E-003  0.2238397E+03  0.7818608E-02  0.1131052E+00
          2   -1    0    0  501    0  0.00000000000E+00  0.00000000000E+00  0.59489186216E+03  0.59489186216E+03  0.25500000000E-02 0.  1.
         -2   -1    0    0    0  501 -0.00000000000E+00 -0.00000000000E+00 -0.21056020579E+02  0.21056020734E+02  0.25500000000E-02 0. -1.
    5000001    1    1    2    0    0  0.58706303704E+02 -0.55543148425E+02  0.30920255240E+03  0.32873498421E+03  0.77000000000E+02 0.  0.
   -5000001    1    1    2    0    0 -0.58706303704E+02  0.55543148425E+02  0.26463328917E+03  0.28721289868E+03  0.77000000000E+02 0.  0.
<mgrwt>
<rscale>  0 0.22383972E+03</rscale>
<asrwt>0</asrwt>
<pdfrwt beam="1">  1        2 0.91521828E-01 0.22383972E+03</pdfrwt>
<pdfrwt beam="2">  1       -2 0.32393877E-02 0.22383972E+03</pdfrwt>
<totfact> 0.18880888E+04</totfact>
</mgrwt>
</event>
<event>
 4    1  0.1195463E-003  0.2163575E+03  0.7818608E-02  0.1136628E+00
          2   -1    0    0  501    0  0.00000000000E+00  0.00000000000E+00  0.14012377283E+04  0.14012377284E+04  0.25500000000E-02 0.  1.
         -2   -1    0    0    0  501 -0.00000000000E+00 -0.00000000000E+00 -0.83516434504E+01  0.83516438397E+01  0.25500000000E-02 0. -1.
    5000001    1    1    2    0    0 -0.37420166953E+01 -0.71841240363E+02  0.53705984709E+03  0.54730014239E+03  0.77000000000E+02 0.  0.
   -5000001    1    1    2    0    0  0.37420166953E+01  0.71841240363E+02  0.85582623781E+03  0.86228922980E+03  0.77000000000E+02 0.  0.
<mgrwt>
<rscale>  0 0.21635747E+03</rscale>
<asrwt>0</asrwt>
<pdfrwt beam="1">  1        2 0.21557496E+00 0.21635747E+03</pdfrwt>
<pdfrwt beam="2">  1       -2 0.12848687E-02 0.21635747E+03</pdfrwt>
<totfact> 0.22559924E+04</totfact>
</mgrwt>
</event>
<event>
 4    1  0.1195463E-003  0.2747504E+03  0.7818608E-02  0.1098591E+00
          2   -1    0    0  501    0  0.00000000000E+00  0.00000000000E+00  0.54206673413E+02  0.54206673473E+02  0.25500000000E-02 0.  1.
         -2   -1    0    0    0  501 -0.00000000000E+00 -0.00000000000E+00 -0.34814812317E+03  0.34814812318E+03  0.25500000000E-02 0. -1.
    5000001    1    1    2    0    0 -0.73297741132E+02 -0.75765799988E+02 -0.84325385126E+02  0.15541166584E+03  0.77000000000E+02 0.  0.
   -5000001    1    1    2    0    0  0.73297741132E+02  0.75765799988E+02 -0.20961606463E+03  0.24694313081E+03  0.77000000000E+02 0.  0.
<mgrwt>
<rscale>  0 0.27475044E+03</rscale>
<asrwt>0</asrwt>
<pdfrwt beam="1">  1        2 0.83394884E-02 0.27475044E+03</pdfrwt>
<pdfrwt beam="2">  1       -2 0.53561248E-01 0.27475044E+03</pdfrwt>
<totfact> 0.26855515E+03</totfact>
</mgrwt>
</event>
<event>
 4    1  0.1195463E-003  0.1652221E+03  0.7818608E-02  0.1182924E+00
         -2   -1    0    0    0  501 -0.00000000000E+00  0.00000000000E+00  0.39602424407E+03  0.39602424408E+03  0.25500000000E-02 0. -1.
          2   -1    0    0  501    0  0.00000000000E+00 -0.00000000000E+00 -0.17232751530E+02  0.17232751719E+02  0.25500000000E-02 0.  1.
    5000001    1    1    2    0    0  0.25688014735E+02  0.70767365165E+01  0.22347419132E+03  0.23786481136E+03  0.77000000000E+02 0.  0.
   -5000001    1    1    2    0    0 -0.25688014735E+02 -0.70767365165E+01  0.15531730122E+03  0.17539218443E+03  0.77000000000E+02 0.  0.
<mgrwt>
<rscale>  0 0.16522212E+03</rscale>
<asrwt>0</asrwt>
<pdfrwt beam="1">  1        2 0.26511926E-02 0.16522212E+03</pdfrwt>
<pdfrwt beam="2">  1       -2 0.60926805E-01 0.16522212E+03</pdfrwt>
<totfact> 0.90835960E+03</totfact>
</mgrwt>
</event>
<event>
 4    1  0.1195463E-003  0.2341466E+03  0.7818608E-02  0.1123755E+00
         -2   -1    0    0    0  501 -0.00000000000E+00  0.00000000000E+00  0.76949942301E+02  0.76949942343E+02  0.25500000000E-02 0. -1.
          2   -1    0    0  501    0  0.00000000000E+00 -0.00000000000E+00 -0.17811786863E+03  0.17811786865E+03  0.25500000000E-02 0.  1.
    5000001    1    1    2    0    0  0.66609822825E+02  0.39286073327E+02 -0.44065930007E+01  0.10921850629E+03  0.77000000000E+02 0.  0.
   -5000001    1    1    2    0    0 -0.66609822825E+02 -0.39286073327E+02 -0.96761333328E+02  0.14584930470E+03  0.77000000000E+02 0.  0.
<mgrwt>
<rscale>  0 0.23414662E+03</rscale>
<asrwt>0</asrwt>
<pdfrwt beam="1">  1        2 0.27402749E-01 0.23414662E+03</pdfrwt>
<pdfrwt beam="2">  1       -2 0.11838453E-01 0.23414662E+03</pdfrwt>
<totfact> 0.96149343E+03</totfact>
</mgrwt>
</event>
<event>
 4    1  0.1195463E-003  0.2259225E+03  0.7818608E-02  0.1129543E+00
         -2   -1    0    0    0  501 -0.00000000000E+00  0.00000000000E+00  0.52478861346E+02  0.52478861408E+02  0.25500000000E-02 0. -1.
          2   -1    0    0  501    0  0.00000000000E+00 -0.00000000000E+00 -0.24315022087E+03  0.24315022088E+03  0.25500000000E-02 0.  1.
    5000001    1    1    2    0    0 -0.76299816483E+02 -0.28767500119E+02 -0.11298963513E+03  0.15920078111E+03  0.77000000000E+02 0.  0.
   -5000001    1    1    2    0    0  0.76299816483E+02  0.28767500119E+02 -0.77681724387E+02  0.13642830118E+03  0.77000000000E+02 0.  0.
<mgrwt>
<rscale>  0 0.22592252E+03</rscale>
<asrwt>0</asrwt>
<pdfrwt beam="1">  1        2 0.37407726E-01 0.22592252E+03</pdfrwt>
<pdfrwt beam="2">  1       -2 0.80736711E-02 0.22592252E+03</pdfrwt>
<totfact> 0.12528232E+04</totfact>
</mgrwt>
</event>
<event>
 4    1  0.1195463E-003  0.2622750E+03  0.7818608E-02  0.1105784E+00
          2   -1    0    0  501    0  0.00000000000E+00  0.00000000000E+00  0.12454357821E+04  0.12454357821E+04  0.25500000000E-02 0.  1.
         -2   -1    0    0    0  501 -0.00000000000E+00 -0.00000000000E+00 -0.13808057575E+02  0.13808057811E+02  0.25500000000E-02 0. -1.
    5000001    1    1    2    0    0  0.86168500490E+02  0.54348845862E+02  0.47264032262E+03  0.48958827813E+03  0.77000000000E+02 0.  0.
   -5000001    1    1    2    0    0 -0.86168500490E+02 -0.54348845862E+02  0.75898740194E+03  0.76965556181E+03  0.77000000000E+02 0.  0.
<mgrwt>
<rscale>  0 0.26227504E+03</rscale>
<asrwt>0</asrwt>
<pdfrwt beam="1">  1        2 0.19160539E+00 0.26227504E+03</pdfrwt>
<pdfrwt beam="2">  1       -2 0.21243179E-02 0.26227504E+03</pdfrwt>
<totfact> 0.13277775E+04</totfact>
</mgrwt>
</event>
<event>
 4    1  0.1195463E-003  0.6984131E+03  0.7818608E-02  0.9719950E-01
          2   -1    0    0  501    0  0.00000000000E+00  0.00000000000E+00  0.60721195362E+03  0.60721195362E+03  0.25500000000E-02 0.  1.
         -2   -1    0    0    0  501 -0.00000000000E+00 -0.00000000000E+00 -0.20082806816E+03  0.20082806818E+03  0.25500000000E-02 0. -1.
    5000001    1    1    2    0    0 -0.25153725985E+03  0.19219239783E+03  0.34865384493E+03  0.47717650242E+03  0.77000000000E+02 0.  0.
   -5000001    1    1    2    0    0  0.25153725985E+03 -0.19219239783E+03  0.57730040529E+02  0.33086351938E+03  0.77000000000E+02 0.  0.
<mgrwt>
<rscale>  0 0.69841307E+03</rscale>
<asrwt>0</asrwt>
<pdfrwt beam="1">  1        2 0.93417223E-01 0.69841307E+03</pdfrwt>
<pdfrwt beam="2">  1       -2 0.30896626E-01 0.69841307E+03</pdfrwt>
<totfact> 0.47730256E+02</totfact>
</mgrwt>
</event>
<event>
 4    1  0.1195463E-003  0.2757868E+03  0.7818608E-02  0.1098013E+00
         -2   -1    0    0    0  501 -0.00000000000E+00  0.00000000000E+00  0.30056944545E+03  0.30056944546E+03  0.25500000000E-02 0. -1.
          2   -1    0    0  501    0  0.00000000000E+00 -0.00000000000E+00 -0.63261880160E+02  0.63261880211E+02  0.25500000000E-02 0.  1.
    5000001    1    1    2    0    0 -0.69259533482E+02 -0.87371267552E+02  0.84891150324E+02  0.15989411739E+03  0.77000000000E+02 0.  0.
   -5000001    1    1    2    0    0  0.69259533482E+02  0.87371267552E+02  0.15241641497E+03  0.20393720828E+03  0.77000000000E+02 0.  0.
<mgrwt>
<rscale>  0 0.27578679E+03</rscale>
<asrwt>0</asrwt>
<pdfrwt beam="1">  1        2 0.97325972E-02 0.27578679E+03</pdfrwt>
<pdfrwt beam="2">  1       -2 0.46241452E-01 0.27578679E+03</pdfrwt>
<totfact> 0.29649987E+03</totfact>
</mgrwt>
</event>
<event>
 4    1  0.1195463E-003  0.1898996E+03  0.7818608E-02  0.1158552E+00
          2   -1    0    0  501    0  0.00000000000E+00  0.00000000000E+00  0.25995401468E+01  0.25995413975E+01  0.25500000000E-02 0.  1.
         -2   -1    0    0    0  501 -0.00000000000E+00 -0.00000000000E+00 -0.34680999548E+04  0.34680999548E+04  0.25500000000E-02 0. -1.
    5000001    1    1    2    0    0  0.46667741843E+02  0.30138473633E+02 -0.17420965583E+04  0.17446820983E+04  0.77000000000E+02 0.  0.
   -5000001    1    1    2    0    0 -0.46667741843E+02 -0.30138473633E+02 -0.17234038564E+04  0.17260173980E+04  0.77000000000E+02 0.  0.
<mgrwt>
<rscale>  0 0.18989963E+03</rscale>
<asrwt>0</asrwt>
<pdfrwt beam="1">  1        2 0.39993212E-03 0.18989963E+03</pdfrwt>
<pdfrwt beam="2">  1       -2 0.53355014E+00 0.18989963E+03</pdfrwt>
<totfact> 0.65939124E+01</totfact>
</mgrwt>
</event>
<event>
 4    1  0.1195463E-003  0.6368930E+03  0.7818608E-02  0.9831689E-01
          2   -1    0    0  501    0  0.00000000000E+00  0.00000000000E+00  0.21242620894E+04  0.21242620894E+04  0.25500000000E-02 0.  1.
         -2   -1    0    0    0  501 -0.00000000000E+00 -0.00000000000E+00 -0.47738067915E+02  0.47738067983E+02  0.25500000000E-02 0. -1.
    5000001    1    1    2    0    0 -0.53403186337E+02 -0.29089162487E+03  0.13434669014E+04  0.13777888637E+04  0.77000000000E+02 0.  0.
   -5000001    1    1    2    0    0  0.53403186337E+02  0.29089162487E+03  0.73305712006E+03  0.79421129367E+03  0.77000000000E+02 0.  0.
<mgrwt>
<rscale>  0 0.63689298E+03</rscale>
<asrwt>0</asrwt>
<pdfrwt beam="1">  1        2 0.32680955E+00 0.63689298E+03</pdfrwt>
<pdfrwt beam="2">  1       -2 0.73443183E-02 0.63689298E+03</pdfrwt>
<totfact> 0.66485449E+02</totfact>
</mgrwt>
</event>
<event>
 4    1  0.1195463E-003  0.2416823E+03  0.7818608E-02  0.1118677E+00
         -2   -1    0    0    0  501 -0.00000000000E+00  0.00000000000E+00  0.37206159497E+02  0.37206159585E+02  0.25500000000E-02 0. -1.
          2   -1    0    0  501    0  0.00000000000E+00 -0.00000000000E+00 -0.39247773668E+03  0.39247773669E+03  0.25500000000E-02 0.  1.
    5000001    1    1    2    0    0  0.81192864114E+02  0.24986482284E+01 -0.96647917111E+02  0.14787949252E+03  0.77000000000E+02 0.  0.
   -5000001    1    1    2    0    0 -0.81192864114E+02 -0.24986482284E+01 -0.25862366008E+03  0.28180440376E+03  0.77000000000E+02 0.  0.
<mgrwt>
<rscale>  0 0.24168235E+03</rscale>
<asrwt>0</asrwt>
<pdfrwt beam="1">  1        2 0.60381188E-01 0.24168235E+03</pdfrwt>
<pdfrwt beam="2">  1       -2 0.57240248E-02 0.24168235E+03</pdfrwt>
<totfact> 0.12774572E+04</totfact>
</mgrwt>
</event>
<event>
 4    1  0.1195463E-003  0.2614966E+03  0.7818608E-02  0.1106247E+00
          2   -1    0    0  501    0  0.00000000000E+00  0.00000000000E+00  0.16307446381E+02  0.16307446580E+02  0.25500000000E-02 0.  1.
         -2   -1    0    0    0  501 -0.00000000000E+00 -0.00000000000E+00 -0.10483012195E+04  0.10483012195E+04  0.25500000000E-02 0. -1.
    5000001    1    1    2    0    0 -0.70217509534E+02  0.65390306595E+02 -0.33576917727E+03  0.35759800230E+03  0.77000000000E+02 0.  0.
   -5000001    1    1    2    0    0  0.70217509534E+02 -0.65390306595E+02 -0.69622459583E+03  0.70701066377E+03  0.77000000000E+02 0.  0.
<mgrwt>
<rscale>  0 0.26149659E+03</rscale>
<asrwt>0</asrwt>
<pdfrwt beam="1">  1        2 0.25088387E-02 0.26149659E+03</pdfrwt>
<pdfrwt beam="2">  1       -2 0.16127706E+00 0.26149659E+03</pdfrwt>
<totfact> 0.10481076E+03</totfact>
</mgrwt>
</event>
<event>
 4    1  0.1195463E-003  0.4626477E+03  0.7818608E-02  0.1024016E+00
          2   -1    0    0  501    0  0.00000000000E+00  0.00000000000E+00  0.23170637729E+03  0.23170637730E+03  0.25500000000E-02 0.  1.
         -2   -1    0    0    0  501 -0.00000000000E+00 -0.00000000000E+00 -0.23094198833E+03  0.23094198835E+03  0.25500000000E-02 0. -1.
    5000001    1    1    2    0    0  0.19053317298E+03  0.58329156349E+02 -0.88367861878E+02  0.23117754973E+03  0.77000000000E+02 0.  0.
   -5000001    1    1    2    0    0 -0.19053317298E+03 -0.58329156349E+02  0.89132250836E+02  0.23147081592E+03  0.77000000000E+02 0.  0.
<mgrwt>
<rscale>  0 0.46264773E+03</rscale>
<asrwt>0</asrwt>
<pdfrwt beam="1">  1        2 0.35647135E-01 0.46264773E+03</pdfrwt>
<pdfrwt beam="2">  1       -2 0.35529537E-01 0.46264773E+03</pdfrwt>
<totfact> 0.10901908E+03</totfact>
</mgrwt>
</event>
<event>
 4    1  0.1195463E-003  0.2773286E+03  0.7818608E-02  0.1097157E+00
          2   -1    0    0  501    0  0.00000000000E+00  0.00000000000E+00  0.76921235833E+03  0.76921235834E+03  0.25500000000E-02 0.  1.
         -2   -1    0    0    0  501 -0.00000000000E+00 -0.00000000000E+00 -0.24996717516E+02  0.24996717646E+02  0.25500000000E-02 0. -1.
    5000001    1    1    2    0    0  0.22772882037E+02 -0.11026975502E+03  0.44345921461E+03  0.46396454395E+03  0.77000000000E+02 0.  0.
   -5000001    1    1    2    0    0 -0.22772882037E+02  0.11026975502E+03  0.30075642621E+03  0.33024453203E+03  0.77000000000E+02 0.  0.
<mgrwt>
<rscale>  0 0.27732857E+03</rscale>
<asrwt>0</asrwt>
<pdfrwt beam="1">  1        2 0.11834037E+00 0.27732857E+03</pdfrwt>
<pdfrwt beam="2">  1       -2 0.38456485E-02 0.27732857E+03</pdfrwt>
<totfact> 0.10843829E+04</totfact>
</mgrwt>
</event>
<event>
 4    1  0.1195463E-003  0.1940619E+03  0.7818608E-02  0.1154848E+00
         -2   -1    0    0    0  501 -0.00000000000E+00  0.00000000000E+00  0.15285136968E+02  0.15285137181E+02  0.25500000000E-02 0.  1.
          2   -1    0    0  501    0  0.00000000000E+00 -0.00000000000E+00 -0.61595834181E+03  0.61595834181E+03  0.25500000000E-02 0. -1.
    5000001    1    1    2    0    0  0.54116646166E+02  0.84602059877E+01 -0.22864062227E+03  0.24739789941E+03  0.77000000000E+02 0.  0.
   -5000001    1    1    2    0    0 -0.54116646166E+02 -0.84602059877E+01 -0.37203258257E+03  0.38384557959E+03  0.77000000000E+02 0.  0.
<mgrwt>
<rscale>  0 0.19406193E+03</rscale>
<asrwt>0</asrwt>
<pdfrwt beam="1">  1        2 0.94762803E-01 0.19406193E+03</pdfrwt>
<pdfrwt beam="2">  1       -2 0.23515600E-02 0.19406193E+03</pdfrwt>
<totfact> 0.28831158E+04</totfact>
</mgrwt>
</event>
<event>
 4    1  0.1195463E-003  0.2012375E+03  0.7818608E-02  0.1148699E+00
         -2   -1    0    0    0  501 -0.00000000000E+00  0.00000000000E+00  0.48391130885E+02  0.48391130952E+02  0.25500000000E-02 0. -1.
          2   -1    0    0  501    0  0.00000000000E+00 -0.00000000000E+00 -0.20921464711E+03  0.20921464712E+03  0.25500000000E-02 0.  1.
    5000001    1    1    2    0    0  0.22377021953E+02  0.50423891004E+02 -0.12385693055E+03  0.15592574881E+03  0.77000000000E+02 0.  0.
   -5000001    1    1    2    0    0 -0.22377021953E+02 -0.50423891004E+02 -0.36966585670E+02  0.10168002927E+03  0.77000000000E+02 0.  0.
<mgrwt>
<rscale>  0 0.20123751E+03</rscale>
<asrwt>0</asrwt>
<pdfrwt beam="1">  1        2 0.32186868E-01 0.20123751E+03</pdfrwt>
<pdfrwt beam="2">  1       -2 0.74447895E-02 0.20123751E+03</pdfrwt>
<totfact> 0.16593780E+04</totfact>
</mgrwt>
</event>
<event>
 4    1  0.1195463E-003  0.1766262E+03  0.7818608E-02  0.1171109E+00
          2   -1    0    0  501    0  0.00000000000E+00  0.00000000000E+00  0.77737314532E+03  0.77737314533E+03  0.25500000000E-02 0.  1.
         -2   -1    0    0    0  501 -0.00000000000E+00 -0.00000000000E+00 -0.10032763349E+02  0.10032763673E+02  0.25500000000E-02 0. -1.
    5000001    1    1    2    0    0 -0.41817174657E+02  0.11010712163E+02  0.38127339545E+03  0.39136723670E+03  0.77000000000E+02 0.  0.
   -5000001    1    1    2    0    0  0.41817174657E+02 -0.11010712163E+02  0.38606698652E+03  0.39603867230E+03  0.77000000000E+02 0.  0.
<mgrwt>
<rscale>  0 0.17662617E+03</rscale>
<asrwt>0</asrwt>
<pdfrwt beam="1">  1        2 0.11959588E+00 0.17662617E+03</pdfrwt>
<pdfrwt beam="2">  1       -2 0.15435019E-02 0.17662617E+03</pdfrwt>
<totfact> 0.40023640E+04</totfact>
</mgrwt>
</event>
<event>
 4    1  0.1195463E-003  0.4132637E+03  0.7818608E-02  0.1039281E+00
          2   -1    0    0  501    0  0.00000000000E+00  0.00000000000E+00  0.43200718368E+03  0.43200718369E+03  0.25500000000E-02 0.  1.
         -2   -1    0    0    0  501 -0.00000000000E+00 -0.00000000000E+00 -0.98833383390E+02  0.98833383423E+02  0.25500000000E-02 0. -1.
    5000001    1    1    2    0    0 -0.30143426098E+01 -0.15624728319E+03  0.30930857591E+03  0.35499731674E+03  0.77000000000E+02 0.  0.
   -5000001    1    1    2    0    0  0.30143426098E+01  0.15624728319E+03  0.23865224384E+02  0.17584325037E+03  0.77000000000E+02 0.  0.
<mgrwt>
<rscale>  0 0.41326375E+03</rscale>
<asrwt>0</asrwt>
<pdfrwt beam="1">  1        2 0.66462643E-01 0.41326375E+03</pdfrwt>
<pdfrwt beam="2">  1       -2 0.15205136E-01 0.41326375E+03</pdfrwt>
<totfact> 0.24694010E+03</totfact>
</mgrwt>
</event>
<event>
 4    1  0.1195463E-003  0.2905256E+03  0.7818608E-02  0.1090075E+00
          2   -1    0    0  501    0  0.00000000000E+00  0.00000000000E+00  0.97965670377E+02  0.97965670410E+02  0.25500000000E-02 0.  1.
         -2   -1    0    0    0  501 -0.00000000000E+00 -0.00000000000E+00 -0.21539471722E+03  0.21539471724E+03  0.25500000000E-02 0. -1.
    5000001    1    1    2    0    0 -0.13531110256E+02  0.84454550162E+02  0.36889827154E+02  0.12085330502E+03  0.77000000000E+02 0.  0.
   -5000001    1    1    2    0    0  0.13531110256E+02 -0.84454550162E+02 -0.15431887400E+03  0.19250708262E+03  0.77000000000E+02 0.  0.
<mgrwt>
<rscale>  0 0.29052565E+03</rscale>
<asrwt>0</asrwt>
<pdfrwt beam="1">  1        2 0.15071642E-01 0.29052565E+03</pdfrwt>
<pdfrwt beam="2">  1       -2 0.33137649E-01 0.29052565E+03</pdfrwt>
<totfact> 0.32896482E+03</totfact>
</mgrwt>
</event>
<event>
 4    1  0.1195463E-003  0.3690980E+03  0.7818608E-02  0.1055038E+00
          2   -1    0    0  501    0  0.00000000000E+00  0.00000000000E+00  0.32875750320E+03  0.32875750321E+03  0.25500000000E-02 0.  1.
         -2   -1    0    0    0  501 -0.00000000000E+00 -0.00000000000E+00 -0.10359710439E+03  0.10359710442E+03  0.25500000000E-02 0. -1.
    5000001    1    1    2    0    0 -0.15203601072E+03 -0.48844114850E+02  0.17263712842E+03  0.24745357993E+03  0.77000000000E+02 0.  0.
   -5000001    1    1    2    0    0  0.15203601072E+03  0.48844114850E+02  0.52523270390E+02  0.18490102770E+03  0.77000000000E+02 0.  0.
<mgrwt>
<rscale>  0 0.36909796E+03</rscale>
<asrwt>0</asrwt>
<pdfrwt beam="1">  1        2 0.50578077E-01 0.36909796E+03</pdfrwt>
<pdfrwt beam="2">  1       -2 0.15938016E-01 0.36909796E+03</pdfrwt>
<totfact> 0.30755963E+03</totfact>
</mgrwt>
</event>
<event>
 4    1  0.1195463E-003  0.2894385E+03  0.7818608E-02  0.1090643E+00
         -2   -1    0    0    0  501 -0.00000000000E+00  0.00000000000E+00  0.32264907918E+02  0.32264908019E+02  0.25500000000E-02 0. -1.
          2   -1    0    0  501    0  0.00000000000E+00 -0.00000000000E+00 -0.64911566845E+03  0.64911566846E+03  0.25500000000E-02 0.  1.
    5000001    1    1    2    0    0 -0.15490557827E+02  0.73560677204E+02 -0.80625643116E+02  0.13446421435E+03  0.77000000000E+02 0.  0.
   -5000001    1    1    2    0    0  0.15490557827E+02 -0.73560677204E+02 -0.53622511742E+03  0.54691636213E+03  0.77000000000E+02 0.  0.
<mgrwt>
<rscale>  0 0.28943847E+03</rscale>
<asrwt>0</asrwt>
<pdfrwt beam="1">  1        2 0.99863939E-01 0.28943847E+03</pdfrwt>
<pdfrwt beam="2">  1       -2 0.49638325E-02 0.28943847E+03</pdfrwt>
<totfact> 0.90818800E+03</totfact>
</mgrwt>
</event>
<event>
 4    1  0.1195463E-003  0.1966265E+03  0.7818608E-02  0.1152617E+00
         -2   -1    0    0    0  501 -0.00000000000E+00  0.00000000000E+00  0.23327001817E+02  0.23327001956E+02  0.25500000000E-02 0. -1.
          2   -1    0    0  501    0  0.00000000000E+00 -0.00000000000E+00 -0.41434789551E+03  0.41434789552E+03  0.25500000000E-02 0.  1.
    5000001    1    1    2    0    0  0.44597207677E+02  0.35513604008E+02 -0.14642059455E+03  0.17498033464E+03  0.77000000000E+02 0.  0.
   -5000001    1    1    2    0    0 -0.44597207677E+02 -0.35513604008E+02 -0.24460029914E+03  0.26269456283E+03  0.77000000000E+02 0.  0.
<mgrwt>
<rscale>  0 0.19662649E+03</rscale>
<asrwt>0</asrwt>
<pdfrwt beam="1">  1        2 0.63745825E-01 0.19662649E+03</pdfrwt>
<pdfrwt beam="2">  1       -2 0.35887698E-02 0.19662649E+03</pdfrwt>
<totfact> 0.24030545E+04</totfact>
</mgrwt>
</event>
<event>
 4    1  0.1195463E-003  0.2412360E+03  0.7818608E-02  0.1118972E+00
          2   -1    0    0  501    0  0.00000000000E+00  0.00000000000E+00  0.14026793144E+04  0.14026793144E+04  0.25500000000E-02 0.  1.
         -2   -1    0    0    0  501 -0.00000000000E+00 -0.00000000000E+00 -0.10372082821E+02  0.10372083135E+02  0.25500000000E-02 0. -1.
    5000001    1    1    2    0    0 -0.90080045285E+02 -0.14527710820E+02  0.79663014900E+03  0.80552719584E+03  0.77000000000E+02 0.  0.
   -5000001    1    1    2    0    0  0.90080045285E+02  0.14527710820E+02  0.59567708261E+03  0.60752420173E+03  0.77000000000E+02 0.  0.
<mgrwt>
<rscale>  0 0.24123604E+03</rscale>
<asrwt>0</asrwt>
<pdfrwt beam="1">  1        2 0.21579680E+00 0.24123604E+03</pdfrwt>
<pdfrwt beam="2">  1       -2 0.15957052E-02 0.24123604E+03</pdfrwt>
<totfact> 0.16505721E+04</totfact>
</mgrwt>
</event>
<event>
 4    1  0.1195463E-003  0.1961112E+03  0.7818608E-02  0.1153062E+00
          2   -1    0    0  501    0  0.00000000000E+00  0.00000000000E+00  0.20148566863E+03  0.20148566865E+03  0.25500000000E-02 0.  1.
         -2   -1    0    0    0  501 -0.00000000000E+00 -0.00000000000E+00 -0.47720041766E+02  0.47720041835E+02  0.25500000000E-02 0. -1.
    5000001    1    1    2    0    0  0.83501845994E+01  0.47296546733E+02  0.12407516180E+03  0.15372161426E+03  0.77000000000E+02 0.  0.
   -5000001    1    1    2    0    0 -0.83501845994E+01 -0.47296546733E+02  0.29690465069E+02  0.95484096224E+02  0.77000000000E+02 0.  0.
<mgrwt>
<rscale>  0 0.19611124E+03</rscale>
<asrwt>0</asrwt>
<pdfrwt beam="1">  1        2 0.30997795E-01 0.19611124E+03</pdfrwt>
<pdfrwt beam="2">  1       -2 0.73415449E-02 0.19611124E+03</pdfrwt>
<totfact> 0.17631732E+04</totfact>
</mgrwt>
</event>
<event>
 4    1  0.1195463E-003  0.2394490E+03  0.7818608E-02  0.1120160E+00
          2   -1    0    0  501    0  0.00000000000E+00  0.00000000000E+00  0.23551642936E+04  0.23551642936E+04  0.25500000000E-02 0.  1.
         -2   -1    0    0    0  501 -0.00000000000E+00 -0.00000000000E+00 -0.60861785347E+01  0.60861790689E+01  0.25500000000E-02 0. -1.
    5000001    1    1    2    0    0 -0.38275552219E+02  0.82315031674E+02  0.10481893511E+04  0.10549268686E+04  0.77000000000E+02 0.  0.
   -5000001    1    1    2    0    0  0.38275552219E+02 -0.82315031674E+02  0.13008887640E+04  0.13063236041E+04  0.77000000000E+02 0.  0.
<mgrwt>
<rscale>  0 0.23944896E+03</rscale>
<asrwt>0</asrwt>
<pdfrwt beam="1">  1        2 0.36233273E+00 0.23944896E+03</pdfrwt>
<pdfrwt beam="2">  1       -2 0.93633583E-03 0.23944896E+03</pdfrwt>
<totfact> 0.11258028E+04</totfact>
</mgrwt>
</event>
<event>
 4    1  0.1195463E-003  0.1677162E+03  0.7818608E-02  0.1180251E+00
         -2   -1    0    0    0  501 -0.00000000000E+00  0.00000000000E+00  0.10603372935E+03  0.10603372938E+03  0.25500000000E-02 0. -1.
          2   -1    0    0  501    0  0.00000000000E+00 -0.00000000000E+00 -0.66320256744E+02  0.66320256793E+02  0.25500000000E-02 0.  1.
    5000001    1    1    2    0    0 -0.20101244864E+02  0.21129762578E+02  0.35220010394E+01  0.82413174936E+02  0.77000000000E+02 0.  0.
   -5000001    1    1    2    0    0  0.20101244864E+02 -0.21129762578E+02  0.36191471563E+02  0.89940811235E+02  0.77000000000E+02 0.  0.
<mgrwt>
<rscale>  0 0.16771624E+03</rscale>
<asrwt>0</asrwt>
<pdfrwt beam="1">  1        2 0.10203116E-01 0.16771624E+03</pdfrwt>
<pdfrwt beam="2">  1       -2 0.16312881E-01 0.16771624E+03</pdfrwt>
<totfact> 0.17597135E+04</totfact>
</mgrwt>
</event>
<event>
 4    1  0.1195463E-003  0.1759938E+03  0.7818608E-02  0.1171738E+00
          2   -1    0    0  501    0  0.00000000000E+00  0.00000000000E+00  0.17589087089E+04  0.17589087089E+04  0.25500000000E-02 0.  1.
         -2   -1    0    0    0  501 -0.00000000000E+00 -0.00000000000E+00 -0.44024193866E+01  0.44024201251E+01  0.25500000000E-02 0. -1.
    5000001    1    1    2    0    0 -0.41091176477E+02 -0.70509650921E+01  0.96474379367E+03  0.96870934151E+03  0.77000000000E+02 0.  0.
   -5000001    1    1    2    0    0  0.41091176477E+02  0.70509650921E+01  0.78976249581E+03  0.79460178749E+03  0.77000000000E+02 0.  0.
<mgrwt>
<rscale>  0 0.17599380E+03</rscale>
<asrwt>0</asrwt>
<pdfrwt beam="1">  1        2 0.27060113E+00 0.17599380E+03</pdfrwt>
<pdfrwt beam="2">  1       -2 0.67729586E-03 0.17599380E+03</pdfrwt>
<totfact> 0.36391420E+04</totfact>
</mgrwt>
</event>
<event>
 4    1  0.1195463E-003  0.3123057E+03  0.7818608E-02  0.1079246E+00
          2   -1    0    0  501    0  0.00000000000E+00  0.00000000000E+00  0.18903209280E+02  0.18903209452E+02  0.25500000000E-02 0.  1.
         -2   -1    0    0    0  501 -0.00000000000E+00 -0.00000000000E+00 -0.12899244504E+04  0.12899244504E+04  0.25500000000E-02 0. -1.
    5000001    1    1    2    0    0  0.27878347145E+02  0.13062175387E+03 -0.73947988979E+03  0.75537987280E+03  0.77000000000E+02 0.  0.
   -5000001    1    1    2    0    0 -0.27878347145E+02 -0.13062175387E+03 -0.53154135129E+03  0.55344778702E+03  0.77000000000E+02 0.  0.
<mgrwt>
<rscale>  0 0.31230570E+03</rscale>
<asrwt>0</asrwt>
<pdfrwt beam="1">  1        2 0.29081871E-02 0.31230570E+03</pdfrwt>
<pdfrwt beam="2">  1       -2 0.19844985E+00 0.31230570E+03</pdfrwt>
<totfact> 0.48311865E+02</totfact>
</mgrwt>
</event>
<event>
 4    1  0.1195463E-003  0.3182085E+03  0.7818608E-02  0.1076477E+00
         -2   -1    0    0    0  501 -0.00000000000E+00  0.00000000000E+00  0.24660331473E+02  0.24660331605E+02  0.25500000000E-02 0. -1.
          2   -1    0    0  501    0  0.00000000000E+00 -0.00000000000E+00 -0.10265137142E+04  0.10265137142E+04  0.25500000000E-02 0.  1.
    5000001    1    1    2    0    0  0.13201186844E+03  0.39911496542E+02 -0.56404759579E+03  0.58574631991E+03  0.77000000000E+02 0.  0.
   -5000001    1    1    2    0    0 -0.13201186844E+03 -0.39911496542E+02 -0.43780578692E+03  0.46542772589E+03  0.77000000000E+02 0.  0.
<mgrwt>
<rscale>  0 0.31820854E+03</rscale>
<asrwt>0</asrwt>
<pdfrwt beam="1">  1        2 0.15792515E+00 0.31820854E+03</pdfrwt>
<pdfrwt beam="2">  1       -2 0.37938980E-02 0.31820854E+03</pdfrwt>
<totfact> 0.75479039E+03</totfact>
</mgrwt>
</event>
<event>
 4    1  0.1195463E-003  0.2443095E+03  0.7818608E-02  0.1116955E+00
         -2   -1    0    0    0  501 -0.00000000000E+00  0.00000000000E+00  0.68364786241E+01  0.68364790997E+01  0.25500000000E-02 0. -1.
          2   -1    0    0  501    0  0.00000000000E+00 -0.00000000000E+00 -0.21826715160E+04  0.21826715160E+04  0.25500000000E-02 0.  1.
    5000001    1    1    2    0    0  0.75195364487E+02  0.34675866256E+02 -0.15021171410E+04  0.15063670415E+04  0.77000000000E+02 0.  0.
   -5000001    1    1    2    0    0 -0.75195364487E+02 -0.34675866256E+02 -0.67371789642E+03  0.68314095360E+03  0.77000000000E+02 0.  0.
<mgrwt>
<rscale>  0 0.24430954E+03</rscale>
<asrwt>0</asrwt>
<pdfrwt beam="1">  1        2 0.33579506E+00 0.24430954E+03</pdfrwt>
<pdfrwt beam="2">  1       -2 0.10517677E-02 0.24430954E+03</pdfrwt>
<totfact> 0.11758212E+04</totfact>
</mgrwt>
</event>
<event>
 4    1  0.1195463E-003  0.3480458E+03  0.7818608E-02  0.1063420E+00
         -2   -1    0    0    0  501 -0.00000000000E+00  0.00000000000E+00  0.12394942461E+02  0.12394942723E+02  0.25500000000E-02 0. -1.
          2   -1    0    0  501    0  0.00000000000E+00 -0.00000000000E+00 -0.24432523515E+04  0.24432523515E+04  0.25500000000E-02 0.  1.
    5000001    1    1    2    0    0  0.57983460706E+02  0.39296495833E+02 -0.21993822507E+04  0.22018441318E+04  0.77000000000E+02 0.  0.
   -5000001    1    1    2    0    0 -0.57983460706E+02 -0.39296495833E+02 -0.23147515836E+03  0.25380316239E+03  0.77000000000E+02 0.  0.
<mgrwt>
<rscale>  0 0.34804582E+03</rscale>
<asrwt>0</asrwt>
<pdfrwt beam="1">  1        2 0.37588459E+00 0.34804582E+03</pdfrwt>
<pdfrwt beam="2">  1       -2 0.19069162E-02 0.34804582E+03</pdfrwt>
<totfact> 0.35584060E+03</totfact>
</mgrwt>
</event>
<event>
 4    1  0.1195463E-003  0.2031486E+03  0.7818608E-02  0.1147109E+00
          2   -1    0    0  501    0  0.00000000000E+00  0.00000000000E+00  0.36549068808E+04  0.36549068808E+04  0.25500000000E-02 0.  1.
         -2   -1    0    0    0  501 -0.00000000000E+00 -0.00000000000E+00 -0.28228733579E+01  0.28228745097E+01  0.25500000000E-02 0. -1.
    5000001    1    1    2    0    0  0.65696478126E+02  0.27435983938E+01  0.19709662248E+04  0.19735654065E+04  0.77000000000E+02 0.  0.
   -5000001    1    1    2    0    0 -0.65696478126E+02 -0.27435983938E+01  0.16811177826E+04  0.16841643488E+04  0.77000000000E+02 0.  0.
<mgrwt>
<rscale>  0 0.20314863E+03</rscale>
<asrwt>0</asrwt>
<pdfrwt beam="1">  1        2 0.56229415E+00 0.20314863E+03</pdfrwt>
<pdfrwt beam="2">  1       -2 0.43428769E-03 0.20314863E+03</pdfrwt>
<totfact> 0.57038966E+03</totfact>
</mgrwt>
</event>
<event>
 4    1  0.1195463E-003  0.1822987E+03  0.7818608E-02  0.1165597E+00
          2   -1    0    0  501    0  0.00000000000E+00  0.00000000000E+00  0.22158685189E+03  0.22158685190E+03  0.25500000000E-02 0.  1.
         -2   -1    0    0    0  501 -0.00000000000E+00 -0.00000000000E+00 -0.37494131923E+02  0.37494132010E+02  0.25500000000E-02 0. -1.
    5000001    1    1    2    0    0 -0.99287420773E+01  0.27638245758E+02  0.14739532297E+03  0.16886928016E+03  0.77000000000E+02 0.  0.
   -5000001    1    1    2    0    0  0.99287420773E+01 -0.27638245758E+02  0.36697396992E+02  0.90211703752E+02  0.77000000000E+02 0.  0.
<mgrwt>
<rscale>  0 0.18229873E+03</rscale>
<asrwt>0</asrwt>
<pdfrwt beam="1">  1        2 0.34090284E-01 0.18229873E+03</pdfrwt>
<pdfrwt beam="2">  1       -2 0.57683281E-02 0.18229873E+03</pdfrwt>
<totfact> 0.22885250E+04</totfact>
</mgrwt>
</event>
<event>
 4    1  0.1195463E-003  0.5215649E+03  0.7818608E-02  0.1008299E+00
         -2   -1    0    0    0  501 -0.00000000000E+00  0.00000000000E+00  0.25630667231E+03  0.25630667233E+03  0.25500000000E-02 0. -1.
          2   -1    0    0  501    0  0.00000000000E+00 -0.00000000000E+00 -0.26533641255E+03  0.26533641257E+03  0.25500000000E-02 0.  1.
    5000001    1    1    2    0    0 -0.19167251544E+03  0.67817908006E+02  0.13952362418E+03  0.25832820893E+03  0.77000000000E+02 0.  0.
   -5000001    1    1    2    0    0  0.19167251544E+03 -0.67817908006E+02 -0.14855336442E+03  0.26331487596E+03  0.77000000000E+02 0.  0.
<mgrwt>
<rscale>  0 0.52156493E+03</rscale>
<asrwt>0</asrwt>
<pdfrwt beam="1">  1        2 0.40820987E-01 0.52156493E+03</pdfrwt>
<pdfrwt beam="2">  1       -2 0.39431796E-01 0.52156493E+03</pdfrwt>
<totfact> 0.76931866E+02</totfact>
</mgrwt>
</event>
<event>
 4    1  0.1195463E-003  0.2036114E+03  0.7818608E-02  0.1146727E+00
          2   -1    0    0  501    0  0.00000000000E+00  0.00000000000E+00  0.17800050628E+04  0.17800050628E+04  0.25500000000E-02 0.  1.
         -2   -1    0    0    0  501 -0.00000000000E+00 -0.00000000000E+00 -0.58226823159E+01  0.58226828742E+01  0.25500000000E-02 0. -1.
    5000001    1    1    2    0    0  0.52422703012E+02 -0.36122210689E+02  0.10586152588E+04  0.10633194346E+04  0.77000000000E+02 0.  0.
   -5000001    1    1    2    0    0 -0.52422703012E+02  0.36122210689E+02  0.71556712166E+03  0.72250831102E+03  0.77000000000E+02 0.  0.
<mgrwt>
<rscale>  0 0.20361144E+03</rscale>
<asrwt>0</asrwt>
<pdfrwt beam="1">  1        2 0.27384674E+00 0.20361144E+03</pdfrwt>
<pdfrwt beam="2">  1       -2 0.89579795E-03 0.20361144E+03</pdfrwt>
<totfact> 0.23940408E+04</totfact>
</mgrwt>
</event>
<event>
 4    1  0.1195463E-003  0.1917737E+03  0.7818608E-02  0.1156871E+00
          2   -1    0    0  501    0  0.00000000000E+00  0.00000000000E+00  0.13940622640E+03  0.13940622642E+03  0.25500000000E-02 0. -1.
         -2   -1    0    0    0  501 -0.00000000000E+00 -0.00000000000E+00 -0.65953212067E+02  0.65953212116E+02  0.25500000000E-02 0.  1.
    5000001    1    1    2    0    0  0.38005752835E+02 -0.33473021321E+02  0.65066593227E+02  0.11281640820E+03  0.77000000000E+02 0.  0.
   -5000001    1    1    2    0    0 -0.38005752835E+02  0.33473021321E+02  0.83864211024E+01  0.92543030336E+02  0.77000000000E+02 0.  0.
<mgrwt>
<rscale>  0 0.19177370E+03</rscale>
<asrwt>0</asrwt>
<pdfrwt beam="1">  1        2 0.21447111E-01 0.19177370E+03</pdfrwt>
<pdfrwt beam="2">  1       -2 0.10146648E-01 0.19177370E+03</pdfrwt>
<totfact> 0.15962409E+04</totfact>
</mgrwt>
</event>
<event>
 4    1  0.1195463E-003  0.3797927E+03  0.7818608E-02  0.1051010E+00
         -2   -1    0    0    0  501 -0.00000000000E+00  0.00000000000E+00  0.20604124311E+03  0.20604124312E+03  0.25500000000E-02 0. -1.
          2   -1    0    0  501    0  0.00000000000E+00 -0.00000000000E+00 -0.17501651376E+03  0.17501651378E+03  0.25500000000E-02 0.  1.
    5000001    1    1    2    0    0  0.15462237492E+03 -0.62861571699E+02 -0.32311530201E+02  0.18663518158E+03  0.77000000000E+02 0.  0.
   -5000001    1    1    2    0    0 -0.15462237492E+03  0.62861571699E+02  0.63336259547E+02  0.19442257532E+03  0.77000000000E+02 0.  0.
<mgrwt>
<rscale>  0 0.37979268E+03</rscale>
<asrwt>0</asrwt>
<pdfrwt beam="1">  1        2 0.26925618E-01 0.37979268E+03</pdfrwt>
<pdfrwt beam="2">  1       -2 0.31698653E-01 0.37979268E+03</pdfrwt>
<totfact> 0.18397891E+03</totfact>
</mgrwt>
</event>
<event>
 4    1  0.1195463E-003  0.2436392E+03  0.7818608E-02  0.1117392E+00
          2   -1    0    0  501    0  0.00000000000E+00  0.00000000000E+00  0.39351178782E+04  0.39351178782E+04  0.25500000000E-02 0.  1.
         -2   -1    0    0    0  501 -0.00000000000E+00 -0.00000000000E+00 -0.37711738626E+01  0.37711747248E+01  0.25500000000E-02 0. -1.
    5000001    1    1    2    0    0  0.86842675713E+02 -0.16753632612E+02  0.14322440479E+04  0.14370366548E+04  0.77000000000E+02 0.  0.
   -5000001    1    1    2    0    0 -0.86842675713E+02  0.16753632612E+02  0.24991026564E+04  0.25018523981E+04  0.77000000000E+02 0.  0.
<mgrwt>
<rscale>  0 0.24363920E+03</rscale>
<asrwt>0</asrwt>
<pdfrwt beam="1">  1        2 0.60540384E+00 0.24363920E+03</pdfrwt>
<pdfrwt beam="2">  1       -2 0.58017961E-03 0.24363920E+03</pdfrwt>
<totfact> 0.23617355E+03</totfact>
</mgrwt>
</event>
<event>
 4    1  0.1195463E-003  0.2305312E+03  0.7818608E-02  0.1126266E+00
          2   -1    0    0  501    0  0.00000000000E+00  0.00000000000E+00  0.64523621613E+02  0.64523621664E+02  0.25500000000E-02 0.  1.
         -2   -1    0    0    0  501 -0.00000000000E+00 -0.00000000000E+00 -0.20591158953E+03  0.20591158954E+03  0.25500000000E-02 0. -1.
    5000001    1    1    2    0    0  0.73792584349E+02  0.38901454558E+02 -0.47276311280E+02  0.12297446190E+03  0.77000000000E+02 0.  0.
   -5000001    1    1    2    0    0 -0.73792584349E+02 -0.38901454558E+02 -0.94111656636E+02  0.14746074931E+03  0.77000000000E+02 0.  0.
<mgrwt>
<rscale>  0 0.23053123E+03</rscale>
<asrwt>0</asrwt>
<pdfrwt beam="1">  1        2 0.99267111E-02 0.23053123E+03</pdfrwt>
<pdfrwt beam="2">  1       -2 0.31678706E-01 0.23053123E+03</pdfrwt>
<totfact> 0.58804482E+03</totfact>
</mgrwt>
</event>
<event>
 4    1  0.1195463E-003  0.3029181E+03  0.7818608E-02  0.1083791E+00
         -2   -1    0    0    0  501 -0.00000000000E+00  0.00000000000E+00  0.67119661196E+02  0.67119661244E+02  0.25500000000E-02 0. -1.
          2   -1    0    0  501    0  0.00000000000E+00 -0.00000000000E+00 -0.34177527230E+03  0.34177527231E+03  0.25500000000E-02 0.  1.
    5000001    1    1    2    0    0 -0.74482294596E+02 -0.17103710101E+02  0.53401913573E+01  0.10861706473E+03  0.77000000000E+02 0.  0.
   -5000001    1    1    2    0    0  0.74482294596E+02  0.17103710101E+02 -0.27999580246E+03  0.30027786882E+03  0.77000000000E+02 0.  0.
<mgrwt>
<rscale>  0 0.30291808E+03</rscale>
<asrwt>0</asrwt>
<pdfrwt beam="1">  1        2 0.52580810E-01 0.30291808E+03</pdfrwt>
<pdfrwt beam="2">  1       -2 0.10326102E-01 0.30291808E+03</pdfrwt>
<totfact> 0.59659301E+03</totfact>
</mgrwt>
</event>
<event>
 4    1  0.1195463E-003  0.2337467E+03  0.7818608E-02  0.1124030E+00
         -2   -1    0    0    0  501 -0.00000000000E+00  0.00000000000E+00  0.31427533247E+02  0.31427533350E+02  0.25500000000E-02 0. -1.
          2   -1    0    0  501    0  0.00000000000E+00 -0.00000000000E+00 -0.43463089025E+03  0.43463089026E+03  0.25500000000E-02 0.  1.
    5000001    1    1    2    0    0  0.78716759831E+02  0.35024702834E+02 -0.23655507732E+03  0.26326861319E+03  0.77000000000E+02 0.  0.
   -5000001    1    1    2    0    0 -0.78716759831E+02 -0.35024702834E+02 -0.16664827969E+03  0.20278981042E+03  0.77000000000E+02 0.  0.
<mgrwt>
<rscale>  0 0.23374667E+03</rscale>
<asrwt>0</asrwt>
<pdfrwt beam="1">  1        2 0.66866287E-01 0.23374667E+03</pdfrwt>
<pdfrwt beam="2">  1       -2 0.48350054E-02 0.23374667E+03</pdfrwt>
<totfact> 0.14751732E+04</totfact>
</mgrwt>
</event>
<event>
 4    1  0.1195463E-003  0.2867829E+03  0.7818608E-02  0.1092041E+00
          2   -1    0    0  501    0  0.00000000000E+00  0.00000000000E+00  0.58623544825E+03  0.58623544825E+03  0.25500000000E-02 0.  1.
         -2   -1    0    0    0  501 -0.00000000000E+00 -0.00000000000E+00 -0.35073133477E+02  0.35073133570E+02  0.25500000000E-02 0. -1.
    5000001    1    1    2    0    0 -0.69301314656E+02  0.30526217285E+02  0.47993851484E+03  0.49193952899E+03  0.77000000000E+02 0.  0.
   -5000001    1    1    2    0    0  0.69301314656E+02 -0.30526217285E+02  0.71223799931E+02  0.12936905283E+03  0.77000000000E+02 0.  0.
<mgrwt>
<rscale>  0 0.28678294E+03</rscale>
<asrwt>0</asrwt>
<pdfrwt beam="1">  1        2 0.90190063E-01 0.28678294E+03</pdfrwt>
<pdfrwt beam="2">  1       -2 0.53958671E-02 0.28678294E+03</pdfrwt>
<totfact> 0.90090125E+03</totfact>
</mgrwt>
</event>
<event>
 4    1  0.1195463E-003  0.2056030E+03  0.7818608E-02  0.1145096E+00
         -2   -1    0    0    0  501 -0.00000000000E+00  0.00000000000E+00  0.16542793261E+02  0.16542793458E+02  0.25500000000E-02 0. -1.
          2   -1    0    0  501    0  0.00000000000E+00 -0.00000000000E+00 -0.63883723565E+03  0.63883723566E+03  0.25500000000E-02 0.  1.
    5000001    1    1    2    0    0 -0.28344670711E+02 -0.58050541247E+02 -0.37994818181E+03  0.39301769242E+03  0.77000000000E+02 0.  0.
   -5000001    1    1    2    0    0  0.28344670711E+02  0.58050541247E+02 -0.24234626058E+03  0.26236233669E+03  0.77000000000E+02 0.  0.
<mgrwt>
<rscale>  0 0.20560304E+03</rscale>
<asrwt>0</asrwt>
<pdfrwt beam="1">  1        2 0.98282633E-01 0.20560304E+03</pdfrwt>
<pdfrwt beam="2">  1       -2 0.25450456E-02 0.20560304E+03</pdfrwt>
<totfact> 0.24700971E+04</totfact>
</mgrwt>
</event>
<event>
 4    1  0.1195463E-003  0.3181259E+03  0.7818608E-02  0.1076515E+00
         -2   -1    0    0    0  501 -0.00000000000E+00  0.00000000000E+00  0.21933102703E+02  0.21933102851E+02  0.25500000000E-02 0. -1.
          2   -1    0    0  501    0  0.00000000000E+00 -0.00000000000E+00 -0.11535541151E+04  0.11535541151E+04  0.25500000000E-02 0.  1.
    5000001    1    1    2    0    0  0.11800189379E+03 -0.66848824203E+02 -0.45020785079E+03  0.47645495186E+03  0.77000000000E+02 0.  0.
   -5000001    1    1    2    0    0 -0.11800189379E+03  0.66848824203E+02 -0.68141316160E+03  0.69903226609E+03  0.77000000000E+02 0.  0.
<mgrwt>
<rscale>  0 0.31812589E+03</rscale>
<asrwt>0</asrwt>
<pdfrwt beam="1">  1        2 0.17746982E+00 0.31812589E+03</pdfrwt>
<pdfrwt beam="2">  1       -2 0.33743244E-02 0.31812589E+03</pdfrwt>
<totfact> 0.75673572E+03</totfact>
</mgrwt>
</event>
<event>
 4    1  0.1195463E-003  0.3644109E+03  0.7818608E-02  0.1056851E+00
          2   -1    0    0  501    0  0.00000000000E+00  0.00000000000E+00  0.23275691299E+03  0.23275691300E+03  0.25500000000E-02 0.  1.
         -2   -1    0    0    0  501 -0.00000000000E+00 -0.00000000000E+00 -0.14263304222E+03  0.14263304224E+03  0.25500000000E-02 0. -1.
    5000001    1    1    2    0    0  0.46097753031E+02 -0.15386284988E+03  0.55521575245E+01  0.17820944380E+03  0.77000000000E+02 0.  0.
   -5000001    1    1    2    0    0 -0.46097753031E+02  0.15386284988E+03  0.84571713248E+02  0.19718051144E+03  0.77000000000E+02 0.  0.
<mgrwt>
<rscale>  0 0.36441090E+03</rscale>
<asrwt>0</asrwt>
<pdfrwt beam="1">  1        2 0.35808756E-01 0.36441090E+03</pdfrwt>
<pdfrwt beam="2">  1       -2 0.21943545E-01 0.36441090E+03</pdfrwt>
<totfact> 0.25935296E+03</totfact>
</mgrwt>
</event>
<event>
 4    1  0.1195463E-003  0.3113397E+03  0.7818608E-02  0.1079706E+00
         -2   -1    0    0    0  501 -0.00000000000E+00  0.00000000000E+00  0.57847411537E+03  0.57847411537E+03  0.25500000000E-02 0. -1.
          2   -1    0    0  501    0  0.00000000000E+00 -0.00000000000E+00 -0.41891411254E+02  0.41891411332E+02  0.25500000000E-02 0.  1.
    5000001    1    1    2    0    0 -0.10801964173E+03  0.62575321280E+02  0.16436820703E+03  0.22029485086E+03  0.77000000000E+02 0.  0.
   -5000001    1    1    2    0    0  0.10801964173E+03 -0.62575321280E+02  0.37221449708E+03  0.40007067585E+03  0.77000000000E+02 0.  0.
<mgrwt>
<rscale>  0 0.31133967E+03</rscale>
<asrwt>0</asrwt>
<pdfrwt beam="1">  1        2 0.64448327E-02 0.31133967E+03</pdfrwt>
<pdfrwt beam="2">  1       -2 0.88996015E-01 0.31133967E+03</pdfrwt>
<totfact> 0.12652947E+03</totfact>
</mgrwt>
</event>
<event>
 4    1  0.1195463E-003  0.2053032E+03  0.7818608E-02  0.1145340E+00
          2   -1    0    0  501    0  0.00000000000E+00  0.00000000000E+00  0.10327424685E+03  0.10327424689E+03  0.25500000000E-02 0.  1.
         -2   -1    0    0    0  501 -0.00000000000E+00 -0.00000000000E+00 -0.10203275248E+03  0.10203275251E+03  0.25500000000E-02 0. -1.
    5000001    1    1    2    0    0  0.48744503654E+02  0.46949280332E+02  0.59212320701E+01  0.10268555180E+03  0.77000000000E+02 0.  0.
   -5000001    1    1    2    0    0 -0.48744503654E+02 -0.46949280332E+02 -0.46797376905E+01  0.10262144759E+03  0.77000000000E+02 0.  0.
<mgrwt>
<rscale>  0 0.20530325E+03</rscale>
<asrwt>0</asrwt>
<pdfrwt beam="1">  1        2 0.15888346E-01 0.20530325E+03</pdfrwt>
<pdfrwt beam="2">  1       -2 0.15697346E-01 0.20530325E+03</pdfrwt>
<totfact> 0.11188412E+04</totfact>
</mgrwt>
</event>
<event>
 4    1  0.1195463E-003  0.1954706E+03  0.7818608E-02  0.1153618E+00
          2   -1    0    0  501    0  0.00000000000E+00  0.00000000000E+00  0.13533521030E+04  0.13533521030E+04  0.25500000000E-02 0.  1.
         -2   -1    0    0    0  501 -0.00000000000E+00 -0.00000000000E+00 -0.70581707216E+01  0.70581711823E+01  0.25500000000E-02 0. -1.
    5000001    1    1    2    0    0 -0.34557618316E+02 -0.49235427539E+02  0.68844904794E+03  0.69534843634E+03  0.77000000000E+02 0.  0.
   -5000001    1    1    2    0    0  0.34557618316E+02  0.49235427539E+02  0.65784488429E+03  0.66506183780E+03  0.77000000000E+02 0.  0.
<mgrwt>
<rscale>  0 0.19547062E+03</rscale>
<asrwt>0</asrwt>
<pdfrwt beam="1">  1        2 0.20820797E+00 0.19547062E+03</pdfrwt>
<pdfrwt beam="2">  1       -2 0.10858727E-02 0.19547062E+03</pdfrwt>
<totfact> 0.30375897E+04</totfact>
</mgrwt>
</event>
<event>
 4    1  0.1195463E-003  0.2898386E+03  0.7818608E-02  0.1090433E+00
         -2   -1    0    0    0  501 -0.00000000000E+00  0.00000000000E+00  0.11285987760E+03  0.11285987763E+03  0.25500000000E-02 0. -1.
          2   -1    0    0  501    0  0.00000000000E+00 -0.00000000000E+00 -0.18608570040E+03  0.18608570042E+03  0.25500000000E-02 0.  1.
    5000001    1    1    2    0    0 -0.11469050987E+03 -0.10443926934E+02  0.72633514065E+01  0.13872543003E+03  0.77000000000E+02 0.  0.
   -5000001    1    1    2    0    0  0.11469050987E+03  0.10443926934E+02 -0.80489174204E+02  0.16022014801E+03  0.77000000000E+02 0.  0.
<mgrwt>
<rscale>  0 0.28983864E+03</rscale>
<asrwt>0</asrwt>
<pdfrwt beam="1">  1        2 0.28628569E-01 0.28983864E+03</pdfrwt>
<pdfrwt beam="2">  1       -2 0.17363058E-01 0.28983864E+03</pdfrwt>
<totfact> 0.49247529E+03</totfact>
</mgrwt>
</event>
<event>
 4    1  0.1195463E-003  0.3720237E+03  0.7818608E-02  0.1053922E+00
         -2   -1    0    0    0  501 -0.00000000000E+00  0.00000000000E+00  0.44179116504E+03  0.44179116504E+03  0.25500000000E-02 0. -1.
          2   -1    0    0  501    0  0.00000000000E+00 -0.00000000000E+00 -0.78318455310E+02  0.78318455352E+02  0.25500000000E-02 0.  1.
    5000001    1    1    2    0    0  0.11130816441E+03  0.12261832543E+03  0.13237410733E+03  0.22555856332E+03  0.77000000000E+02 0.  0.
   -5000001    1    1    2    0    0 -0.11130816441E+03 -0.12261832543E+03  0.23109860240E+03  0.29455105708E+03  0.77000000000E+02 0.  0.
<mgrwt>
<rscale>  0 0.37202366E+03</rscale>
<asrwt>0</asrwt>
<pdfrwt beam="1">  1        2 0.12048993E-01 0.37202366E+03</pdfrwt>
<pdfrwt beam="2">  1       -2 0.67967871E-01 0.37202366E+03</pdfrwt>
<totfact> 0.10395436E+03</totfact>
</mgrwt>
</event>
<event>
 4    1  0.1195463E-003  0.5481045E+03  0.7818608E-02  0.1001934E+00
          2   -1    0    0  501    0  0.00000000000E+00  0.00000000000E+00  0.99259630665E+03  0.99259630665E+03  0.25500000000E-02 0.  1.
         -2   -1    0    0    0  501 -0.00000000000E+00 -0.00000000000E+00 -0.75664838657E+02  0.75664838700E+02  0.25500000000E-02 0. -1.
    5000001    1    1    2    0    0  0.12156629869E+03 -0.11527682511E+03  0.85363214025E+03  0.87331777850E+03  0.77000000000E+02 0.  0.
   -5000001    1    1    2    0    0 -0.12156629869E+03  0.11527682511E+03  0.63299327742E+02  0.19494336685E+03  0.77000000000E+02 0.  0.
<mgrwt>
<rscale>  0 0.54810451E+03</rscale>
<asrwt>0</asrwt>
<pdfrwt beam="1">  1        2 0.15270712E+00 0.54810451E+03</pdfrwt>
<pdfrwt beam="2">  1       -2 0.11640745E-01 0.54810451E+03</pdfrwt>
<totfact> 0.13730030E+03</totfact>
</mgrwt>
</event>
<event>
 4    1  0.1195463E-003  0.2495149E+03  0.7818608E-02  0.1113612E+00
          2   -1    0    0  501    0  0.00000000000E+00  0.00000000000E+00  0.12569414896E+04  0.12569414896E+04  0.25500000000E-02 0.  1.
         -2   -1    0    0    0  501 -0.00000000000E+00 -0.00000000000E+00 -0.12382768779E+02  0.12382769042E+02  0.25500000000E-02 0. -1.
    5000001    1    1    2    0    0  0.35121675036E+02 -0.89614955574E+02  0.52428779618E+03  0.53858245937E+03  0.77000000000E+02 0.  0.
   -5000001    1    1    2    0    0 -0.35121675036E+02  0.89614955574E+02  0.72027092460E+03  0.73074179924E+03  0.77000000000E+02 0.  0.
<mgrwt>
<rscale>  0 0.24951486E+03</rscale>
<asrwt>0</asrwt>
<pdfrwt beam="1">  1        2 0.19337567E+00 0.24951486E+03</pdfrwt>
<pdfrwt beam="2">  1       -2 0.19050409E-02 0.24951486E+03</pdfrwt>
<totfact> 0.15328020E+04</totfact>
</mgrwt>
</event>
<event>
 4    1  0.1195463E-003  0.5677509E+03  0.7818608E-02  0.9974668E-01
         -2   -1    0    0    0  501 -0.00000000000E+00  0.00000000000E+00  0.65505323000E+02  0.65505323050E+02  0.25500000000E-02 0. -1.
          2   -1    0    0  501    0  0.00000000000E+00 -0.00000000000E+00 -0.12302093170E+04  0.12302093170E+04  0.25500000000E-02 0.  1.
    5000001    1    1    2    0    0 -0.14335665882E+03 -0.15334294069E+03 -0.98151372962E+03  0.10066595207E+04  0.77000000000E+02 0.  0.
   -5000001    1    1    2    0    0  0.14335665882E+03  0.15334294069E+03 -0.18319026438E+03  0.28905511940E+03  0.77000000000E+02 0.  0.
<mgrwt>
<rscale>  0 0.56775086E+03</rscale>
<asrwt>0</asrwt>
<pdfrwt beam="1">  1        2 0.18926295E+00 0.56775086E+03</pdfrwt>
<pdfrwt beam="2">  1       -2 0.10077743E-01 0.56775086E+03</pdfrwt>
<totfact> 0.12472129E+03</totfact>
</mgrwt>
</event>
<event>
 4    1  0.1195463E-003  0.2725081E+03  0.7818608E-02  0.1099853E+00
         -2   -1    0    0    0  501 -0.00000000000E+00  0.00000000000E+00  0.15706393869E+02  0.15706394076E+02  0.25500000000E-02 0. -1.
          2   -1    0    0  501    0  0.00000000000E+00 -0.00000000000E+00 -0.11820131243E+04  0.11820131243E+04  0.25500000000E-02 0.  1.
    5000001    1    1    2    0    0 -0.10856304838E+03 -0.22015044695E+02 -0.66718807893E+03  0.68069048057E+03  0.77000000000E+02 0.  0.
   -5000001    1    1    2    0    0  0.10856304838E+03  0.22015044695E+02 -0.49911865151E+03  0.51702903783E+03  0.77000000000E+02 0.  0.
<mgrwt>
<rscale>  0 0.27250808E+03</rscale>
<asrwt>0</asrwt>
<pdfrwt beam="1">  1        2 0.18184810E+00 0.27250808E+03</pdfrwt>
<pdfrwt beam="2">  1       -2 0.24163692E-02 0.27250808E+03</pdfrwt>
<totfact> 0.11939028E+04</totfact>
</mgrwt>
</event>
<event>
 4    1  0.1195463E-003  0.2793027E+03  0.7818608E-02  0.1096070E+00
         -2   -1    0    0    0  501 -0.00000000000E+00  0.00000000000E+00  0.16597485661E+02  0.16597485857E+02  0.25500000000E-02 0.  1.
          2   -1    0    0  501    0  0.00000000000E+00 -0.00000000000E+00 -0.11750271240E+04  0.11750271240E+04  0.25500000000E-02 0. -1.
    5000001    1    1    2    0    0 -0.34269926763E+02 -0.10558552075E+03 -0.42832762458E+03  0.44912836033E+03  0.77000000000E+02 0.  0.
   -5000001    1    1    2    0    0  0.34269926763E+02  0.10558552075E+03 -0.73010201374E+03  0.74249624952E+03  0.77000000000E+02 0.  0.
<mgrwt>
<rscale>  0 0.27930267E+03</rscale>
<asrwt>0</asrwt>
<pdfrwt beam="1">  1        2 0.18077334E+00 0.27930267E+03</pdfrwt>
<pdfrwt beam="2">  1       -2 0.25534603E-02 0.27930267E+03</pdfrwt>
<totfact> 0.11112166E+04</totfact>
</mgrwt>
</event>
<event>
 4    1  0.1195463E-003  0.2421991E+03  0.7818608E-02  0.1118336E+00
          2   -1    0    0  501    0  0.00000000000E+00  0.00000000000E+00  0.15076075826E+04  0.15076075826E+04  0.25500000000E-02 0.  1.
         -2   -1    0    0    0  501 -0.00000000000E+00 -0.00000000000E+00 -0.97274010938E+01  0.97274014280E+01  0.25500000000E-02 0. -1.
    5000001    1    1    2    0    0  0.75275710705E+02 -0.40573602175E+02  0.51257646940E+03  0.52533445232E+03  0.77000000000E+02 0.  0.
   -5000001    1    1    2    0    0 -0.75275710705E+02  0.40573602175E+02  0.98530371210E+03  0.99200053170E+03  0.77000000000E+02 0.  0.
<mgrwt>
<rscale>  0 0.24219912E+03</rscale>
<asrwt>0</asrwt>
<pdfrwt beam="1">  1        2 0.23193969E+00 0.24219912E+03</pdfrwt>
<pdfrwt beam="2">  1       -2 0.14965229E-02 0.24219912E+03</pdfrwt>
<totfact> 0.15925982E+04</totfact>
</mgrwt>
</event>
<event>
 4    1  0.1195463E-003  0.2846465E+03  0.7818608E-02  0.1093178E+00
          2   -1    0    0  501    0  0.00000000000E+00  0.00000000000E+00  0.20742055771E+04  0.20742055771E+04  0.25500000000E-02 0.  1.
         -2   -1    0    0    0  501 -0.00000000000E+00 -0.00000000000E+00 -0.97656185029E+01  0.97656188359E+01  0.25500000000E-02 0. -1.
    5000001    1    1    2    0    0  0.81690134491E+02 -0.86143299636E+02  0.11439632939E+04  0.11526816403E+04  0.77000000000E+02 0.  0.
   -5000001    1    1    2    0    0 -0.81690134491E+02  0.86143299636E+02  0.92047666467E+03  0.93128955559E+03  0.77000000000E+02 0.  0.
<mgrwt>
<rscale>  0 0.28464645E+03</rscale>
<asrwt>0</asrwt>
<pdfrwt beam="1">  1        2 0.31910908E+00 0.28464645E+03</pdfrwt>
<pdfrwt beam="2">  1       -2 0.15024004E-02 0.28464645E+03</pdfrwt>
<totfact> 0.79935531E+03</totfact>
</mgrwt>
</event>
<event>
 4    1  0.1195463E-003  0.3408756E+03  0.7818608E-02  0.1066424E+00
          2   -1    0    0  501    0  0.00000000000E+00  0.00000000000E+00  0.54659501262E+03  0.54659501263E+03  0.25500000000E-02 0.  1.
         -2   -1    0    0    0  501 -0.00000000000E+00 -0.00000000000E+00 -0.53145450651E+02  0.53145450713E+02  0.25500000000E-02 0. -1.
    5000001    1    1    2    0    0  0.86437537811E+02  0.12509429528E+03  0.24657104698E+03  0.29974374366E+03  0.77000000000E+02 0.  0.
   -5000001    1    1    2    0    0 -0.86437537811E+02 -0.12509429528E+03  0.24687851499E+03  0.29999671968E+03  0.77000000000E+02 0.  0.
<mgrwt>
<rscale>  0 0.34087557E+03</rscale>
<asrwt>0</asrwt>
<pdfrwt beam="1">  1        2 0.84091538E-01 0.34087557E+03</pdfrwt>
<pdfrwt beam="2">  1       -2 0.81762234E-02 0.34087557E+03</pdfrwt>
<totfact> 0.51541168E+03</totfact>
</mgrwt>
</event>
<event>
 4    1  0.1195463E-003  0.2707457E+03  0.7818608E-02  0.1100854E+00
         -2   -1    0    0    0  501 -0.00000000000E+00  0.00000000000E+00  0.58863927806E+02  0.58863927861E+02  0.25500000000E-02 0. -1.
          2   -1    0    0  501    0  0.00000000000E+00 -0.00000000000E+00 -0.31132488388E+03  0.31132488389E+03  0.25500000000E-02 0.  1.
    5000001    1    1    2    0    0 -0.10520535765E+03  0.18574493042E+02 -0.16911265770E+03  0.21433914730E+03  0.77000000000E+02 0.  0.
   -5000001    1    1    2    0    0  0.10520535765E+03 -0.18574493042E+02 -0.83348298375E+02  0.15584966446E+03  0.77000000000E+02 0.  0.
<mgrwt>
<rscale>  0 0.27074568E+03</rscale>
<asrwt>0</asrwt>
<pdfrwt beam="1">  1        2 0.47896135E-01 0.27074568E+03</pdfrwt>
<pdfrwt beam="2">  1       -2 0.90559891E-02 0.27074568E+03</pdfrwt>
<totfact> 0.80939426E+03</totfact>
</mgrwt>
</event>
<event>
 4    1  0.1195463E-003  0.3614977E+03  0.7818608E-02  0.1057992E+00
          2   -1    0    0  501    0  0.00000000000E+00  0.00000000000E+00  0.33356141317E+03  0.33356141318E+03  0.25500000000E-02 0.  1.
         -2   -1    0    0    0  501 -0.00000000000E+00 -0.00000000000E+00 -0.97943403908E+02  0.97943403941E+02  0.25500000000E-02 0. -1.
    5000001    1    1    2    0    0  0.14797593090E+03 -0.39231334386E+02  0.49184878862E+02  0.17828103105E+03  0.77000000000E+02 0.  0.
   -5000001    1    1    2    0    0 -0.14797593090E+03  0.39231334386E+02  0.18643313040E+03  0.25322378608E+03  0.77000000000E+02 0.  0.
<mgrwt>
<rscale>  0 0.36149766E+03</rscale>
<asrwt>0</asrwt>
<pdfrwt beam="1">  1        2 0.51317140E-01 0.36149766E+03</pdfrwt>
<pdfrwt beam="2">  1       -2 0.15068216E-01 0.36149766E+03</pdfrwt>
<totfact> 0.33236033E+03</totfact>
</mgrwt>
</event>
<event>
 4    1  0.1195463E-003  0.2215042E+03  0.7818608E-02  0.1132767E+00
          2   -1    0    0  501    0  0.00000000000E+00  0.00000000000E+00  0.46709152055E+03  0.46709152056E+03  0.25500000000E-02 0.  1.
         -2   -1    0    0    0  501 -0.00000000000E+00 -0.00000000000E+00 -0.26260434147E+02  0.26260434271E+02  0.25500000000E-02 0. -1.
    5000001    1    1    2    0    0 -0.57405212458E+02  0.52273718518E+02  0.25957554835E+03  0.28166711801E+03  0.77000000000E+02 0.  0.
   -5000001    1    1    2    0    0  0.57405212458E+02 -0.52273718518E+02  0.18125553805E+03  0.21168483682E+03  0.77000000000E+02 0.  0.
<mgrwt>
<rscale>  0 0.22150419E+03</rscale>
<asrwt>0</asrwt>
<pdfrwt beam="1">  1        2 0.71860226E-01 0.22150419E+03</pdfrwt>
<pdfrwt beam="2">  1       -2 0.40400672E-02 0.22150419E+03</pdfrwt>
<totfact> 0.17809164E+04</totfact>
</mgrwt>
</event>
<event>
 4    1  0.1195463E-003  0.2608189E+03  0.7818608E-02  0.1106652E+00
         -2   -1    0    0    0  501 -0.00000000000E+00  0.00000000000E+00  0.11173983505E+03  0.11173983507E+03  0.25500000000E-02 0. -1.
          2   -1    0    0  501    0  0.00000000000E+00 -0.00000000000E+00 -0.15219843697E+03  0.15219843699E+03  0.25500000000E-02 0.  1.
    5000001    1    1    2    0    0  0.59037469854E+02  0.80014712633E+02  0.14677462575E+02  0.12661834382E+03  0.77000000000E+02 0.  0.
   -5000001    1    1    2    0    0 -0.59037469854E+02 -0.80014712633E+02 -0.55136064499E+02  0.13731992824E+03  0.77000000000E+02 0.  0.
<mgrwt>
<rscale>  0 0.26081893E+03</rscale>
<asrwt>0</asrwt>
<pdfrwt beam="1">  1        2 0.23415144E-01 0.26081893E+03</pdfrwt>
<pdfrwt beam="2">  1       -2 0.17190744E-01 0.26081893E+03</pdfrwt>
<totfact> 0.62411597E+03</totfact>
</mgrwt>
</event>
<event>
 4    1  0.1195463E-003  0.2588317E+03  0.7818608E-02  0.1107847E+00
          2   -1    0    0  501    0  0.00000000000E+00  0.00000000000E+00  0.50803121499E+03  0.50803121499E+03  0.25500000000E-02 0.  1.
         -2   -1    0    0    0  501 -0.00000000000E+00 -0.00000000000E+00 -0.32967392024E+02  0.32967392122E+02  0.25500000000E-02 0. -1.
    5000001    1    1    2    0    0  0.47669322460E+02 -0.32520875127E+02  0.41841786970E+03  0.42933959206E+03  0.77000000000E+02 0.  0.
   -5000001    1    1    2    0    0 -0.47669322460E+02  0.32520875127E+02  0.56645953262E+02  0.11165901506E+03  0.77000000000E+02 0.  0.
<mgrwt>
<rscale>  0 0.25883172E+03</rscale>
<asrwt>0</asrwt>
<pdfrwt beam="1">  1        2 0.78158648E-01 0.25883172E+03</pdfrwt>
<pdfrwt beam="2">  1       -2 0.50719065E-02 0.25883172E+03</pdfrwt>
<totfact> 0.11604221E+04</totfact>
</mgrwt>
</event>
<event>
 4    1  0.1195463E-003  0.2540194E+03  0.7818608E-02  0.1110791E+00
         -2   -1    0    0    0  501 -0.00000000000E+00  0.00000000000E+00  0.49519994138E+02  0.49519994204E+02  0.25500000000E-02 0. -1.
          2   -1    0    0  501    0  0.00000000000E+00 -0.00000000000E+00 -0.32575666634E+03  0.32575666635E+03  0.25500000000E-02 0.  1.
    5000001    1    1    2    0    0 -0.93624511354E+02 -0.15113582187E+02 -0.86760382547E+02  0.14983435345E+03  0.77000000000E+02 0.  0.
   -5000001    1    1    2    0    0  0.93624511354E+02  0.15113582187E+02 -0.18947628965E+03  0.22544230711E+03  0.77000000000E+02 0.  0.
<mgrwt>
<rscale>  0 0.25401943E+03</rscale>
<asrwt>0</asrwt>
<pdfrwt beam="1">  1        2 0.50116409E-01 0.25401943E+03</pdfrwt>
<pdfrwt beam="2">  1       -2 0.76184609E-02 0.25401943E+03</pdfrwt>
<totfact> 0.10077029E+04</totfact>
</mgrwt>
</event>
<event>
 4    1  0.1195463E-003  0.2558904E+03  0.7818608E-02  0.1109638E+00
         -2   -1    0    0    0  501 -0.00000000000E+00  0.00000000000E+00  0.33577334266E+02  0.33577334363E+02  0.25500000000E-02 0. -1.
          2   -1    0    0  501    0  0.00000000000E+00 -0.00000000000E+00 -0.48753064109E+03  0.48753064110E+03  0.25500000000E-02 0.  1.
    5000001    1    1    2    0    0 -0.47155607235E+02  0.56907880676E+02 -0.83283220049E+02  0.13537818479E+03  0.77000000000E+02 0.  0.
   -5000001    1    1    2    0    0  0.47155607235E+02 -0.56907880676E+02 -0.37067008677E+03  0.38572979066E+03  0.77000000000E+02 0.  0.
<mgrwt>
<rscale>  0 0.25589044E+03</rscale>
<asrwt>0</asrwt>
<pdfrwt beam="1">  1        2 0.75004709E-01 0.25589044E+03</pdfrwt>
<pdfrwt beam="2">  1       -2 0.51657441E-02 0.25589044E+03</pdfrwt>
<totfact> 0.11810285E+04</totfact>
</mgrwt>
</event>
<event>
 4    1  0.1195463E-003  0.1803247E+03  0.7818608E-02  0.1167489E+00
         -2   -1    0    0    0  501 -0.00000000000E+00  0.00000000000E+00  0.42003528569E+01  0.42003536310E+01  0.25500000000E-02 0. -1.
          2   -1    0    0  501    0  0.00000000000E+00 -0.00000000000E+00 -0.19353720181E+04  0.19353720181E+04  0.25500000000E-02 0.  1.
    5000001    1    1    2    0    0 -0.11279619932E+02  0.30223358626E+02 -0.59931832918E+03  0.60510506602E+03  0.77000000000E+02 0.  0.
   -5000001    1    1    2    0    0  0.11279619932E+02 -0.30223358626E+02 -0.13318533360E+04  0.13344673057E+04  0.77000000000E+02 0.  0.
<mgrwt>
<rscale>  0 0.18032466E+03</rscale>
<asrwt>0</asrwt>
<pdfrwt beam="1">  1        2 0.29774883E+00 0.18032466E+03</pdfrwt>
<pdfrwt beam="2">  1       -2 0.64620974E-03 0.18032466E+03</pdfrwt>
<totfact> 0.31595747E+04</totfact>
</mgrwt>
</event>
<event>
 4    1  0.1195463E-003  0.4739188E+03  0.7818608E-02  0.1020820E+00
          2   -1    0    0  501    0  0.00000000000E+00  0.00000000000E+00  0.90963817540E+03  0.90963817540E+03  0.25500000000E-02 0.  1.
         -2   -1    0    0    0  501 -0.00000000000E+00 -0.00000000000E+00 -0.61727586270E+02  0.61727586323E+02  0.25500000000E-02 0. -1.
    5000001    1    1    2    0    0 -0.10151007696E+02  0.20470592493E+03  0.60970805697E+03  0.64782750281E+03  0.77000000000E+02 0.  0.
   -5000001    1    1    2    0    0  0.10151007696E+02 -0.20470592493E+03  0.23820253216E+03  0.32353825892E+03  0.77000000000E+02 0.  0.
<mgrwt>
<rscale>  0 0.47391885E+03</rscale>
<asrwt>0</asrwt>
<pdfrwt beam="1">  1        2 0.13994434E+00 0.47391885E+03</pdfrwt>
<pdfrwt beam="2">  1       -2 0.94965513E-02 0.47391885E+03</pdfrwt>
<totfact> 0.21627188E+03</totfact>
</mgrwt>
</event>
<event>
 4    1  0.1195463E-003  0.1980564E+03  0.7818608E-02  0.1151389E+00
         -2   -1    0    0    0  501 -0.00000000000E+00  0.00000000000E+00  0.16335578238E+02  0.16335578437E+02  0.25500000000E-02 0. -1.
          2   -1    0    0  501    0  0.00000000000E+00 -0.00000000000E+00 -0.60032086513E+03  0.60032086514E+03  0.25500000000E-02 0.  1.
    5000001    1    1    2    0    0 -0.38253029410E+02 -0.73281066299E+01 -0.14071844166E+03  0.16506869851E+03  0.77000000000E+02 0.  0.
   -5000001    1    1    2    0    0  0.38253029410E+02  0.73281066299E+01 -0.44326684523E+03  0.45158774506E+03  0.77000000000E+02 0.  0.
<mgrwt>
<rscale>  0 0.19805644E+03</rscale>
<asrwt>0</asrwt>
<pdfrwt beam="1">  1        2 0.92357039E-01 0.19805644E+03</pdfrwt>
<pdfrwt beam="2">  1       -2 0.25131664E-02 0.19805644E+03</pdfrwt>
<totfact> 0.26976562E+04</totfact>
</mgrwt>
</event>
<event>
 4    1  0.1195463E-003  0.4007648E+03  0.7818608E-02  0.1043515E+00
         -2   -1    0    0    0  501 -0.00000000000E+00  0.00000000000E+00  0.10297837408E+03  0.10297837411E+03  0.25500000000E-02 0. -1.
          2   -1    0    0  501    0  0.00000000000E+00 -0.00000000000E+00 -0.38991788350E+03  0.38991788351E+03  0.25500000000E-02 0.  1.
    5000001    1    1    2    0    0 -0.51634538097E+02  0.17752343454E+03 -0.15157343971E+03  0.25116568826E+03  0.77000000000E+02 0.  0.
   -5000001    1    1    2    0    0  0.51634538097E+02 -0.17752343454E+03 -0.13536606971E+03  0.24173056936E+03  0.77000000000E+02 0.  0.
<mgrwt>
<rscale>  0 0.40076482E+03</rscale>
<asrwt>0</asrwt>
<pdfrwt beam="1">  1        2 0.59987366E-01 0.40076482E+03</pdfrwt>
<pdfrwt beam="2">  1       -2 0.15842827E-01 0.40076482E+03</pdfrwt>
<totfact> 0.25810186E+03</totfact>
</mgrwt>
</event>
<event>
 4    1  0.1195463E-003  0.2901413E+03  0.7818608E-02  0.1090275E+00
         -2   -1    0    0    0  501 -0.00000000000E+00  0.00000000000E+00  0.20974866819E+02  0.20974866974E+02  0.25500000000E-02 0. -1.
          2   -1    0    0  501    0  0.00000000000E+00 -0.00000000000E+00 -0.10033669487E+04  0.10033669487E+04  0.25500000000E-02 0.  1.
    5000001    1    1    2    0    0  0.91981178789E+02 -0.80078246282E+02 -0.43611294167E+03  0.45934361938E+03  0.77000000000E+02 0.  0.
   -5000001    1    1    2    0    0 -0.91981178789E+02  0.80078246282E+02 -0.54627914017E+03  0.56499819624E+03  0.77000000000E+02 0.  0.
<mgrwt>
<rscale>  0 0.29014126E+03</rscale>
<asrwt>0</asrwt>
<pdfrwt beam="1">  1        2 0.15436411E+00 0.29014126E+03</pdfrwt>
<pdfrwt beam="2">  1       -2 0.32269034E-02 0.29014126E+03</pdfrwt>
<totfact> 0.99203022E+03</totfact>
</mgrwt>
</event>
<event>
 4    1  0.1195463E-003  0.3684844E+03  0.7818608E-02  0.1055274E+00
          2   -1    0    0  501    0  0.00000000000E+00  0.00000000000E+00  0.18495101078E+04  0.18495101078E+04  0.25500000000E-02 0.  1.
         -2   -1    0    0    0  501 -0.00000000000E+00 -0.00000000000E+00 -0.18353612732E+02  0.18353612910E+02  0.25500000000E-02 0. -1.
    5000001    1    1    2    0    0 -0.96311542154E+02  0.61684119707E+02  0.29608905175E+03  0.32661685557E+03  0.77000000000E+02 0.  0.
   -5000001    1    1    2    0    0  0.96311542154E+02 -0.61684119707E+02  0.15350674433E+04  0.15412468652E+04  0.77000000000E+02 0.  0.
<mgrwt>
<rscale>  0 0.36848442E+03</rscale>
<asrwt>0</asrwt>
<pdfrwt beam="1">  1        2 0.28453998E+00 0.36848442E+03</pdfrwt>
<pdfrwt beam="2">  1       -2 0.28236331E-02 0.36848442E+03</pdfrwt>
<totfact> 0.41291238E+03</totfact>
</mgrwt>
</event>
<event>
 4    1  0.1195463E-003  0.4584863E+03  0.7818608E-02  0.1025221E+00
          2   -1    0    0  501    0  0.00000000000E+00  0.00000000000E+00  0.39235450735E+03  0.39235450736E+03  0.25500000000E-02 0. -1.
         -2   -1    0    0    0  501 -0.00000000000E+00 -0.00000000000E+00 -0.13394114528E+03  0.13394114530E+03  0.25500000000E-02 0.  1.
    5000001    1    1    2    0    0  0.14968367008E+03  0.14546251753E+03  0.65719834495E+02  0.23197551970E+03  0.77000000000E+02 0.  0.
   -5000001    1    1    2    0    0 -0.14968367008E+03 -0.14546251753E+03  0.19269352758E+03  0.29432013296E+03  0.77000000000E+02 0.  0.
<mgrwt>
<rscale>  0 0.45848626E+03</rscale>
<asrwt>0</asrwt>
<pdfrwt beam="1">  1        2 0.60362232E-01 0.45848626E+03</pdfrwt>
<pdfrwt beam="2">  1       -2 0.20606330E-01 0.45848626E+03</pdfrwt>
<totfact> 0.16383750E+03</totfact>
</mgrwt>
</event>
<event>
 4    1  0.1195463E-003  0.3969480E+03  0.7818608E-02  0.1044842E+00
          2   -1    0    0  501    0  0.00000000000E+00  0.00000000000E+00  0.23933625719E+04  0.23933625719E+04  0.25500000000E-02 0.  1.
         -2   -1    0    0    0  501 -0.00000000000E+00 -0.00000000000E+00 -0.16458825840E+02  0.16458826037E+02  0.25500000000E-02 0. -1.
    5000001    1    1    2    0    0 -0.16804812349E+03 -0.68511744709E+02  0.10488340544E+04  0.10672000303E+04  0.77000000000E+02 0.  0.
   -5000001    1    1    2    0    0  0.16804812349E+03  0.68511744709E+02  0.13280696916E+04  0.13426213676E+04  0.77000000000E+02 0.  0.
<mgrwt>
<rscale>  0 0.39694805E+03</rscale>
<asrwt>0</asrwt>
<pdfrwt beam="1">  1        2 0.36820937E+00 0.39694805E+03</pdfrwt>
<pdfrwt beam="2">  1       -2 0.25321289E-02 0.39694805E+03</pdfrwt>
<totfact> 0.24777445E+03</totfact>
</mgrwt>
</event>
<event>
 4    1  0.1195463E-003  0.1831728E+03  0.7818608E-02  0.1164767E+00
         -2   -1    0    0    0  501 -0.00000000000E+00  0.00000000000E+00  0.28930334322E+01  0.28930345560E+01  0.25500000000E-02 0. -1.
          2   -1    0    0  501    0  0.00000000000E+00 -0.00000000000E+00 -0.28994031690E+04  0.28994031690E+04  0.25500000000E-02 0.  1.
    5000001    1    1    2    0    0 -0.45913506931E+02 -0.18711743133E+02 -0.14332864774E+04  0.14362093530E+04  0.77000000000E+02 0.  0.
   -5000001    1    1    2    0    0  0.45913506931E+02  0.18711743133E+02 -0.14632236582E+04  0.14660868506E+04  0.77000000000E+02 0.  0.
<mgrwt>
<rscale>  0 0.18317284E+03</rscale>
<asrwt>0</asrwt>
<pdfrwt beam="1">  1        2 0.44605970E+00 0.18317284E+03</pdfrwt>
<pdfrwt beam="2">  1       -2 0.44508447E-03 0.18317284E+03</pdfrwt>
<totfact> 0.16292399E+04</totfact>
</mgrwt>
</event>
<event>
 4    1  0.1195463E-003  0.2067363E+03  0.7818608E-02  0.1144177E+00
          2   -1    0    0  501    0  0.00000000000E+00  0.00000000000E+00  0.16638514055E+03  0.16638514057E+03  0.25500000000E-02 0.  1.
         -2   -1    0    0    0  501 -0.00000000000E+00 -0.00000000000E+00 -0.64218338551E+02  0.64218338601E+02  0.25500000000E-02 0. -1.
    5000001    1    1    2    0    0  0.62220517014E+02 -0.29008125796E+02  0.58407499170E+02  0.11854661555E+03  0.77000000000E+02 0.  0.
   -5000001    1    1    2    0    0 -0.62220517014E+02  0.29008125796E+02  0.43759302828E+02  0.11205686362E+03  0.77000000000E+02 0.  0.
<mgrwt>
<rscale>  0 0.20673633E+03</rscale>
<asrwt>0</asrwt>
<pdfrwt beam="1">  1        2 0.25597714E-01 0.20673633E+03</pdfrwt>
<pdfrwt beam="2">  1       -2 0.98797443E-02 0.20673633E+03</pdfrwt>
<totfact> 0.13731074E+04</totfact>
</mgrwt>
</event>
<event>
 4    1  0.1195463E-003  0.2600373E+03  0.7818608E-02  0.1107121E+00
         -2   -1    0    0    0  501 -0.00000000000E+00  0.00000000000E+00  0.11459966649E+02  0.11459966933E+02  0.25500000000E-02 0. -1.
          2   -1    0    0  501    0  0.00000000000E+00 -0.00000000000E+00 -0.14751222018E+04  0.14751222018E+04  0.25500000000E-02 0.  1.
    5000001    1    1    2    0    0 -0.43883467287E+02 -0.71539306532E+01 -0.12741419701E+04  0.12772406576E+04  0.77000000000E+02 0.  0.
   -5000001    1    1    2    0    0  0.43883467287E+02  0.71539306532E+01 -0.18952026506E+03  0.20934151115E+03  0.77000000000E+02 0.  0.
<mgrwt>
<rscale>  0 0.26003732E+03</rscale>
<asrwt>0</asrwt>
<pdfrwt beam="1">  1        2 0.22694173E+00 0.26003732E+03</pdfrwt>
<pdfrwt beam="2">  1       -2 0.17630730E-02 0.26003732E+03</pdfrwt>
<totfact> 0.13071864E+04</totfact>
</mgrwt>
</event>
<event>
 4    1  0.1195463E-003  0.1959232E+03  0.7818608E-02  0.1153225E+00
          2   -1    0    0  501    0  0.00000000000E+00  0.00000000000E+00  0.28403099545E+04  0.28403099545E+04  0.25500000000E-02 0.  1.
         -2   -1    0    0    0  501 -0.00000000000E+00 -0.00000000000E+00 -0.33786729569E+01  0.33786739192E+01  0.25500000000E-02 0. -1.
    5000001    1    1    2    0    0  0.37479929979E+02 -0.38814623979E+02  0.10193462678E+04  0.10236733531E+04  0.77000000000E+02 0.  0.
   -5000001    1    1    2    0    0 -0.37479929979E+02  0.38814623979E+02  0.18175850138E+04  0.18200152754E+04  0.77000000000E+02 0.  0.
<mgrwt>
<rscale>  0 0.19592325E+03</rscale>
<asrwt>0</asrwt>
<pdfrwt beam="1">  1        2 0.43697170E+00 0.19592325E+03</pdfrwt>
<pdfrwt beam="2">  1       -2 0.51979480E-03 0.19592325E+03</pdfrwt>
<totfact> 0.14129598E+04</totfact>
</mgrwt>
</event>
<event>
 4    1  0.1195463E-003  0.1822326E+03  0.7818608E-02  0.1165660E+00
          2   -1    0    0  501    0  0.00000000000E+00  0.00000000000E+00  0.23245020174E+02  0.23245020314E+02  0.25500000000E-02 0.  1.
         -2   -1    0    0    0  501 -0.00000000000E+00 -0.00000000000E+00 -0.35715947397E+03  0.35715947398E+03  0.25500000000E-02 0. -1.
    5000001    1    1    2    0    0 -0.18211027015E+02 -0.37770982812E+02 -0.11519433827E+03  0.14476541098E+03  0.77000000000E+02 0.  0.
   -5000001    1    1    2    0    0  0.18211027015E+02  0.37770982812E+02 -0.21872011553E+03  0.23563908331E+03  0.77000000000E+02 0.  0.
<mgrwt>
<rscale>  0 0.18223259E+03</rscale>
<asrwt>0</asrwt>
<pdfrwt beam="1">  1        2 0.35761572E-02 0.18223259E+03</pdfrwt>
<pdfrwt beam="2">  1       -2 0.54947607E-01 0.18223259E+03</pdfrwt>
<totfact> 0.75530941E+03</totfact>
</mgrwt>
</event>
<event>
 4    1  0.1195463E-003  0.3278044E+03  0.7818608E-02  0.1072113E+00
         -2   -1    0    0    0  501 -0.00000000000E+00  0.00000000000E+00  0.45643996146E+02  0.45643996218E+02  0.25500000000E-02 0. -1.
          2   -1    0    0  501    0  0.00000000000E+00 -0.00000000000E+00 -0.58855343045E+03  0.58855343045E+03  0.25500000000E-02 0.  1.
    5000001    1    1    2    0    0 -0.13059324591E+03 -0.55724072498E+02 -0.21758979311E+03  0.27098724361E+03  0.77000000000E+02 0.  0.
   -5000001    1    1    2    0    0  0.13059324591E+03  0.55724072498E+02 -0.32531964119E+03  0.36321018306E+03  0.77000000000E+02 0.  0.
<mgrwt>
<rscale>  0 0.32780440E+03</rscale>
<asrwt>0</asrwt>
<pdfrwt beam="1">  1        2 0.90546676E-01 0.32780440E+03</pdfrwt>
<pdfrwt beam="2">  1       -2 0.70221537E-02 0.32780440E+03</pdfrwt>
<totfact> 0.59984401E+03</totfact>
</mgrwt>
</event>
<event>
 4    1  0.1195463E-003  0.1710400E+03  0.7818608E-02  0.1176768E+00
         -2   -1    0    0    0  501 -0.00000000000E+00  0.00000000000E+00  0.43731736592E+02  0.43731736666E+02  0.25500000000E-02 0. -1.
          2   -1    0    0  501    0  0.00000000000E+00 -0.00000000000E+00 -0.16723947410E+03  0.16723947412E+03  0.25500000000E-02 0.  1.
    5000001    1    1    2    0    0 -0.25653935603E+02 -0.17835261275E+02 -0.86682348016E+02  0.12007935049E+03  0.77000000000E+02 0.  0.
   -5000001    1    1    2    0    0  0.25653935603E+02  0.17835261275E+02 -0.36825389491E+02  0.90891860295E+02  0.77000000000E+02 0.  0.
<mgrwt>
<rscale>  0 0.17104003E+03</rscale>
<asrwt>0</asrwt>
<pdfrwt beam="1">  1        2 0.25729150E-01 0.17104003E+03</pdfrwt>
<pdfrwt beam="2">  1       -2 0.67279596E-02 0.17104003E+03</pdfrwt>
<totfact> 0.24458792E+04</totfact>
</mgrwt>
</event>
<event>
 4    1  0.1195463E-003  0.4726759E+03  0.7818608E-02  0.1021168E+00
          2   -1    0    0  501    0  0.00000000000E+00  0.00000000000E+00  0.13394234841E+03  0.13394234844E+03  0.25500000000E-02 0.  1.
         -2   -1    0    0    0  501 -0.00000000000E+00 -0.00000000000E+00 -0.41701244474E+03  0.41701244474E+03  0.25500000000E-02 0. -1.
    5000001    1    1    2    0    0 -0.87029459535E+02 -0.18140956622E+02  0.97410050856E+02  0.15271194826E+03  0.77000000000E+02 0.  0.
   -5000001    1    1    2    0    0  0.87029459535E+02  0.18140956622E+02 -0.38048014718E+03  0.39824284492E+03  0.77000000000E+02 0.  0.
<mgrwt>
<rscale>  0 0.47267590E+03</rscale>
<asrwt>0</asrwt>
<pdfrwt beam="1">  1        2 0.20606515E-01 0.47267590E+03</pdfrwt>
<pdfrwt beam="2">  1       -2 0.64155760E-01 0.47267590E+03</pdfrwt>
<totfact> 0.62004909E+02</totfact>
</mgrwt>
</event>
<event>
 4    1  0.1195463E-003  0.7208872E+03  0.7818608E-02  0.9682164E-01
         -2   -1    0    0    0  501 -0.00000000000E+00  0.00000000000E+00  0.33197498117E+03  0.33197498118E+03  0.25500000000E-02 0.  1.
          2   -1    0    0  501    0  0.00000000000E+00 -0.00000000000E+00 -0.39135353739E+03  0.39135353740E+03  0.25500000000E-02 0. -1.
    5000001    1    1    2    0    0 -0.33783948760E+03  0.14973970229E+01  0.69908257740E+02  0.35348822623E+03  0.77000000000E+02 0.  0.
   -5000001    1    1    2    0    0  0.33783948760E+03 -0.14973970229E+01 -0.12928681397E+03  0.36984029235E+03  0.77000000000E+02 0.  0.
<mgrwt>
<rscale>  0 0.72088718E+03</rscale>
<asrwt>0</asrwt>
<pdfrwt beam="1">  1        2 0.60208237E-01 0.72088718E+03</pdfrwt>
<pdfrwt beam="2">  1       -2 0.51073074E-01 0.72088718E+03</pdfrwt>
<totfact> 0.29797969E+02</totfact>
</mgrwt>
</event>
<event>
 4    1  0.1195463E-003  0.1750137E+03  0.7818608E-02  0.1172718E+00
         -2   -1    0    0    0  501 -0.00000000000E+00  0.00000000000E+00  0.15119306254E+02  0.15119306470E+02  0.25500000000E-02 0. -1.
          2   -1    0    0  501    0  0.00000000000E+00 -0.00000000000E+00 -0.50646851529E+03  0.50646851529E+03  0.25500000000E-02 0.  1.
    5000001    1    1    2    0    0  0.17491528985E+02  0.28742055531E+02 -0.31845621602E+03  0.32935607003E+03  0.77000000000E+02 0.  0.
   -5000001    1    1    2    0    0 -0.17491528985E+02 -0.28742055531E+02 -0.17289299301E+03  0.19223175174E+03  0.77000000000E+02 0.  0.
<mgrwt>
<rscale>  0 0.17501374E+03</rscale>
<asrwt>0</asrwt>
<pdfrwt beam="1">  1        2 0.77918220E-01 0.17501374E+03</pdfrwt>
<pdfrwt beam="2">  1       -2 0.23260475E-02 0.17501374E+03</pdfrwt>
<totfact> 0.36245278E+04</totfact>
</mgrwt>
</event>
<event>
 4    1  0.1195463E-003  0.8619556E+03  0.7818608E-02  0.9474430E-01
         -2   -1    0    0    0  501 -0.00000000000E+00  0.00000000000E+00  0.16860724288E+03  0.16860724289E+03  0.25500000000E-02 0. -1.
          2   -1    0    0  501    0  0.00000000000E+00 -0.00000000000E+00 -0.11016244238E+04  0.11016244238E+04  0.25500000000E-02 0.  1.
    5000001    1    1    2    0    0  0.35470360963E+03  0.18497523054E+03 -0.67377895486E+03  0.78736114116E+03  0.77000000000E+02 0.  0.
   -5000001    1    1    2    0    0 -0.35470360963E+03 -0.18497523054E+03 -0.25923822611E+03  0.48287052558E+03  0.77000000000E+02 0.  0.
<mgrwt>
<rscale>  0 0.86195558E+03</rscale>
<asrwt>0</asrwt>
<pdfrwt beam="1">  1        2 0.16948068E+00 0.86195558E+03</pdfrwt>
<pdfrwt beam="2">  1       -2 0.25939577E-01 0.86195558E+03</pdfrwt>
<totfact> 0.29222254E+02</totfact>
</mgrwt>
</event>
<event>
 4    1  0.1195463E-003  0.3993176E+03  0.7818608E-02  0.1044016E+00
         -2   -1    0    0    0  501 -0.00000000000E+00  0.00000000000E+00  0.17605663607E+02  0.17605663791E+02  0.25500000000E-02 0. -1.
          2   -1    0    0  501    0  0.00000000000E+00 -0.00000000000E+00 -0.22642505740E+04  0.22642505740E+04  0.25500000000E-02 0.  1.
    5000001    1    1    2    0    0  0.17791841588E+03  0.23525781694E+02 -0.13607420345E+04  0.13746840763E+04  0.77000000000E+02 0.  0.
   -5000001    1    1    2    0    0 -0.17791841588E+03 -0.23525781694E+02 -0.88590287583E+03  0.90717216145E+03  0.77000000000E+02 0.  0.
<mgrwt>
<rscale>  0 0.39931759E+03</rscale>
<asrwt>0</asrwt>
<pdfrwt beam="1">  1        2 0.34834601E+00 0.39931759E+03</pdfrwt>
<pdfrwt beam="2">  1       -2 0.27085654E-02 0.39931759E+03</pdfrwt>
<totfact> 0.26336737E+03</totfact>
</mgrwt>
</event>
<event>
 4    1  0.1195463E-003  0.2069756E+03  0.7818608E-02  0.1143984E+00
         -2   -1    0    0    0  501 -0.00000000000E+00  0.00000000000E+00  0.29880782645E+03  0.29880782647E+03  0.25500000000E-02 0. -1.
          2   -1    0    0  501    0  0.00000000000E+00 -0.00000000000E+00 -0.35841498408E+02  0.35841498499E+02  0.25500000000E-02 0.  1.
    5000001    1    1    2    0    0  0.51598003191E+02  0.37482603473E+02  0.88297086038E+02  0.13338918584E+03  0.77000000000E+02 0.  0.
   -5000001    1    1    2    0    0 -0.51598003191E+02 -0.37482603473E+02  0.17466924201E+03  0.20126013912E+03  0.77000000000E+02 0.  0.
<mgrwt>
<rscale>  0 0.20697556E+03</rscale>
<asrwt>0</asrwt>
<pdfrwt beam="1">  1        2 0.55140768E-02 0.20697556E+03</pdfrwt>
<pdfrwt beam="2">  1       -2 0.45970434E-01 0.20697556E+03</pdfrwt>
<totfact> 0.61218937E+03</totfact>
</mgrwt>
</event>
<event>
 4    1  0.1195463E-003  0.2670351E+03  0.7818608E-02  0.1102989E+00
          2   -1    0    0  501    0  0.00000000000E+00  0.00000000000E+00  0.11840663150E+04  0.11840663150E+04  0.25500000000E-02 0.  1.
         -2   -1    0    0    0  501 -0.00000000000E+00 -0.00000000000E+00 -0.15055686041E+02  0.15055686257E+02  0.25500000000E-02 0. -1.
    5000001    1    1    2    0    0  0.65680889938E+02 -0.70822368776E+02  0.81206993233E+03  0.82141120167E+03  0.77000000000E+02 0.  0.
   -5000001    1    1    2    0    0 -0.65680889938E+02  0.70822368776E+02  0.35694069662E+03  0.37771079959E+03  0.77000000000E+02 0.  0.
<mgrwt>
<rscale>  0 0.26703506E+03</rscale>
<asrwt>0</asrwt>
<pdfrwt beam="1">  1        2 0.18216410E+00 0.26703506E+03</pdfrwt>
<pdfrwt beam="2">  1       -2 0.23162587E-02 0.26703506E+03</pdfrwt>
<totfact> 0.12667098E+04</totfact>
</mgrwt>
</event>
<event>
 4    1  0.1195463E-003  0.2048123E+03  0.7818608E-02  0.1145741E+00
         -2   -1    0    0    0  501 -0.00000000000E+00  0.00000000000E+00  0.41727375970E+02  0.41727376048E+02  0.25500000000E-02 0. -1.
          2   -1    0    0  501    0  0.00000000000E+00 -0.00000000000E+00 -0.25132233014E+03  0.25132233015E+03  0.25500000000E-02 0.  1.
    5000001    1    1    2    0    0  0.30423229716E+02  0.55013282233E+02 -0.69575238106E+02  0.12133321015E+03  0.77000000000E+02 0.  0.
   -5000001    1    1    2    0    0 -0.30423229716E+02 -0.55013282233E+02 -0.14001971606E+03  0.17171649605E+03  0.77000000000E+02 0.  0.
<mgrwt>
<rscale>  0 0.20481232E+03</rscale>
<asrwt>0</asrwt>
<pdfrwt beam="1">  1        2 0.38664973E-01 0.20481232E+03</pdfrwt>
<pdfrwt beam="2">  1       -2 0.64195965E-02 0.20481232E+03</pdfrwt>
<totfact> 0.17123204E+04</totfact>
</mgrwt>
</event>
<event>
 4    1  0.1195463E-003  0.2646803E+03  0.7818608E-02  0.1104363E+00
          2   -1    0    0  501    0  0.00000000000E+00  0.00000000000E+00  0.39114144824E+04  0.39114144824E+04  0.25500000000E-02 0.  1.
         -2   -1    0    0    0  501 -0.00000000000E+00 -0.00000000000E+00 -0.44776407822E+01  0.44776415083E+01  0.25500000000E-02 0. -1.
    5000001    1    1    2    0    0 -0.28045119458E+00 -0.10743114168E+03  0.20509139217E+04  0.20551687140E+04  0.77000000000E+02 0.  0.
   -5000001    1    1    2    0    0  0.28045119458E+00  0.10743114168E+03  0.18560229199E+04  0.18607234099E+04  0.77000000000E+02 0.  0.
<mgrwt>
<rscale>  0 0.26468026E+03</rscale>
<asrwt>0</asrwt>
<pdfrwt beam="1">  1        2 0.60175610E+00 0.26468026E+03</pdfrwt>
<pdfrwt beam="2">  1       -2 0.68886784E-03 0.26468026E+03</pdfrwt>
<totfact> 0.19132702E+03</totfact>
</mgrwt>
</event>
<event>
 4    1  0.1195463E-003  0.2521463E+03  0.7818608E-02  0.1111956E+00
          2   -1    0    0  501    0  0.00000000000E+00  0.00000000000E+00  0.85957966483E+01  0.85957970266E+01  0.25500000000E-02 0.  1.
         -2   -1    0    0    0  501 -0.00000000000E+00 -0.00000000000E+00 -0.18490949662E+04  0.18490949662E+04  0.25500000000E-02 0. -1.
    5000001    1    1    2    0    0 -0.20056269603E+02  0.95070204258E+02 -0.75146332209E+03  0.76162111455E+03  0.77000000000E+02 0.  0.
   -5000001    1    1    2    0    0  0.20056269603E+02 -0.95070204258E+02 -0.10890358474E+04  0.10960696487E+04  0.77000000000E+02 0.  0.
<mgrwt>
<rscale>  0 0.25214634E+03</rscale>
<asrwt>0</asrwt>
<pdfrwt beam="1">  1        2 0.13224318E-02 0.25214634E+03</pdfrwt>
<pdfrwt beam="2">  1       -2 0.28447583E+00 0.25214634E+03</pdfrwt>
<totfact> 0.43933814E+02</totfact>
</mgrwt>
</event>
<event>
 4    1  0.1195463E-003  0.3083716E+03  0.7818608E-02  0.1081129E+00
          2   -1    0    0  501    0  0.00000000000E+00  0.00000000000E+00  0.54505154561E+02  0.54505154621E+02  0.25500000000E-02 0.  1.
         -2   -1    0    0    0  501 -0.00000000000E+00 -0.00000000000E+00 -0.43616532399E+03  0.43616532400E+03  0.25500000000E-02 0. -1.
    5000001    1    1    2    0    0  0.22748621960E+02 -0.13162557554E+03 -0.18890321163E+03  0.24383645196E+03  0.77000000000E+02 0.  0.
   -5000001    1    1    2    0    0 -0.22748621960E+02  0.13162557554E+03 -0.19275695780E+03  0.24683402666E+03  0.77000000000E+02 0.  0.
<mgrwt>
<rscale>  0 0.30837158E+03</rscale>
<asrwt>0</asrwt>
<pdfrwt beam="1">  1        2 0.83854087E-02 0.30837158E+03</pdfrwt>
<pdfrwt beam="2">  1       -2 0.67102355E-01 0.30837158E+03</pdfrwt>
<totfact> 0.16757436E+03</totfact>
</mgrwt>
</event>
<event>
 4    1  0.1195463E-003  0.2523163E+03  0.7818608E-02  0.1111850E+00
          2   -1    0    0  501    0  0.00000000000E+00  0.00000000000E+00  0.17082737039E+04  0.17082737039E+04  0.25500000000E-02 0.  1.
         -2   -1    0    0    0  501 -0.00000000000E+00 -0.00000000000E+00 -0.93169343303E+01  0.93169346792E+01  0.25500000000E-02 0. -1.
    5000001    1    1    2    0    0  0.60639573791E+02  0.78907309673E+02  0.78732933559E+03  0.79732051530E+03  0.77000000000E+02 0.  0.
   -5000001    1    1    2    0    0 -0.60639573791E+02 -0.78907309673E+02  0.91162743400E+03  0.92027012331E+03  0.77000000000E+02 0.  0.
<mgrwt>
<rscale>  0 0.25231626E+03</rscale>
<asrwt>0</asrwt>
<pdfrwt beam="1">  1        2 0.26281116E+00 0.25231626E+03</pdfrwt>
<pdfrwt beam="2">  1       -2 0.14333755E-02 0.25231626E+03</pdfrwt>
<totfact> 0.13304407E+04</totfact>
</mgrwt>
</event>
<event>
 4    1  0.1195463E-003  0.3376654E+03  0.7818608E-02  0.1067795E+00
          2   -1    0    0  501    0  0.00000000000E+00  0.00000000000E+00  0.25424770677E+03  0.25424770679E+03  0.25500000000E-02 0.  1.
         -2   -1    0    0    0  501 -0.00000000000E+00 -0.00000000000E+00 -0.11211304395E+03  0.11211304398E+03  0.25500000000E-02 0. -1.
    5000001    1    1    2    0    0 -0.85187913574E+02  0.10372372779E+03 -0.21981873382E+01  0.15475601556E+03  0.77000000000E+02 0.  0.
   -5000001    1    1    2    0    0  0.85187913574E+02 -0.10372372779E+03  0.14433285016E+03  0.21160473520E+03  0.77000000000E+02 0.  0.
<mgrwt>
<rscale>  0 0.33766542E+03</rscale>
<asrwt>0</asrwt>
<pdfrwt beam="1">  1        2 0.39115032E-01 0.33766542E+03</pdfrwt>
<pdfrwt beam="2">  1       -2 0.17248161E-01 0.33766542E+03</pdfrwt>
<totfact> 0.35538339E+03</totfact>
</mgrwt>
</event>
<event>
 4    1  0.1195463E-003  0.3655102E+03  0.7818608E-02  0.1056423E+00
          2   -1    0    0  501    0  0.00000000000E+00  0.00000000000E+00  0.18379171510E+04  0.18379171510E+04  0.25500000000E-02 0.  1.
         -2   -1    0    0    0  501 -0.00000000000E+00 -0.00000000000E+00 -0.18172432221E+02  0.18172432400E+02  0.25500000000E-02 0. -1.
    5000001    1    1    2    0    0 -0.11029276214E+03 -0.56509752911E+02  0.35099339668E+03  0.38010947117E+03  0.77000000000E+02 0.  0.
   -5000001    1    1    2    0    0  0.11029276214E+03  0.56509752911E+02  0.14687513221E+04  0.14759801122E+04  0.77000000000E+02 0.  0.
<mgrwt>
<rscale>  0 0.36551019E+03</rscale>
<asrwt>0</asrwt>
<pdfrwt beam="1">  1        2 0.28275656E+00 0.36551019E+03</pdfrwt>
<pdfrwt beam="2">  1       -2 0.27957581E-02 0.36551019E+03</pdfrwt>
<totfact> 0.42509812E+03</totfact>
</mgrwt>
</event>
<event>
 4    1  0.1195463E-003  0.2582485E+03  0.7818608E-02  0.1108200E+00
         -2   -1    0    0    0  501 -0.00000000000E+00  0.00000000000E+00  0.37246236448E+03  0.37246236449E+03  0.25500000000E-02 0. -1.
          2   -1    0    0  501    0  0.00000000000E+00 -0.00000000000E+00 -0.44764436111E+02  0.44764436184E+02  0.25500000000E-02 0.  1.
    5000001    1    1    2    0    0 -0.26501220243E+02 -0.61640998292E+02  0.29149320093E+03  0.30886763108E+03  0.77000000000E+02 0.  0.
   -5000001    1    1    2    0    0  0.26501220243E+02  0.61640998292E+02  0.36204727442E+02  0.10835916959E+03  0.77000000000E+02 0.  0.
<mgrwt>
<rscale>  0 0.25824847E+03</rscale>
<asrwt>0</asrwt>
<pdfrwt beam="1">  1        2 0.68868360E-02 0.25824847E+03</pdfrwt>
<pdfrwt beam="2">  1       -2 0.57301905E-01 0.25824847E+03</pdfrwt>
<totfact> 0.29826183E+03</totfact>
</mgrwt>
</event>
<event>
 4    1  0.1195463E-003  0.4835327E+03  0.7818608E-02  0.1018169E+00
         -2   -1    0    0    0  501 -0.00000000000E+00  0.00000000000E+00  0.16948601130E+03  0.16948601132E+03  0.25500000000E-02 0. -1.
          2   -1    0    0  501    0  0.00000000000E+00 -0.00000000000E+00 -0.34487199904E+03  0.34487199905E+03  0.25500000000E-02 0.  1.
    5000001    1    1    2    0    0 -0.30226996637E+02 -0.21958837544E+03 -0.14962164876E+03  0.27829546121E+03  0.77000000000E+02 0.  0.
   -5000001    1    1    2    0    0  0.30226996637E+02  0.21958837544E+03 -0.25764338981E+02  0.23606254916E+03  0.77000000000E+02 0.  0.
<mgrwt>
<rscale>  0 0.48353275E+03</rscale>
<asrwt>0</asrwt>
<pdfrwt beam="1">  1        2 0.53057231E-01 0.48353275E+03</pdfrwt>
<pdfrwt beam="2">  1       -2 0.26074771E-01 0.48353275E+03</pdfrwt>
<totfact> 0.12461892E+03</totfact>
</mgrwt>
</event>
<event>
 4    1  0.1195463E-003  0.1925680E+03  0.7818608E-02  0.1156165E+00
         -2   -1    0    0    0  501 -0.00000000000E+00  0.00000000000E+00  0.48889830019E+01  0.48889836669E+01  0.25500000000E-02 0. -1.
          2   -1    0    0  501    0  0.00000000000E+00 -0.00000000000E+00 -0.18962243847E+04  0.18962243847E+04  0.25500000000E-02 0.  1.
    5000001    1    1    2    0    0 -0.25836725268E+02 -0.26267454684E+02 -0.13854168276E+04  0.13880440562E+04  0.77000000000E+02 0.  0.
   -5000001    1    1    2    0    0  0.25836725268E+02  0.26267454684E+02 -0.50591857409E+03  0.51306931224E+03  0.77000000000E+02 0.  0.
<mgrwt>
<rscale>  0 0.19256801E+03</rscale>
<asrwt>0</asrwt>
<pdfrwt beam="1">  1        2 0.29172624E+00 0.19256801E+03</pdfrwt>
<pdfrwt beam="2">  1       -2 0.75215279E-03 0.19256801E+03</pdfrwt>
<totfact> 0.26721198E+04</totfact>
</mgrwt>
</event>
<event>
 4    1  0.1195463E-003  0.1810771E+03  0.7818608E-02  0.1166765E+00
         -2   -1    0    0    0  501 -0.00000000000E+00  0.00000000000E+00  0.95606847101E+02  0.95606847135E+02  0.25500000000E-02 0. -1.
          2   -1    0    0  501    0  0.00000000000E+00 -0.00000000000E+00 -0.85738961066E+02  0.85738961104E+02  0.25500000000E-02 0.  1.
    5000001    1    1    2    0    0 -0.42918156469E+02  0.17323210588E+02  0.16183150202E+02  0.91285026867E+02  0.77000000000E+02 0.  0.
   -5000001    1    1    2    0    0  0.42918156469E+02 -0.17323210588E+02 -0.63152641669E+01  0.90060781371E+02  0.77000000000E+02 0.  0.
<mgrwt>
<rscale>  0 0.18107713E+03</rscale>
<asrwt>0</asrwt>
<pdfrwt beam="1">  1        2 0.13190609E-01 0.18107713E+03</pdfrwt>
<pdfrwt beam="2">  1       -2 0.14708746E-01 0.18107713E+03</pdfrwt>
<totfact> 0.15380918E+04</totfact>
</mgrwt>
</event>
<event>
 4    1  0.1195463E-003  0.2938184E+03  0.7818608E-02  0.1088372E+00
          2   -1    0    0  501    0  0.00000000000E+00  0.00000000000E+00  0.10367783129E+04  0.10367783129E+04  0.25500000000E-02 0.  1.
         -2   -1    0    0    0  501 -0.00000000000E+00 -0.00000000000E+00 -0.20816706878E+02  0.20816707034E+02  0.25500000000E-02 0. -1.
    5000001    1    1    2    0    0 -0.51244609373E+02  0.87759706719E+02  0.24530381705E+03  0.27646109812E+03  0.77000000000E+02 0.  0.
   -5000001    1    1    2    0    0  0.51244609373E+02 -0.87759706719E+02  0.77065778896E+03  0.78113392181E+03  0.77000000000E+02 0.  0.
<mgrwt>
<rscale>  0 0.29381838E+03</rscale>
<asrwt>0</asrwt>
<pdfrwt beam="1">  1        2 0.15950434E+00 0.29381838E+03</pdfrwt>
<pdfrwt beam="2">  1       -2 0.32025706E-02 0.29381838E+03</pdfrwt>
<totfact> 0.95773868E+03</totfact>
</mgrwt>
</event>
<event>
 4    1  0.1195463E-003  0.2319779E+03  0.7818608E-02  0.1125255E+00
         -2   -1    0    0    0  501 -0.00000000000E+00  0.00000000000E+00  0.67088815284E+01  0.67088820130E+01  0.25500000000E-02 0. -1.
          2   -1    0    0  501    0  0.00000000000E+00 -0.00000000000E+00 -0.20053164902E+04  0.20053164902E+04  0.25500000000E-02 0.  1.
    5000001    1    1    2    0    0 -0.71422182566E+02  0.29359614251E+02 -0.65658940673E+03  0.66558377695E+03  0.77000000000E+02 0.  0.
   -5000001    1    1    2    0    0  0.71422182566E+02 -0.29359614251E+02 -0.13420182020E+04  0.13464415953E+04  0.77000000000E+02 0.  0.
<mgrwt>
<rscale>  0 0.23197785E+03</rscale>
<asrwt>0</asrwt>
<pdfrwt beam="1">  1        2 0.30850975E+00 0.23197785E+03</pdfrwt>
<pdfrwt beam="2">  1       -2 0.10321373E-02 0.23197785E+03</pdfrwt>
<totfact> 0.14960995E+04</totfact>
</mgrwt>
</event>
<event>
 4    1  0.1195463E-003  0.1696845E+03  0.7818608E-02  0.1178177E+00
         -2   -1    0    0    0  501 -0.00000000000E+00  0.00000000000E+00  0.32215069256E+01  0.32215079349E+01  0.25500000000E-02 0. -1.
          2   -1    0    0  501    0  0.00000000000E+00 -0.00000000000E+00 -0.22344225087E+04  0.22344225087E+04  0.25500000000E-02 0.  1.
    5000001    1    1    2    0    0  0.17543496628E+02 -0.29001631562E+02 -0.97093884091E+03  0.97457688342E+03  0.77000000000E+02 0.  0.
   -5000001    1    1    2    0    0 -0.17543496628E+02  0.29001631562E+02 -0.12602621609E+04  0.12630671332E+04  0.77000000000E+02 0.  0.
<mgrwt>
<rscale>  0 0.16968452E+03</rscale>
<asrwt>0</asrwt>
<pdfrwt beam="1">  1        2 0.34375607E+00 0.16968452E+03</pdfrwt>
<pdfrwt beam="2">  1       -2 0.49561831E-03 0.16968452E+03</pdfrwt>
<totfact> 0.32154705E+04</totfact>
</mgrwt>
</event>
<event>
 4    1  0.1195463E-003  0.2665929E+03  0.7818608E-02  0.1103246E+00
         -2   -1    0    0    0  501 -0.00000000000E+00  0.00000000000E+00  0.13907294708E+02  0.13907294941E+02  0.25500000000E-02 0. -1.
          2   -1    0    0  501    0  0.00000000000E+00 -0.00000000000E+00 -0.12775989789E+04  0.12775989789E+04  0.25500000000E-02 0.  1.
    5000001    1    1    2    0    0 -0.41646445987E+02 -0.90749475509E+02 -0.42240634012E+03  0.44082423929E+03  0.77000000000E+02 0.  0.
   -5000001    1    1    2    0    0  0.41646445987E+02  0.90749475509E+02 -0.84128534407E+03  0.85068203455E+03  0.77000000000E+02 0.  0.
<mgrwt>
<rscale>  0 0.26659292E+03</rscale>
<asrwt>0</asrwt>
<pdfrwt beam="1">  1        2 0.19655360E+00 0.26659292E+03</pdfrwt>
<pdfrwt beam="2">  1       -2 0.21395848E-02 0.26659292E+03</pdfrwt>
<totfact> 0.12612706E+04</totfact>
</mgrwt>
</event>
<event>
 4    1  0.1195463E-003  0.4496327E+03  0.7818608E-02  0.1027832E+00
          2   -1    0    0  501    0  0.00000000000E+00  0.00000000000E+00  0.32877060749E+03  0.32877060749E+03  0.25500000000E-02 0.  1.
         -2   -1    0    0    0  501 -0.00000000000E+00 -0.00000000000E+00 -0.15373148322E+03  0.15373148324E+03  0.25500000000E-02 0. -1.
    5000001    1    1    2    0    0 -0.81257625253E+02 -0.19281058214E+03  0.11852222065E+03  0.25249799808E+03  0.77000000000E+02 0.  0.
   -5000001    1    1    2    0    0  0.81257625253E+02  0.19281058214E+03  0.56516903611E+02  0.23000409266E+03  0.77000000000E+02 0.  0.
<mgrwt>
<rscale>  0 0.44963271E+03</rscale>
<asrwt>0</asrwt>
<pdfrwt beam="1">  1        2 0.50580093E-01 0.44963271E+03</pdfrwt>
<pdfrwt beam="2">  1       -2 0.23650998E-01 0.44963271E+03</pdfrwt>
<totfact> 0.15627402E+03</totfact>
</mgrwt>
</event>
<event>
 4    1  0.1195463E-003  0.3805234E+03  0.7818608E-02  0.1050740E+00
         -2   -1    0    0    0  501 -0.00000000000E+00  0.00000000000E+00  0.14030494301E+03  0.14030494303E+03  0.25500000000E-02 0. -1.
          2   -1    0    0  501    0  0.00000000000E+00 -0.00000000000E+00 -0.25800596500E+03  0.25800596501E+03  0.25500000000E-02 0.  1.
    5000001    1    1    2    0    0 -0.14759561645E+03  0.50088903991E+02  0.22075446598E+02  0.17524180335E+03  0.77000000000E+02 0.  0.
   -5000001    1    1    2    0    0  0.14759561645E+03 -0.50088903991E+02 -0.13977646858E+03  0.22306910469E+03  0.77000000000E+02 0.  0.
<mgrwt>
<rscale>  0 0.38052339E+03</rscale>
<asrwt>0</asrwt>
<pdfrwt beam="1">  1        2 0.39693225E-01 0.38052339E+03</pdfrwt>
<pdfrwt beam="2">  1       -2 0.21585376E-01 0.38052339E+03</pdfrwt>
<totfact> 0.23864650E+03</totfact>
</mgrwt>
</event>
<event>
 4    1  0.1195463E-003  0.4206640E+03  0.7818608E-02  0.1036850E+00
         -2   -1    0    0    0  501 -0.00000000000E+00  0.00000000000E+00  0.69801220787E+02  0.69801220833E+02  0.25500000000E-02 0. -1.
          2   -1    0    0  501    0  0.00000000000E+00 -0.00000000000E+00 -0.63379329679E+03  0.63379329680E+03  0.25500000000E-02 0.  1.
    5000001    1    1    2    0    0  0.36373696104E+02  0.18929704943E+03 -0.22517437323E+03  0.30624976253E+03  0.77000000000E+02 0.  0.
   -5000001    1    1    2    0    0 -0.36373696104E+02 -0.18929704943E+03 -0.33881770277E+03  0.39734475510E+03  0.77000000000E+02 0.  0.
<mgrwt>
<rscale>  0 0.42066398E+03</rscale>
<asrwt>0</asrwt>
<pdfrwt beam="1">  1        2 0.97506657E-01 0.42066398E+03</pdfrwt>
<pdfrwt beam="2">  1       -2 0.10738650E-01 0.42066398E+03</pdfrwt>
<totfact> 0.28146622E+03</totfact>
</mgrwt>
</event>
<event>
 4    1  0.1195463E-003  0.1873726E+03  0.7818608E-02  0.1160853E+00
          2   -1    0    0  501    0  0.00000000000E+00  0.00000000000E+00  0.24704365090E+04  0.24704365090E+04  0.25500000000E-02 0.  1.
         -2   -1    0    0    0  501 -0.00000000000E+00 -0.00000000000E+00 -0.35528609068E+01  0.35528618219E+01  0.25500000000E-02 0. -1.
    5000001    1    1    2    0    0 -0.22427982353E+02  0.45449670837E+02  0.10127280166E+04  0.10169148060E+04  0.77000000000E+02 0.  0.
   -5000001    1    1    2    0    0  0.22427982353E+02 -0.45449670837E+02  0.14541556314E+04  0.14570745648E+04  0.77000000000E+02 0.  0.
<mgrwt>
<rscale>  0 0.18737255E+03</rscale>
<asrwt>0</asrwt>
<pdfrwt beam="1">  1        2 0.38006613E+00 0.18737255E+03</pdfrwt>
<pdfrwt beam="2">  1       -2 0.54659553E-03 0.18737255E+03</pdfrwt>
<totfact> 0.21041336E+04</totfact>
</mgrwt>
</event>
<event>
 4    1  0.1195463E-003  0.1810771E+03  0.7818608E-02  0.1166765E+00
          2   -1    0    0  501    0  0.00000000000E+00  0.00000000000E+00  0.79352438621E+03  0.79352438622E+03  0.25500000000E-02 0.  1.
         -2   -1    0    0    0  501 -0.00000000000E+00 -0.00000000000E+00 -0.10330157160E+02  0.10330157474E+02  0.25500000000E-02 0. -1.
    5000001    1    1    2    0    0 -0.18995539267E+02  0.39274994568E+02  0.47639529622E+03  0.48454600811E+03  0.77000000000E+02 0.  0.
   -5000001    1    1    2    0    0  0.18995539267E+02 -0.39274994568E+02  0.30679893283E+03  0.31930853558E+03  0.77000000000E+02 0.  0.
<mgrwt>
<rscale>  0 0.18107713E+03</rscale>
<asrwt>0</asrwt>
<pdfrwt beam="1">  1        2 0.12208072E+00 0.18107713E+03</pdfrwt>
<pdfrwt beam="2">  1       -2 0.15892543E-02 0.18107713E+03</pdfrwt>
<totfact> 0.37468565E+04</totfact>
</mgrwt>
</event>
<event>
 4    1  0.1195463E-003  0.3997807E+03  0.7818608E-02  0.1043856E+00
         -2   -1    0    0    0  501 -0.00000000000E+00  0.00000000000E+00  0.13760873642E+04  0.13760873642E+04  0.25500000000E-02 0. -1.
          2   -1    0    0  501    0  0.00000000000E+00 -0.00000000000E+00 -0.29036057889E+02  0.29036058001E+02  0.25500000000E-02 0.  1.
    5000001    1    1    2    0    0 -0.35999454971E+02 -0.12137956270E+03  0.11450532379E+04  0.11546016095E+04  0.77000000000E+02 0.  0.
   -5000001    1    1    2    0    0  0.35999454971E+02  0.12137956270E+03  0.20199806833E+03  0.25052181264E+03  0.77000000000E+02 0.  0.
<mgrwt>
<rscale>  0 0.39978070E+03</rscale>
<asrwt>0</asrwt>
<pdfrwt beam="1">  1        2 0.44670862E-02 0.39978070E+03</pdfrwt>
<pdfrwt beam="2">  1       -2 0.21170573E+00 0.39978070E+03</pdfrwt>
<totfact> 0.22213916E+02</totfact>
</mgrwt>
</event>
<event>
 4    1  0.1195463E-003  0.2082949E+03  0.7818608E-02  0.1142923E+00
         -2   -1    0    0    0  501 -0.00000000000E+00  0.00000000000E+00  0.32016227215E+01  0.32016237370E+01  0.25500000000E-02 0. -1.
          2   -1    0    0  501    0  0.00000000000E+00 -0.00000000000E+00 -0.33878716135E+04  0.33878716135E+04  0.25500000000E-02 0.  1.
    5000001    1    1    2    0    0 -0.27662154809E+02  0.58378066474E+02 -0.12481238156E+04  0.12521642274E+04  0.77000000000E+02 0.  0.
   -5000001    1    1    2    0    0  0.27662154809E+02 -0.58378066474E+02 -0.21365461752E+04  0.21389090098E+04  0.77000000000E+02 0.  0.
<mgrwt>
<rscale>  0 0.20829487E+03</rscale>
<asrwt>0</asrwt>
<pdfrwt beam="1">  1        2 0.52120815E+00 0.20829487E+03</pdfrwt>
<pdfrwt beam="2">  1       -2 0.49256013E-03 0.20829487E+03</pdfrwt>
<totfact> 0.71501516E+03</totfact>
</mgrwt>
</event>
<event>
 4    1  0.1195463E-003  0.3984446E+03  0.7818608E-02  0.1044320E+00
          2   -1    0    0  501    0  0.00000000000E+00  0.00000000000E+00  0.34672018667E+03  0.34672018668E+03  0.25500000000E-02 0.  1.
         -2   -1    0    0    0  501 -0.00000000000E+00 -0.00000000000E+00 -0.11447133865E+03  0.11447133867E+03  0.25500000000E-02 0. -1.
    5000001    1    1    2    0    0  0.16624911314E+02  0.17804491982E+03  0.67233507452E+02  0.20597506081E+03  0.77000000000E+02 0.  0.
   -5000001    1    1    2    0    0 -0.16624911314E+02 -0.17804491982E+03  0.16501534057E+03  0.25521646454E+03  0.77000000000E+02 0.  0.
<mgrwt>
<rscale>  0 0.39844460E+03</rscale>
<asrwt>0</asrwt>
<pdfrwt beam="1">  1        2 0.53341567E-01 0.39844460E+03</pdfrwt>
<pdfrwt beam="2">  1       -2 0.17610975E-01 0.39844460E+03</pdfrwt>
<totfact> 0.24554342E+03</totfact>
</mgrwt>
</event>
<event>
 4    1  0.1195463E-003  0.2442251E+03  0.7818608E-02  0.1117010E+00
         -2   -1    0    0    0  501 -0.00000000000E+00  0.00000000000E+00  0.14194720181E+02  0.14194720410E+02  0.25500000000E-02 0. -1.
          2   -1    0    0  501    0  0.00000000000E+00 -0.00000000000E+00 -0.10504946834E+04  0.10504946834E+04  0.25500000000E-02 0.  1.
    5000001    1    1    2    0    0  0.50119198498E+01  0.83738726764E+02 -0.32587933455E+03  0.34520086093E+03  0.77000000000E+02 0.  0.
   -5000001    1    1    2    0    0 -0.50119198498E+01 -0.83738726764E+02 -0.71042062865E+03  0.71948854286E+03  0.77000000000E+02 0.  0.
<mgrwt>
<rscale>  0 0.24422513E+03</rscale>
<asrwt>0</asrwt>
<pdfrwt beam="1">  1        2 0.16161451E+00 0.24422513E+03</pdfrwt>
<pdfrwt beam="2">  1       -2 0.21838039E-02 0.24422513E+03</pdfrwt>
<totfact> 0.16472809E+04</totfact>
</mgrwt>
</event>
<event>
 4    1  0.1195463E-003  0.3285515E+03  0.7818608E-02  0.1071780E+00
         -2   -1    0    0    0  501 -0.00000000000E+00  0.00000000000E+00  0.54663039724E+02  0.54663039783E+02  0.25500000000E-02 0. -1.
          2   -1    0    0  501    0  0.00000000000E+00 -0.00000000000E+00 -0.49368867884E+03  0.49368867885E+03  0.25500000000E-02 0.  1.
    5000001    1    1    2    0    0  0.69166582475E+02  0.64043671936E+02 -0.40364733792E+03  0.42159907668E+03  0.77000000000E+02 0.  0.
   -5000001    1    1    2    0    0 -0.69166582475E+02 -0.64043671936E+02 -0.35378301196E+02  0.12675264195E+03  0.77000000000E+02 0.  0.
<mgrwt>
<rscale>  0 0.32855151E+03</rscale>
<asrwt>0</asrwt>
<pdfrwt beam="1">  1        2 0.75952101E-01 0.32855151E+03</pdfrwt>
<pdfrwt beam="2">  1       -2 0.84096988E-02 0.32855151E+03</pdfrwt>
<totfact> 0.55297817E+03</totfact>
</mgrwt>
</event>
<event>
 4    1  0.1195463E-003  0.3485341E+03  0.7818608E-02  0.1063218E+00
         -2   -1    0    0    0  501 -0.00000000000E+00  0.00000000000E+00  0.17729081237E+02  0.17729081420E+02  0.25500000000E-02 0. -1.
          2   -1    0    0  501    0  0.00000000000E+00 -0.00000000000E+00 -0.17129489226E+04  0.17129489226E+04  0.25500000000E-02 0.  1.
    5000001    1    1    2    0    0 -0.12393165459E+03  0.23414637068E+02 -0.38892500113E+03  0.41605162750E+03  0.77000000000E+02 0.  0.
   -5000001    1    1    2    0    0  0.12393165459E+03 -0.23414637068E+02 -0.13062948402E+04  0.13146263765E+04  0.77000000000E+02 0.  0.
<mgrwt>
<rscale>  0 0.34853413E+03</rscale>
<asrwt>0</asrwt>
<pdfrwt beam="1">  1        2 0.26353047E+00 0.34853413E+03</pdfrwt>
<pdfrwt beam="2">  1       -2 0.27275523E-02 0.34853413E+03</pdfrwt>
<totfact> 0.51398636E+03</totfact>
</mgrwt>
</event>
<event>
 4    1  0.1195463E-003  0.1984651E+03  0.7818608E-02  0.1151040E+00
         -2   -1    0    0    0  501 -0.00000000000E+00  0.00000000000E+00  0.11267592972E+02  0.11267593260E+02  0.25500000000E-02 0. -1.
          2   -1    0    0  501    0  0.00000000000E+00 -0.00000000000E+00 -0.87393120661E+03  0.87393120661E+03  0.25500000000E-02 0.  1.
    5000001    1    1    2    0    0  0.37367149970E+02 -0.32817278721E+02 -0.26179498864E+03  0.27737861085E+03  0.77000000000E+02 0.  0.
   -5000001    1    1    2    0    0 -0.37367149970E+02  0.32817278721E+02 -0.60086862499E+03  0.60782018902E+03  0.77000000000E+02 0.  0.
<mgrwt>
<rscale>  0 0.19846512E+03</rscale>
<asrwt>0</asrwt>
<pdfrwt beam="1">  1        2 0.13445090E+00 0.19846512E+03</pdfrwt>
<pdfrwt beam="2">  1       -2 0.17334765E-02 0.19846512E+03</pdfrwt>
<totfact> 0.29388768E+04</totfact>
</mgrwt>
</event>
<event>
 4    1  0.1195463E-003  0.3168630E+03  0.7818608E-02  0.1077102E+00
          2   -1    0    0  501    0  0.00000000000E+00  0.00000000000E+00  0.21361751477E+03  0.21361751478E+03  0.25500000000E-02 0.  1.
         -2   -1    0    0    0  501 -0.00000000000E+00 -0.00000000000E+00 -0.11750224893E+03  0.11750224896E+03  0.25500000000E-02 0. -1.
    5000001    1    1    2    0    0  0.13807654175E+02  0.12162842120E+03 -0.19564139923E+02  0.14593107869E+03  0.77000000000E+02 0.  0.
   -5000001    1    1    2    0    0 -0.13807654175E+02 -0.12162842120E+03  0.11567940576E+03  0.18518868506E+03  0.77000000000E+02 0.  0.
<mgrwt>
<rscale>  0 0.31686299E+03</rscale>
<asrwt>0</asrwt>
<pdfrwt beam="1">  1        2 0.32864233E-01 0.31686299E+03</pdfrwt>
<pdfrwt beam="2">  1       -2 0.18077269E-01 0.31686299E+03</pdfrwt>
<totfact> 0.39632758E+03</totfact>
</mgrwt>
</event>
<event>
 4    1  0.1195463E-003  0.2138748E+03  0.7818608E-02  0.1138534E+00
         -2   -1    0    0    0  501 -0.00000000000E+00  0.00000000000E+00  0.56634574044E+01  0.56634579784E+01  0.25500000000E-02 0. -1.
          2   -1    0    0  501    0  0.00000000000E+00 -0.00000000000E+00 -0.20191912236E+04  0.20191912236E+04  0.25500000000E-02 0.  1.
    5000001    1    1    2    0    0  0.34219632612E+02 -0.65029502306E+02 -0.90893013121E+03  0.91514086503E+03  0.77000000000E+02 0.  0.
   -5000001    1    1    2    0    0 -0.34219632612E+02  0.65029502306E+02 -0.11045976350E+04  0.11097138166E+04  0.77000000000E+02 0.  0.
<mgrwt>
<rscale>  0 0.21387477E+03</rscale>
<asrwt>0</asrwt>
<pdfrwt beam="1">  1        2 0.31064423E+00 0.21387477E+03</pdfrwt>
<pdfrwt beam="2">  1       -2 0.87130279E-03 0.21387477E+03</pdfrwt>
<totfact> 0.18747966E+04</totfact>
</mgrwt>
</event>
<event>
 4    1  0.1195463E-003  0.2459824E+03  0.7818608E-02  0.1115870E+00
          2   -1    0    0  501    0  0.00000000000E+00  0.00000000000E+00  0.87251634157E+03  0.87251634158E+03  0.25500000000E-02 0.  1.
         -2   -1    0    0    0  501 -0.00000000000E+00 -0.00000000000E+00 -0.17337020897E+02  0.17337021084E+02  0.25500000000E-02 0. -1.
    5000001    1    1    2    0    0 -0.61813246633E+02 -0.54849970250E+02  0.25153586727E+03  0.27573300350E+03  0.77000000000E+02 0.  0.
   -5000001    1    1    2    0    0  0.61813246633E+02  0.54849970250E+02  0.60364345341E+03  0.61412035916E+03  0.77000000000E+02 0.  0.
<mgrwt>
<rscale>  0 0.24598239E+03</rscale>
<asrwt>0</asrwt>
<pdfrwt beam="1">  1        2 0.13423326E+00 0.24598239E+03</pdfrwt>
<pdfrwt beam="2">  1       -2 0.26672345E-02 0.24598239E+03</pdfrwt>
<totfact> 0.15838049E+04</totfact>
</mgrwt>
</event>
<event>
 4    1  0.1195463E-003  0.2061366E+03  0.7818608E-02  0.1144662E+00
         -2   -1    0    0    0  501 -0.00000000000E+00  0.00000000000E+00  0.51841812281E+02  0.51841812343E+02  0.25500000000E-02 0. -1.
          2   -1    0    0  501    0  0.00000000000E+00 -0.00000000000E+00 -0.20491334885E+03  0.20491334886E+03  0.25500000000E-02 0.  1.
    5000001    1    1    2    0    0 -0.23096736345E+02  0.64354381411E+02 -0.81984104339E+02  0.13162575356E+03  0.77000000000E+02 0.  0.
   -5000001    1    1    2    0    0  0.23096736345E+02 -0.64354381411E+02 -0.71087432229E+02  0.12512940764E+03  0.77000000000E+02 0.  0.
<mgrwt>
<rscale>  0 0.20613665E+03</rscale>
<asrwt>0</asrwt>
<pdfrwt beam="1">  1        2 0.31525130E-01 0.20613665E+03</pdfrwt>
<pdfrwt beam="2">  1       -2 0.79756635E-02 0.20613665E+03</pdfrwt>
<totfact> 0.15278059E+04</totfact>
</mgrwt>
</event>
<event>
 4    1  0.1195463E-003  0.3105667E+03  0.7818608E-02  0.1080075E+00
          2   -1    0    0  501    0  0.00000000000E+00  0.00000000000E+00  0.21261221694E+03  0.21261221696E+03  0.25500000000E-02 0.  1.
         -2   -1    0    0    0  501 -0.00000000000E+00 -0.00000000000E+00 -0.11341269219E+03  0.11341269222E+03  0.25500000000E-02 0. -1.
    5000001    1    1    2    0    0 -0.89442972701E+02  0.97123694552E+02  0.20833911987E+02  0.15425987585E+03  0.77000000000E+02 0.  0.
   -5000001    1    1    2    0    0  0.89442972701E+02 -0.97123694552E+02  0.78365612765E+02  0.17176503332E+03  0.77000000000E+02 0.  0.
<mgrwt>
<rscale>  0 0.31056673E+03</rscale>
<asrwt>0</asrwt>
<pdfrwt beam="1">  1        2 0.32709572E-01 0.31056673E+03</pdfrwt>
<pdfrwt beam="2">  1       -2 0.17448106E-01 0.31056673E+03</pdfrwt>
<totfact> 0.42272857E+03</totfact>
</mgrwt>
</event>
<event>
 4    1  0.1195463E-003  0.5395579E+03  0.7818608E-02  0.1003940E+00
          2   -1    0    0  501    0  0.00000000000E+00  0.00000000000E+00  0.15111584920E+04  0.15111584920E+04  0.25500000000E-02 0.  1.
         -2   -1    0    0    0  501 -0.00000000000E+00 -0.00000000000E+00 -0.48162183100E+02  0.48162183168E+02  0.25500000000E-02 0. -1.
    5000001    1    1    2    0    0 -0.33317271039E+02 -0.23376756801E+03  0.42709525534E+03  0.49406140665E+03  0.77000000000E+02 0.  0.
   -5000001    1    1    2    0    0  0.33317271039E+02  0.23376756801E+03  0.10359010535E+04  0.10652592685E+04  0.77000000000E+02 0.  0.
<mgrwt>
<rscale>  0 0.53955794E+03</rscale>
<asrwt>0</asrwt>
<pdfrwt beam="1">  1        2 0.23248596E+00 0.53955794E+03</pdfrwt>
<pdfrwt beam="2">  1       -2 0.74095655E-02 0.53955794E+03</pdfrwt>
<totfact> 0.14190360E+03</totfact>
</mgrwt>
</event>
<event>
 4    1  0.1195463E-003  0.2731330E+03  0.7818608E-02  0.1099500E+00
         -2   -1    0    0    0  501 -0.00000000000E+00  0.00000000000E+00  0.67018339094E+01  0.67018343945E+01  0.25500000000E-02 0. -1.
          2   -1    0    0  501    0  0.00000000000E+00 -0.00000000000E+00 -0.27828815312E+04  0.27828815312E+04  0.25500000000E-02 0.  1.
    5000001    1    1    2    0    0 -0.72051203824E+02  0.74155624545E+02 -0.18483652302E+04  0.18528554873E+04  0.77000000000E+02 0.  0.
   -5000001    1    1    2    0    0  0.72051203824E+02 -0.74155624545E+02 -0.92781446709E+03  0.93672787829E+03  0.77000000000E+02 0.  0.
<mgrwt>
<rscale>  0 0.27313301E+03</rscale>
<asrwt>0</asrwt>
<pdfrwt beam="1">  1        2 0.42813470E+00 0.27313301E+03</pdfrwt>
<pdfrwt beam="2">  1       -2 0.10310536E-02 0.27313301E+03</pdfrwt>
<totfact> 0.56833527E+03</totfact>
</mgrwt>
</event>
<event>
 4    1  0.1195463E-003  0.2284730E+03  0.7818608E-02  0.1127719E+00
         -2   -1    0    0    0  501 -0.00000000000E+00  0.00000000000E+00  0.13858899613E+02  0.13858899848E+02  0.25500000000E-02 0. -1.
          2   -1    0    0  501    0  0.00000000000E+00 -0.00000000000E+00 -0.94163130858E+03  0.94163130858E+03  0.25500000000E-02 0.  1.
    5000001    1    1    2    0    0 -0.79917601286E+02  0.26798414937E+02 -0.44716008730E+03  0.46150419468E+03  0.77000000000E+02 0.  0.
   -5000001    1    1    2    0    0  0.79917601286E+02 -0.26798414937E+02 -0.48061232167E+03  0.49398601375E+03  0.77000000000E+02 0.  0.
<mgrwt>
<rscale>  0 0.22847296E+03</rscale>
<asrwt>0</asrwt>
<pdfrwt beam="1">  1        2 0.14486630E+00 0.22847296E+03</pdfrwt>
<pdfrwt beam="2">  1       -2 0.21321392E-02 0.22847296E+03</pdfrwt>
<totfact> 0.19824821E+04</totfact>
</mgrwt>
</event>
<event>
 4    1  0.1195463E-003  0.8924252E+03  0.7818608E-02  0.9435100E-01
          2   -1    0    0  501    0  0.00000000000E+00  0.00000000000E+00  0.22392922989E+04  0.22392922989E+04  0.25500000000E-02 0.  1.
         -2   -1    0    0    0  501 -0.00000000000E+00 -0.00000000000E+00 -0.88914553882E+02  0.88914553918E+02  0.25500000000E-02 0. -1.
    5000001    1    1    2    0    0  0.39707856238E+02 -0.13561671493E+03 -0.10571049627E+02  0.16127415883E+03  0.77000000000E+02 0.  0.
   -5000001    1    1    2    0    0 -0.39707856238E+02  0.13561671493E+03  0.21609487946E+04  0.21669326940E+04  0.77000000000E+02 0.  0.
<mgrwt>
<rscale>  0 0.89242518E+03</rscale>
<asrwt>0</asrwt>
<pdfrwt beam="1">  1        2 0.34450650E+00 0.89242518E+03</pdfrwt>
<pdfrwt beam="2">  1       -2 0.13679163E-01 0.89242518E+03</pdfrwt>
<totfact> 0.20430231E+02</totfact>
</mgrwt>
</event>
<event>
 4    1  0.1195463E-003  0.3455550E+03  0.7818608E-02  0.1064454E+00
          2   -1    0    0  501    0  0.00000000000E+00  0.00000000000E+00  0.36568629864E+03  0.36568629865E+03  0.25500000000E-02 0.  1.
         -2   -1    0    0    0  501 -0.00000000000E+00 -0.00000000000E+00 -0.81632969358E+02  0.81632969398E+02  0.25500000000E-02 0. -1.
    5000001    1    1    2    0    0 -0.68239595363E+02 -0.33963960926E+02 -0.32191746403E+02  0.11302876428E+03  0.77000000000E+02 0.  0.
   -5000001    1    1    2    0    0  0.68239595363E+02  0.33963960926E+02  0.31624507569E+03  0.33429050377E+03  0.77000000000E+02 0.  0.
<mgrwt>
<rscale>  0 0.34555496E+03</rscale>
<asrwt>0</asrwt>
<pdfrwt beam="1">  1        2 0.56259429E-01 0.34555496E+03</pdfrwt>
<pdfrwt beam="2">  1       -2 0.12558919E-01 0.34555496E+03</pdfrwt>
<totfact> 0.40557196E+03</totfact>
</mgrwt>
</event>
<event>
 4    1  0.1195463E-003  0.2103133E+03  0.7818608E-02  0.1141318E+00
         -2   -1    0    0    0  501 -0.00000000000E+00  0.00000000000E+00  0.39615503119E+01  0.39615511326E+01  0.25500000000E-02 0. -1.
          2   -1    0    0  501    0  0.00000000000E+00 -0.00000000000E+00 -0.27913118048E+04  0.27913118048E+04  0.25500000000E-02 0.  1.
    5000001    1    1    2    0    0 -0.15065132932E+02 -0.59257659653E+02 -0.18892875614E+04  0.18918443166E+04  0.77000000000E+02 0.  0.
   -5000001    1    1    2    0    0  0.15065132932E+02  0.59257659653E+02 -0.89806269303E+03  0.90342903931E+03  0.77000000000E+02 0.  0.
<mgrwt>
<rscale>  0 0.21031332E+03</rscale>
<asrwt>0</asrwt>
<pdfrwt beam="1">  1        2 0.42943101E+00 0.21031332E+03</pdfrwt>
<pdfrwt beam="2">  1       -2 0.60947157E-03 0.21031332E+03</pdfrwt>
<totfact> 0.12007957E+04</totfact>
</mgrwt>
</event>
<event>
 4    1  0.1195463E-003  0.3122222E+03  0.7818608E-02  0.1079286E+00
         -2   -1    0    0    0  501 -0.00000000000E+00  0.00000000000E+00  0.21622989344E+04  0.21622989344E+04  0.25500000000E-02 0. -1.
          2   -1    0    0  501    0  0.00000000000E+00 -0.00000000000E+00 -0.11270721328E+02  0.11270721617E+02  0.25500000000E-02 0.  1.
    5000001    1    1    2    0    0  0.96803557575E+02  0.89711324427E+02  0.12981353851E+04  0.13070973677E+04  0.77000000000E+02 0.  0.
   -5000001    1    1    2    0    0 -0.96803557575E+02 -0.89711324427E+02  0.85289282792E+03  0.86647228831E+03  0.77000000000E+02 0.  0.
<mgrwt>
<rscale>  0 0.31222216E+03</rscale>
<asrwt>0</asrwt>
<pdfrwt beam="1">  1        2 0.17339590E-02 0.31222216E+03</pdfrwt>
<pdfrwt beam="2">  1       -2 0.33266103E+00 0.31222216E+03</pdfrwt>
<totfact> 0.15630481E+02</totfact>
</mgrwt>
</event>
<event>
 4    1  0.1195463E-003  0.3774405E+03  0.7818608E-02  0.1051884E+00
         -2   -1    0    0    0  501 -0.00000000000E+00  0.00000000000E+00  0.37950777001E+02  0.37950777087E+02  0.25500000000E-02 0. -1.
          2   -1    0    0  501    0  0.00000000000E+00 -0.00000000000E+00 -0.93846111832E+03  0.93846111833E+03  0.25500000000E-02 0.  1.
    5000001    1    1    2    0    0  0.10588410749E+03  0.13559764349E+03 -0.47454525787E+03  0.51060784062E+03  0.77000000000E+02 0.  0.
   -5000001    1    1    2    0    0 -0.10588410749E+03 -0.13559764349E+03 -0.42596508345E+03  0.46580405479E+03  0.77000000000E+02 0.  0.
<mgrwt>
<rscale>  0 0.37744048E+03</rscale>
<asrwt>0</asrwt>
<pdfrwt beam="1">  1        2 0.14437862E+00 0.37744048E+03</pdfrwt>
<pdfrwt beam="2">  1       -2 0.58385818E-02 0.37744048E+03</pdfrwt>
<totfact> 0.44498156E+03</totfact>
</mgrwt>
</event>
<event>
 4    1  0.1195463E-003  0.1580257E+03  0.7818608E-02  0.1190944E+00
          2   -1    0    0  501    0  0.00000000000E+00  0.00000000000E+00  0.69113745471E+02  0.69113745518E+02  0.25500000000E-02 0.  1.
         -2   -1    0    0    0  501 -0.00000000000E+00 -0.00000000000E+00 -0.90329807305E+02  0.90329807341E+02  0.25500000000E-02 0. -1.
    5000001    1    1    2    0    0  0.84592863914E+01 -0.15325636452E+02 -0.13388963784E+02  0.80091816125E+02  0.77000000000E+02 0.  0.
   -5000001    1    1    2    0    0 -0.84592863914E+01  0.15325636452E+02 -0.78270980495E+01  0.79351736735E+02  0.77000000000E+02 0.  0.
<mgrwt>
<rscale>  0 0.15802571E+03</rscale>
<asrwt>0</asrwt>
<pdfrwt beam="1">  1        2 0.10632884E-01 0.15802571E+03</pdfrwt>
<pdfrwt beam="2">  1       -2 0.13896893E-01 0.15802571E+03</pdfrwt>
<totfact> 0.21641717E+04</totfact>
</mgrwt>
</event>
<event>
 4    1  0.1195463E-003  0.2443155E+03  0.7818608E-02  0.1116951E+00
         -2   -1    0    0    0  501 -0.00000000000E+00  0.00000000000E+00  0.17113302999E+02  0.17113303189E+02  0.25500000000E-02 0. -1.
          2   -1    0    0  501    0  0.00000000000E+00 -0.00000000000E+00 -0.87198329928E+03  0.87198329929E+03  0.25500000000E-02 0.  1.
    5000001    1    1    2    0    0 -0.87714609624E+02  0.33991146287E+02 -0.38372542875E+03  0.40252137264E+03  0.77000000000E+02 0.  0.
   -5000001    1    1    2    0    0  0.87714609624E+02 -0.33991146287E+02 -0.47114456754E+03  0.48657522983E+03  0.77000000000E+02 0.  0.
<mgrwt>
<rscale>  0 0.24431549E+03</rscale>
<asrwt>0</asrwt>
<pdfrwt beam="1">  1        2 0.13415124E+00 0.24431549E+03</pdfrwt>
<pdfrwt beam="2">  1       -2 0.26328165E-02 0.24431549E+03</pdfrwt>
<totfact> 0.16153297E+04</totfact>
</mgrwt>
</event>
<event>
 4    1  0.1195463E-003  0.2012964E+03  0.7818608E-02  0.1148650E+00
          2   -1    0    0  501    0  0.00000000000E+00  0.00000000000E+00  0.69891760043E+02  0.69891760089E+02  0.25500000000E-02 0.  1.
         -2   -1    0    0    0  501 -0.00000000000E+00 -0.00000000000E+00 -0.14493928666E+03  0.14493928669E+03  0.25500000000E-02 0. -1.
    5000001    1    1    2    0    0 -0.16945329712E+02 -0.91784006157E+01 -0.10356906653E+03  0.13048731271E+03  0.77000000000E+02 0.  0.
   -5000001    1    1    2    0    0  0.16945329712E+02  0.91784006157E+01  0.28521539909E+02  0.84343734063E+02  0.77000000000E+02 0.  0.
<mgrwt>
<rscale>  0 0.20129642E+03</rscale>
<asrwt>0</asrwt>
<pdfrwt beam="1">  1        2 0.10752578E-01 0.20129642E+03</pdfrwt>
<pdfrwt beam="2">  1       -2 0.22298352E-01 0.20129642E+03</pdfrwt>
<totfact> 0.98645079E+03</totfact>
</mgrwt>
</event>
<event>
 4    1  0.1195463E-003  0.3012976E+03  0.7818608E-02  0.1084594E+00
          2   -1    0    0  501    0  0.00000000000E+00  0.00000000000E+00  0.13338185715E+03  0.13338185718E+03  0.25500000000E-02 0.  1.
         -2   -1    0    0    0  501 -0.00000000000E+00 -0.00000000000E+00 -0.17015101095E+03  0.17015101097E+03  0.25500000000E-02 0. -1.
    5000001    1    1    2    0    0 -0.58881855328E+02 -0.46359199093E+02  0.87991460623E+02  0.13888032751E+03  0.77000000000E+02 0.  0.
   -5000001    1    1    2    0    0  0.58881855328E+02  0.46359199093E+02 -0.12476061442E+03  0.16465254064E+03  0.77000000000E+02 0.  0.
<mgrwt>
<rscale>  0 0.30129758E+03</rscale>
<asrwt>0</asrwt>
<pdfrwt beam="1">  1        2 0.20520286E-01 0.30129758E+03</pdfrwt>
<pdfrwt beam="2">  1       -2 0.26177079E-01 0.30129758E+03</pdfrwt>
<totfact> 0.35245096E+03</totfact>
</mgrwt>
</event>
<event>
 4    1  0.1195463E-003  0.2179823E+03  0.7818608E-02  0.1135396E+00
         -2   -1    0    0    0  501 -0.00000000000E+00  0.00000000000E+00  0.51510305823E+02  0.51510305886E+02  0.25500000000E-02 0. -1.
          2   -1    0    0  501    0  0.00000000000E+00 -0.00000000000E+00 -0.23061540520E+03  0.23061540521E+03  0.25500000000E-02 0.  1.
    5000001    1    1    2    0    0 -0.42156396171E+02  0.51538685366E+02 -0.13995681828E+03  0.17306157520E+03  0.77000000000E+02 0.  0.
   -5000001    1    1    2    0    0  0.42156396171E+02 -0.51538685366E+02 -0.39148281101E+02  0.10906413590E+03  0.77000000000E+02 0.  0.
<mgrwt>
<rscale>  0 0.21798229E+03</rscale>
<asrwt>0</asrwt>
<pdfrwt beam="1">  1        2 0.35479293E-01 0.21798229E+03</pdfrwt>
<pdfrwt beam="2">  1       -2 0.79246625E-02 0.21798229E+03</pdfrwt>
<totfact> 0.13625485E+04</totfact>
</mgrwt>
</event>
<event>
 4    1  0.1195463E-003  0.1937548E+03  0.7818608E-02  0.1155118E+00
          2   -1    0    0  501    0  0.00000000000E+00  0.00000000000E+00  0.97509673921E+03  0.97509673921E+03  0.25500000000E-02 0.  1.
         -2   -1    0    0    0  501 -0.00000000000E+00 -0.00000000000E+00 -0.96249265074E+01  0.96249268452E+01  0.25500000000E-02 0. -1.
    5000001    1    1    2    0    0  0.56676608287E+02  0.14970665922E+02  0.50539402492E+03  0.51457601886E+03  0.77000000000E+02 0.  0.
   -5000001    1    1    2    0    0 -0.56676608287E+02 -0.14970665922E+02  0.46007778779E+03  0.47014564720E+03  0.77000000000E+02 0.  0.
<mgrwt>
<rscale>  0 0.19375484E+03</rscale>
<asrwt>0</asrwt>
<pdfrwt beam="1">  1        2 0.15001488E+00 0.19375484E+03</pdfrwt>
<pdfrwt beam="2">  1       -2 0.14807580E-02 0.19375484E+03</pdfrwt>
<totfact> 0.31857122E+04</totfact>
</mgrwt>
</event>
<event>
 4    1  0.1195463E-003  0.2389786E+03  0.7818608E-02  0.1120475E+00
         -2   -1    0    0    0  501 -0.00000000000E+00  0.00000000000E+00  0.16279433186E+03  0.16279433188E+03  0.25500000000E-02 0. -1.
          2   -1    0    0  501    0  0.00000000000E+00 -0.00000000000E+00 -0.87703837203E+02  0.87703837240E+02  0.25500000000E-02 0.  1.
    5000001    1    1    2    0    0 -0.44901837827E+00 -0.91107426520E+02  0.30288922393E+02  0.12307389489E+03  0.77000000000E+02 0.  0.
   -5000001    1    1    2    0    0  0.44901837827E+00  0.91107426520E+02  0.44801572265E+02  0.12742427423E+03  0.77000000000E+02 0.  0.
<mgrwt>
<rscale>  0 0.23897856E+03</rscale>
<asrwt>0</asrwt>
<pdfrwt beam="1">  1        2 0.13492898E-01 0.23897856E+03</pdfrwt>
<pdfrwt beam="2">  1       -2 0.25045282E-01 0.23897856E+03</pdfrwt>
<totfact> 0.61759750E+03</totfact>
</mgrwt>
</event>
<event>
 4    1  0.1195463E-003  0.3154397E+03  0.7818608E-02  0.1077767E+00
          2   -1    0    0  501    0  0.00000000000E+00  0.00000000000E+00  0.38404371220E+03  0.38404371221E+03  0.25500000000E-02 0.  1.
         -2   -1    0    0    0  501 -0.00000000000E+00 -0.00000000000E+00 -0.64772703315E+02  0.64772703365E+02  0.25500000000E-02 0. -1.
    5000001    1    1    2    0    0  0.81605002871E+02  0.94202937076E+02  0.76512880876E+02  0.16527791984E+03  0.77000000000E+02 0.  0.
   -5000001    1    1    2    0    0 -0.81605002871E+02 -0.94202937076E+02  0.24275812801E+03  0.28353849573E+03  0.77000000000E+02 0.  0.
<mgrwt>
<rscale>  0 0.31543969E+03</rscale>
<asrwt>0</asrwt>
<pdfrwt beam="1">  1        2 0.59083648E-01 0.31543969E+03</pdfrwt>
<pdfrwt beam="2">  1       -2 0.99650312E-02 0.31543969E+03</pdfrwt>
<totfact> 0.55704448E+03</totfact>
</mgrwt>
</event>
<event>
 4    1  0.1195463E-003  0.2209049E+03  0.7818608E-02  0.1133210E+00
         -2   -1    0    0    0  501 -0.00000000000E+00  0.00000000000E+00  0.39242801352E+02  0.39242801435E+02  0.25500000000E-02 0. -1.
          2   -1    0    0  501    0  0.00000000000E+00 -0.00000000000E+00 -0.31087841622E+03  0.31087841623E+03  0.25500000000E-02 0.  1.
    5000001    1    1    2    0    0  0.50090477805E+02  0.55466127413E+02 -0.94330093103E+02  0.14287306857E+03  0.77000000000E+02 0.  0.
   -5000001    1    1    2    0    0 -0.50090477805E+02 -0.55466127413E+02 -0.17730552177E+03  0.20724814910E+03  0.77000000000E+02 0.  0.
<mgrwt>
<rscale>  0 0.22090487E+03</rscale>
<asrwt>0</asrwt>
<pdfrwt beam="1">  1        2 0.47827447E-01 0.22090487E+03</pdfrwt>
<pdfrwt beam="2">  1       -2 0.60373543E-02 0.22090487E+03</pdfrwt>
<totfact> 0.15053675E+04</totfact>
</mgrwt>
</event>
<event>
 4    1  0.1195463E-003  0.2997982E+03  0.7818608E-02  0.1085342E+00
          2   -1    0    0  501    0  0.00000000000E+00  0.00000000000E+00  0.16961750045E+04  0.16961750045E+04  0.25500000000E-02 0. -1.
         -2   -1    0    0    0  501 -0.00000000000E+00 -0.00000000000E+00 -0.13247297623E+02  0.13247297868E+02  0.25500000000E-02 0.  1.
    5000001    1    1    2    0    0  0.13372352995E+02  0.12176413041E+03  0.61803828971E+03  0.63474849415E+03  0.77000000000E+02 0.  0.
   -5000001    1    1    2    0    0 -0.13372352995E+02 -0.12176413041E+03  0.10648894172E+04  0.10746738083E+04  0.77000000000E+02 0.  0.
<mgrwt>
<rscale>  0 0.29979817E+03</rscale>
<asrwt>0</asrwt>
<pdfrwt beam="1">  1        2 0.26094991E+00 0.29979817E+03</pdfrwt>
<pdfrwt beam="2">  1       -2 0.20380465E-02 0.29979817E+03</pdfrwt>
<totfact> 0.80807694E+03</totfact>
</mgrwt>
</event>
<event>
 4    1  0.1195463E-003  0.1985867E+03  0.7818608E-02  0.1150937E+00
          2   -1    0    0  501    0  0.00000000000E+00  0.00000000000E+00  0.21151617464E+03  0.21151617466E+03  0.25500000000E-02 0.  1.
         -2   -1    0    0    0  501 -0.00000000000E+00 -0.00000000000E+00 -0.46611885554E+02  0.46611885624E+02  0.25500000000E-02 0. -1.
    5000001    1    1    2    0    0 -0.61300305726E+02  0.31597432993E+01  0.65884783302E+02  0.11848002418E+03  0.77000000000E+02 0.  0.
   -5000001    1    1    2    0    0  0.61300305726E+02 -0.31597432993E+01  0.99019505785E+02  0.13964803610E+03  0.77000000000E+02 0.  0.
<mgrwt>
<rscale>  0 0.19858668E+03</rscale>
<asrwt>0</asrwt>
<pdfrwt beam="1">  1        2 0.32540950E-01 0.19858668E+03</pdfrwt>
<pdfrwt beam="2">  1       -2 0.71710593E-02 0.19858668E+03</pdfrwt>
<totfact> 0.17358834E+04</totfact>
</mgrwt>
</event>
<event>
 4    1  0.1195463E-003  0.1904805E+03  0.7818608E-02  0.1158029E+00
         -2   -1    0    0    0  501 -0.00000000000E+00  0.00000000000E+00  0.35351301402E+02  0.35351301494E+02  0.25500000000E-02 0. -1.
          2   -1    0    0  501    0  0.00000000000E+00 -0.00000000000E+00 -0.25658770708E+03  0.25658770710E+03  0.25500000000E-02 0.  1.
    5000001    1    1    2    0    0 -0.11526123068E+02 -0.43914241443E+02 -0.60241093275E+02  0.10779286356E+03  0.77000000000E+02 0.  0.
   -5000001    1    1    2    0    0  0.11526123068E+02  0.43914241443E+02 -0.16099531241E+03  0.18414614504E+03  0.77000000000E+02 0.  0.
<mgrwt>
<rscale>  0 0.19048054E+03</rscale>
<asrwt>0</asrwt>
<pdfrwt beam="1">  1        2 0.39475031E-01 0.19048054E+03</pdfrwt>
<pdfrwt beam="2">  1       -2 0.54386619E-02 0.19048054E+03</pdfrwt>
<totfact> 0.21449851E+04</totfact>
</mgrwt>
</event>
<event>
 4    1  0.1195463E-003  0.2997123E+03  0.7818608E-02  0.1085385E+00
          2   -1    0    0  501    0  0.00000000000E+00  0.00000000000E+00  0.10022542669E+03  0.10022542672E+03  0.25500000000E-02 0. -1.
         -2   -1    0    0    0  501 -0.00000000000E+00 -0.00000000000E+00 -0.22406352832E+03  0.22406352833E+03  0.25500000000E-02 0.  1.
    5000001    1    1    2    0    0  0.32664906198E+02 -0.59977652758E+02 -0.17977049580E+03  0.20714909145E+03  0.77000000000E+02 0.  0.
   -5000001    1    1    2    0    0 -0.32664906198E+02  0.59977652758E+02  0.55932394173E+02  0.11713986360E+03  0.77000000000E+02 0.  0.
<mgrwt>
<rscale>  0 0.29971228E+03</rscale>
<asrwt>0</asrwt>
<pdfrwt beam="1">  1        2 0.15419296E-01 0.29971228E+03</pdfrwt>
<pdfrwt beam="2">  1       -2 0.34471312E-01 0.29971228E+03</pdfrwt>
<totfact> 0.29781579E+03</totfact>
</mgrwt>
</event>
<event>
 4    1  0.1195463E-003  0.2132932E+03  0.7818608E-02  0.1138984E+00
          2   -1    0    0  501    0  0.00000000000E+00  0.00000000000E+00  0.46999560439E+03  0.46999560439E+03  0.25500000000E-02 0.  1.
         -2   -1    0    0    0  501 -0.00000000000E+00 -0.00000000000E+00 -0.24199157476E+02  0.24199157611E+02  0.25500000000E-02 0. -1.
    5000001    1    1    2    0    0 -0.65392876780E+02  0.12463609341E+02  0.14915699585E+03  0.18057790369E+03  0.77000000000E+02 0.  0.
   -5000001    1    1    2    0    0  0.65392876780E+02 -0.12463609341E+02  0.29663945106E+03  0.31361685831E+03  0.77000000000E+02 0.  0.
<mgrwt>
<rscale>  0 0.21329320E+03</rscale>
<asrwt>0</asrwt>
<pdfrwt beam="1">  1        2 0.72307007E-01 0.21329320E+03</pdfrwt>
<pdfrwt beam="2">  1       -2 0.37229478E-02 0.21329320E+03</pdfrwt>
<totfact> 0.19941159E+04</totfact>
</mgrwt>
</event>
<event>
 4    1  0.1195463E-003  0.1749974E+03  0.7818608E-02  0.1172734E+00
          2   -1    0    0  501    0  0.00000000000E+00  0.00000000000E+00  0.13987442559E+02  0.13987442792E+02  0.25500000000E-02 0.  1.
         -2   -1    0    0    0  501 -0.00000000000E+00 -0.00000000000E+00 -0.54734995946E+03  0.54734995946E+03  0.25500000000E-02 0. -1.
    5000001    1    1    2    0    0  0.26986126617E+02  0.18306232455E+02 -0.34931627572E+03  0.35918550870E+03  0.77000000000E+02 0.  0.
   -5000001    1    1    2    0    0 -0.26986126617E+02 -0.18306232455E+02 -0.18404624118E+03  0.20215189355E+03  0.77000000000E+02 0.  0.
<mgrwt>
<rscale>  0 0.17499744E+03</rscale>
<asrwt>0</asrwt>
<pdfrwt beam="1">  1        2 0.21519147E-02 0.17499744E+03</pdfrwt>
<pdfrwt beam="2">  1       -2 0.84207669E-01 0.17499744E+03</pdfrwt>
<totfact> 0.60652676E+03</totfact>
</mgrwt>
</event>
<event>
 4    1  0.1195463E-003  0.1612539E+03  0.7818608E-02  0.1187288E+00
          2   -1    0    0  501    0  0.00000000000E+00  0.00000000000E+00  0.38077917881E+02  0.38077917966E+02  0.25500000000E-02 0.  1.
         -2   -1    0    0    0  501 -0.00000000000E+00 -0.00000000000E+00 -0.17072116662E+03  0.17072116664E+03  0.25500000000E-02 0. -1.
    5000001    1    1    2    0    0 -0.17273441779E+02 -0.13045100786E+02 -0.79473092908E+02  0.11275424135E+03  0.77000000000E+02 0.  0.
   -5000001    1    1    2    0    0  0.17273441779E+02  0.13045100786E+02 -0.53170155833E+02  0.96044843259E+02  0.77000000000E+02 0.  0.
<mgrwt>
<rscale>  0 0.16125392E+03</rscale>
<asrwt>0</asrwt>
<pdfrwt beam="1">  1        2 0.58581413E-02 0.16125392E+03</pdfrwt>
<pdfrwt beam="2">  1       -2 0.26264794E-01 0.16125392E+03</pdfrwt>
<totfact> 0.15681924E+04</totfact>
</mgrwt>
</event>
<event>
 4    1  0.1195463E-003  0.1813101E+03  0.7818608E-02  0.1166541E+00
          2   -1    0    0  501    0  0.00000000000E+00  0.00000000000E+00  0.14841392502E+04  0.14841392502E+04  0.25500000000E-02 0.  1.
         -2   -1    0    0    0  501 -0.00000000000E+00 -0.00000000000E+00 -0.55374421556E+01  0.55374427428E+01  0.25500000000E-02 0. -1.
    5000001    1    1    2    0    0 -0.33721060134E+02 -0.31895263759E+02  0.64386650537E+03  0.65011344739E+03  0.77000000000E+02 0.  0.
   -5000001    1    1    2    0    0  0.33721060134E+02  0.31895263759E+02  0.83473530265E+03  0.83956324553E+03  0.77000000000E+02 0.  0.
<mgrwt>
<rscale>  0 0.18131007E+03</rscale>
<asrwt>0</asrwt>
<pdfrwt beam="1">  1        2 0.22832908E+00 0.18131007E+03</pdfrwt>
<pdfrwt beam="2">  1       -2 0.85191435E-03 0.18131007E+03</pdfrwt>
<totfact> 0.36500799E+04</totfact>
</mgrwt>
</event>
<event>
 4    1  0.1195463E-003  0.2391787E+03  0.7818608E-02  0.1120341E+00
          2   -1    0    0  501    0  0.00000000000E+00  0.00000000000E+00  0.27820646277E+03  0.27820646279E+03  0.25500000000E-02 0.  1.
         -2   -1    0    0    0  501 -0.00000000000E+00 -0.00000000000E+00 -0.51406455205E+02  0.51406455268E+02  0.25500000000E-02 0. -1.
    5000001    1    1    2    0    0  0.97503547888E+01  0.89213414060E+02  0.13799462850E+03  0.18172952474E+03  0.77000000000E+02 0.  0.
   -5000001    1    1    2    0    0 -0.97503547888E+01 -0.89213414060E+02  0.88805379069E+02  0.14788339331E+03  0.77000000000E+02 0.  0.
<mgrwt>
<rscale>  0 0.23917866E+03</rscale>
<asrwt>0</asrwt>
<pdfrwt beam="1">  1        2 0.42800994E-01 0.23917866E+03</pdfrwt>
<pdfrwt beam="2">  1       -2 0.79086856E-02 0.23917866E+03</pdfrwt>
<totfact> 0.11229113E+04</totfact>
</mgrwt>
</event>
<event>
 4    1  0.1195463E-003  0.3395602E+03  0.7818608E-02  0.1066983E+00
          2   -1    0    0  501    0  0.00000000000E+00  0.00000000000E+00  0.14258903461E+03  0.14258903464E+03  0.25500000000E-02 0.  1.
         -2   -1    0    0    0  501 -0.00000000000E+00 -0.00000000000E+00 -0.20215640900E+03  0.20215640902E+03  0.25500000000E-02 0. -1.
    5000001    1    1    2    0    0 -0.10862848304E+03 -0.92760860958E+02 -0.80461471107E+02  0.18112916106E+03  0.77000000000E+02 0.  0.
   -5000001    1    1    2    0    0  0.10862848304E+03  0.92760860958E+02  0.20894096721E+02  0.16361628260E+03  0.77000000000E+02 0.  0.
<mgrwt>
<rscale>  0 0.33956023E+03</rscale>
<asrwt>0</asrwt>
<pdfrwt beam="1">  1        2 0.21936775E-01 0.33956023E+03</pdfrwt>
<pdfrwt beam="2">  1       -2 0.31100986E-01 0.33956023E+03</pdfrwt>
<totfact> 0.23979754E+03</totfact>
</mgrwt>
</event>
<event>
 4    1  0.1195463E-003  0.3077270E+03  0.7818608E-02  0.1081441E+00
         -2   -1    0    0    0  501 -0.00000000000E+00  0.00000000000E+00  0.91961528947E+02  0.91961528983E+02  0.25500000000E-02 0. -1.
          2   -1    0    0  501    0  0.00000000000E+00 -0.00000000000E+00 -0.25743347844E+03  0.25743347846E+03  0.25500000000E-02 0.  1.
    5000001    1    1    2    0    0  0.46668972153E+02  0.11225860653E+03 -0.14456075880E+03  0.20397745142E+03  0.77000000000E+02 0.  0.
   -5000001    1    1    2    0    0 -0.46668972153E+02 -0.11225860653E+03 -0.20911190691E+02  0.14541755602E+03  0.77000000000E+02 0.  0.
<mgrwt>
<rscale>  0 0.30772700E+03</rscale>
<asrwt>0</asrwt>
<pdfrwt beam="1">  1        2 0.39605150E-01 0.30772700E+03</pdfrwt>
<pdfrwt beam="2">  1       -2 0.14147928E-01 0.30772700E+03</pdfrwt>
<totfact> 0.48658931E+03</totfact>
</mgrwt>
</event>
<event>
 4    1  0.1195463E-003  0.4637690E+03  0.7818608E-02  0.1023694E+00
         -2   -1    0    0    0  501 -0.00000000000E+00  0.00000000000E+00  0.21471390336E+03  0.21471390338E+03  0.25500000000E-02 0.  1.
          2   -1    0    0  501    0  0.00000000000E+00 -0.00000000000E+00 -0.25042820699E+03  0.25042820700E+03  0.25500000000E-02 0. -1.
    5000001    1    1    2    0    0  0.82854761145E+02  0.19713796990E+03 -0.63962019482E+02  0.23611105556E+03  0.77000000000E+02 0.  0.
   -5000001    1    1    2    0    0 -0.82854761145E+02 -0.19713796990E+03  0.28247715856E+02  0.22903105482E+03  0.77000000000E+02 0.  0.
<mgrwt>
<rscale>  0 0.46376898E+03</rscale>
<asrwt>0</asrwt>
<pdfrwt beam="1">  1        2 0.38527416E-01 0.46376898E+03</pdfrwt>
<pdfrwt beam="2">  1       -2 0.33032908E-01 0.46376898E+03</pdfrwt>
<totfact> 0.11475786E+03</totfact>
</mgrwt>
</event>
<event>
 4    1  0.1195463E-003  0.2737092E+03  0.7818608E-02  0.1099175E+00
          2   -1    0    0  501    0  0.00000000000E+00  0.00000000000E+00  0.79484867803E+03  0.79484867803E+03  0.25500000000E-02 0.  1.
         -2   -1    0    0    0  501 -0.00000000000E+00 -0.00000000000E+00 -0.23563196446E+02  0.23563196584E+02  0.25500000000E-02 0. -1.
    5000001    1    1    2    0    0  0.53429350254E+02 -0.90785288215E+00  0.87463450524E+02  0.12819662571E+03  0.77000000000E+02 0.  0.
   -5000001    1    1    2    0    0 -0.53429350254E+02  0.90785288215E+00  0.68382203106E+03  0.69021524891E+03  0.77000000000E+02 0.  0.
<mgrwt>
<rscale>  0 0.27370916E+03</rscale>
<asrwt>0</asrwt>
<pdfrwt beam="1">  1        2 0.12228441E+00 0.27370916E+03</pdfrwt>
<pdfrwt beam="2">  1       -2 0.36251072E-02 0.27370916E+03</pdfrwt>
<totfact> 0.11362954E+04</totfact>
</mgrwt>
</event>
<event>
 4    1  0.1195463E-003  0.1754304E+03  0.7818608E-02  0.1172300E+00
         -2   -1    0    0    0  501 -0.00000000000E+00  0.00000000000E+00  0.67101623002E+01  0.67101627847E+01  0.25500000000E-02 0. -1.
          2   -1    0    0  501    0  0.00000000000E+00 -0.00000000000E+00 -0.11466119367E+04  0.11466119367E+04  0.25500000000E-02 0.  1.
    5000001    1    1    2    0    0  0.18045998962E+02  0.37835793589E+02 -0.58824940473E+03  0.59474664145E+03  0.77000000000E+02 0.  0.
   -5000001    1    1    2    0    0 -0.18045998962E+02 -0.37835793589E+02 -0.55165236963E+03  0.55857545799E+03  0.77000000000E+02 0.  0.
<mgrwt>
<rscale>  0 0.17543036E+03</rscale>
<asrwt>0</asrwt>
<pdfrwt beam="1">  1        2 0.17640168E+00 0.17543036E+03</pdfrwt>
<pdfrwt beam="2">  1       -2 0.10323336E-02 0.17543036E+03</pdfrwt>
<totfact> 0.42203898E+04</totfact>
</mgrwt>
</event>
<event>
 4    1  0.1195463E-003  0.2618959E+03  0.7818608E-02  0.1106009E+00
         -2   -1    0    0    0  501 -0.00000000000E+00  0.00000000000E+00  0.84236370965E+01  0.84236374824E+01  0.25500000000E-02 0. -1.
          2   -1    0    0  501    0  0.00000000000E+00 -0.00000000000E+00 -0.20356241128E+04  0.20356241128E+04  0.25500000000E-02 0.  1.
    5000001    1    1    2    0    0  0.36151638125E+02 -0.89218757818E+02 -0.13583778635E+04  0.13639598043E+04  0.77000000000E+02 0.  0.
   -5000001    1    1    2    0    0 -0.36151638125E+02  0.89218757818E+02 -0.66882261226E+03  0.68008794604E+03  0.77000000000E+02 0.  0.
<mgrwt>
<rscale>  0 0.26189585E+03</rscale>
<asrwt>0</asrwt>
<pdfrwt beam="1">  1        2 0.31317255E+00 0.26189585E+03</pdfrwt>
<pdfrwt beam="2">  1       -2 0.12959458E-02 0.26189585E+03</pdfrwt>
<totfact> 0.10388137E+04</totfact>
</mgrwt>
</event>
<event>
 4    1  0.1195463E-003  0.4072602E+03  0.7818608E-02  0.1041294E+00
         -2   -1    0    0    0  501 -0.00000000000E+00  0.00000000000E+00  0.31586386897E+02  0.31586387000E+02  0.25500000000E-02 0. -1.
          2   -1    0    0  501    0  0.00000000000E+00 -0.00000000000E+00 -0.13127559863E+04  0.13127559863E+04  0.25500000000E-02 0.  1.
    5000001    1    1    2    0    0  0.16680594098E+03 -0.21502548981E+02 -0.92164285901E+03  0.94002188332E+03  0.77000000000E+02 0.  0.
   -5000001    1    1    2    0    0 -0.16680594098E+03  0.21502548981E+02 -0.35952674038E+03  0.40432048996E+03  0.77000000000E+02 0.  0.
<mgrwt>
<rscale>  0 0.40726020E+03</rscale>
<asrwt>0</asrwt>
<pdfrwt beam="1">  1        2 0.20196242E+00 0.40726020E+03</pdfrwt>
<pdfrwt beam="2">  1       -2 0.48594452E-02 0.40726020E+03</pdfrwt>
<totfact> 0.35383282E+03</totfact>
</mgrwt>
</event>
<event>
 4    1  0.1195463E-003  0.5390354E+03  0.7818608E-02  0.1004064E+00
          2   -1    0    0  501    0  0.00000000000E+00  0.00000000000E+00  0.25136453504E+03  0.25136453505E+03  0.25500000000E-02 0.  1.
         -2   -1    0    0    0  501 -0.00000000000E+00 -0.00000000000E+00 -0.28898187986E+03  0.28898187988E+03  0.25500000000E-02 0. -1.
    5000001    1    1    2    0    0 -0.56552169434E+02  0.24358354739E+03  0.45999191310E+02  0.26566147260E+03  0.77000000000E+02 0.  0.
   -5000001    1    1    2    0    0  0.56552169434E+02 -0.24358354739E+03 -0.83616536133E+02  0.27468494233E+03  0.77000000000E+02 0.  0.
<mgrwt>
<rscale>  0 0.53903542E+03</rscale>
<asrwt>0</asrwt>
<pdfrwt beam="1">  1        2 0.38671467E-01 0.53903542E+03</pdfrwt>
<pdfrwt beam="2">  1       -2 0.44458751E-01 0.53903542E+03</pdfrwt>
<totfact> 0.64582672E+02</totfact>
</mgrwt>
</event>
<event>
 4    1  0.1195463E-003  0.1818531E+03  0.7818608E-02  0.1166022E+00
          2   -1    0    0  501    0  0.00000000000E+00  0.00000000000E+00  0.78250502314E+02  0.78250502356E+02  0.25500000000E-02 0.  1.
         -2   -1    0    0    0  501 -0.00000000000E+00 -0.00000000000E+00 -0.10565600111E+03  0.10565600114E+03  0.25500000000E-02 0. -1.
    5000001    1    1    2    0    0 -0.44877609945E+02  0.18003544222E+02 -0.14423316581E+02  0.92060629696E+02  0.77000000000E+02 0.  0.
   -5000001    1    1    2    0    0  0.44877609945E+02 -0.18003544222E+02 -0.12982182214E+02  0.91845873799E+02  0.77000000000E+02 0.  0.
<mgrwt>
<rscale>  0 0.18185307E+03</rscale>
<asrwt>0</asrwt>
<pdfrwt beam="1">  1        2 0.12038539E-01 0.18185307E+03</pdfrwt>
<pdfrwt beam="2">  1       -2 0.16254769E-01 0.18185307E+03</pdfrwt>
<totfact> 0.14565864E+04</totfact>
</mgrwt>
</event>
<event>
 4    1  0.1195463E-003  0.3102035E+03  0.7818608E-02  0.1080248E+00
          2   -1    0    0  501    0  0.00000000000E+00  0.00000000000E+00  0.44955258201E+03  0.44955258202E+03  0.25500000000E-02 0.  1.
         -2   -1    0    0    0  501 -0.00000000000E+00 -0.00000000000E+00 -0.53512214361E+02  0.53512214422E+02  0.25500000000E-02 0. -1.
    5000001    1    1    2    0    0 -0.79958132895E+02  0.93723620927E+02  0.28610440009E+03  0.32087715389E+03  0.77000000000E+02 0.  0.
   -5000001    1    1    2    0    0  0.79958132895E+02 -0.93723620927E+02  0.10993596756E+03  0.18218764255E+03  0.77000000000E+02 0.  0.
<mgrwt>
<rscale>  0 0.31020351E+03</rscale>
<asrwt>0</asrwt>
<pdfrwt beam="1">  1        2 0.69161934E-01 0.31020351E+03</pdfrwt>
<pdfrwt beam="2">  1       -2 0.82326485E-02 0.31020351E+03</pdfrwt>
<totfact> 0.63372071E+03</totfact>
</mgrwt>
</event>
<event>
 4    1  0.1195463E-003  0.2690559E+03  0.7818608E-02  0.1101821E+00
         -2   -1    0    0    0  501 -0.00000000000E+00  0.00000000000E+00  0.46612619300E+03  0.46612619300E+03  0.25500000000E-02 0. -1.
          2   -1    0    0  501    0  0.00000000000E+00 -0.00000000000E+00 -0.38825891154E+02  0.38825891238E+02  0.25500000000E-02 0.  1.
    5000001    1    1    2    0    0  0.72007986098E+02 -0.73047287823E+02  0.13746893525E+03  0.18801001164E+03  0.77000000000E+02 0.  0.
   -5000001    1    1    2    0    0 -0.72007986098E+02  0.73047287823E+02  0.28983136660E+03  0.31694207260E+03  0.77000000000E+02 0.  0.
<mgrwt>
<rscale>  0 0.26905587E+03</rscale>
<asrwt>0</asrwt>
<pdfrwt beam="1">  1        2 0.59732136E-02 0.26905587E+03</pdfrwt>
<pdfrwt beam="2">  1       -2 0.71711728E-01 0.26905587E+03</pdfrwt>
<totfact> 0.22423154E+03</totfact>
</mgrwt>
</event>
<event>
 4    1  0.1195463E-003  0.2251475E+03  0.7818608E-02  0.1130103E+00
          2   -1    0    0  501    0  0.00000000000E+00  0.00000000000E+00  0.13368682058E+04  0.13368682058E+04  0.25500000000E-02 0.  1.
         -2   -1    0    0    0  501 -0.00000000000E+00 -0.00000000000E+00 -0.94795075630E+01  0.94795079060E+01  0.25500000000E-02 0. -1.
    5000001    1    1    2    0    0  0.19566361723E+02 -0.73902338460E+02  0.84303536143E+03  0.84998942273E+03  0.77000000000E+02 0.  0.
   -5000001    1    1    2    0    0 -0.19566361723E+02  0.73902338460E+02  0.48435333679E+03  0.49635829096E+03  0.77000000000E+02 0.  0.
<mgrwt>
<rscale>  0 0.22514753E+03</rscale>
<asrwt>0</asrwt>
<pdfrwt beam="1">  1        2 0.20567191E+00 0.22514753E+03</pdfrwt>
<pdfrwt beam="2">  1       -2 0.14583866E-02 0.22514753E+03</pdfrwt>
<totfact> 0.20375049E+04</totfact>
</mgrwt>
</event>
<event>
 4    1  0.1195463E-003  0.8541972E+03  0.7818608E-02  0.9484721E-01
          2   -1    0    0  501    0  0.00000000000E+00  0.00000000000E+00  0.39189460527E+03  0.39189460528E+03  0.25500000000E-02 0.  1.
         -2   -1    0    0    0  501 -0.00000000000E+00 -0.00000000000E+00 -0.46546492967E+03  0.46546492968E+03  0.25500000000E-02 0. -1.
    5000001    1    1    2    0    0 -0.19790317749E+03 -0.22507944030E+03 -0.33225191753E+03  0.45403387407E+03  0.77000000000E+02 0.  0.
   -5000001    1    1    2    0    0  0.19790317749E+03  0.22507944030E+03  0.25868159313E+03  0.40332566089E+03  0.77000000000E+02 0.  0.
<mgrwt>
<rscale>  0 0.85419715E+03</rscale>
<asrwt>0</asrwt>
<pdfrwt beam="1">  1        2 0.60291478E-01 0.85419715E+03</pdfrwt>
<pdfrwt beam="2">  1       -2 0.71609989E-01 0.85419715E+03</pdfrwt>
<totfact> 0.14477138E+02</totfact>
</mgrwt>
</event>
<event>
 4    1  0.1195463E-003  0.4758087E+03  0.7818608E-02  0.1020293E+00
         -2   -1    0    0    0  501 -0.00000000000E+00  0.00000000000E+00  0.68649146775E+02  0.68649146822E+02  0.25500000000E-02 0. -1.
          2   -1    0    0  501    0  0.00000000000E+00 -0.00000000000E+00 -0.82446020533E+03  0.82446020533E+03  0.25500000000E-02 0.  1.
    5000001    1    1    2    0    0  0.11186402484E+03 -0.15151156217E+03 -0.14648785180E+03  0.25071299178E+03  0.77000000000E+02 0.  0.
   -5000001    1    1    2    0    0 -0.11186402484E+03  0.15151156217E+03 -0.60932320676E+03  0.64239636037E+03  0.77000000000E+02 0.  0.
<mgrwt>
<rscale>  0 0.47580874E+03</rscale>
<asrwt>0</asrwt>
<pdfrwt beam="1">  1        2 0.12684002E+00 0.47580874E+03</pdfrwt>
<pdfrwt beam="2">  1       -2 0.10561408E-01 0.47580874E+03</pdfrwt>
<totfact> 0.20801131E+03</totfact>
</mgrwt>
</event>
<event>
 4    1  0.1195463E-003  0.1806824E+03  0.7818608E-02  0.1167144E+00
          2   -1    0    0  501    0  0.00000000000E+00  0.00000000000E+00  0.16025279195E+04  0.16025279195E+04  0.25500000000E-02 0.  1.
         -2   -1    0    0    0  501 -0.00000000000E+00 -0.00000000000E+00 -0.50929118353E+01  0.50929124737E+01  0.25500000000E-02 0. -1.
    5000001    1    1    2    0    0 -0.35437926777E+02 -0.30690932591E+02  0.85117042296E+03  0.85593099542E+03  0.77000000000E+02 0.  0.
   -5000001    1    1    2    0    0  0.35437926777E+02  0.30690932591E+02  0.74626458468E+03  0.75168983653E+03  0.77000000000E+02 0.  0.
<mgrwt>
<rscale>  0 0.18068242E+03</rscale>
<asrwt>0</asrwt>
<pdfrwt beam="1">  1        2 0.24654331E+00 0.18068242E+03</pdfrwt>
<pdfrwt beam="2">  1       -2 0.78352320E-03 0.18068242E+03</pdfrwt>
<totfact> 0.35664187E+04</totfact>
</mgrwt>
</event>
<event>
 4    1  0.1195463E-003  0.3100222E+03  0.7818608E-02  0.1080335E+00
         -2   -1    0    0    0  501 -0.00000000000E+00  0.00000000000E+00  0.33719339943E+02  0.33719340040E+02  0.25500000000E-02 0. -1.
          2   -1    0    0  501    0  0.00000000000E+00 -0.00000000000E+00 -0.71260099886E+03  0.71260099887E+03  0.25500000000E-02 0.  1.
    5000001    1    1    2    0    0  0.12603161057E+03 -0.45328673776E+02 -0.30891634605E+03  0.34539392639E+03  0.77000000000E+02 0.  0.
   -5000001    1    1    2    0    0 -0.12603161057E+03  0.45328673776E+02 -0.36996531287E+03  0.40092641252E+03  0.77000000000E+02 0.  0.
<mgrwt>
<rscale>  0 0.31002216E+03</rscale>
<asrwt>0</asrwt>
<pdfrwt beam="1">  1        2 0.10963091E+00 0.31002216E+03</pdfrwt>
<pdfrwt beam="2">  1       -2 0.51875913E-02 0.31002216E+03</pdfrwt>
<totfact> 0.76023228E+03</totfact>
</mgrwt>
</event>
<event>
 4    1  0.1195463E-003  0.2017132E+03  0.7818608E-02  0.1148302E+00
          2   -1    0    0  501    0  0.00000000000E+00  0.00000000000E+00  0.40642677598E+03  0.40642677599E+03  0.25500000000E-02 0.  1.
         -2   -1    0    0    0  501 -0.00000000000E+00 -0.00000000000E+00 -0.25028017911E+02  0.25028018041E+02  0.25500000000E-02 0. -1.
    5000001    1    1    2    0    0  0.31916829335E+01 -0.59633643822E+02  0.24634083358E+03  0.26491350400E+03  0.77000000000E+02 0.  0.
   -5000001    1    1    2    0    0 -0.31916829335E+01  0.59633643822E+02  0.13505792449E+03  0.16654129003E+03  0.77000000000E+02 0.  0.
<mgrwt>
<rscale>  0 0.20171323E+03</rscale>
<asrwt>0</asrwt>
<pdfrwt beam="1">  1        2 0.62527188E-01 0.20171323E+03</pdfrwt>
<pdfrwt beam="2">  1       -2 0.38504648E-02 0.20171323E+03</pdfrwt>
<totfact> 0.22133244E+04</totfact>
</mgrwt>
</event>
<event>
 4    1  0.1195463E-003  0.2295721E+03  0.7818608E-02  0.1126941E+00
          2   -1    0    0  501    0  0.00000000000E+00  0.00000000000E+00  0.66418741435E+03  0.66418741436E+03  0.25500000000E-02 0.  1.
         -2   -1    0    0    0  501 -0.00000000000E+00 -0.00000000000E+00 -0.19837534095E+02  0.19837534259E+02  0.25500000000E-02 0. -1.
    5000001    1    1    2    0    0 -0.50164172025E+02 -0.61770520415E+02  0.23205608481E+03  0.25712072621E+03  0.77000000000E+02 0.  0.
   -5000001    1    1    2    0    0  0.50164172025E+02  0.61770520415E+02  0.41229379545E+03  0.42690422241E+03  0.77000000000E+02 0.  0.
<mgrwt>
<rscale>  0 0.22957213E+03</rscale>
<asrwt>0</asrwt>
<pdfrwt beam="1">  1        2 0.10218267E+00 0.22957213E+03</pdfrwt>
<pdfrwt beam="2">  1       -2 0.30519285E-02 0.22957213E+03</pdfrwt>
<totfact> 0.18161571E+04</totfact>
</mgrwt>
</event>
<event>
 4    1  0.1195463E-003  0.2617503E+03  0.7818608E-02  0.1106096E+00
         -2   -1    0    0    0  501 -0.00000000000E+00  0.00000000000E+00  0.20582729127E+02  0.20582729285E+02  0.25500000000E-02 0. -1.
          2   -1    0    0  501    0  0.00000000000E+00 -0.00000000000E+00 -0.83216871560E+03  0.83216871560E+03  0.25500000000E-02 0.  1.
    5000001    1    1    2    0    0  0.26114482512E+02 -0.98467612750E+02 -0.31241808445E+03  0.33750836500E+03  0.77000000000E+02 0.  0.
   -5000001    1    1    2    0    0 -0.26114482512E+02  0.98467612750E+02 -0.49916790203E+03  0.51524307989E+03  0.77000000000E+02 0.  0.
<mgrwt>
<rscale>  0 0.26175029E+03</rscale>
<asrwt>0</asrwt>
<pdfrwt beam="1">  1        2 0.12802593E+00 0.26175029E+03</pdfrwt>
<pdfrwt beam="2">  1       -2 0.31665744E-02 0.26175029E+03</pdfrwt>
<totfact> 0.13091556E+04</totfact>
</mgrwt>
</event>
<event>
 4    1  0.1195463E-003  0.2274271E+03  0.7818608E-02  0.1128464E+00
         -2   -1    0    0    0  501 -0.00000000000E+00  0.00000000000E+00  0.13967390603E+02  0.13967390836E+02  0.25500000000E-02 0. -1.
          2   -1    0    0  501    0  0.00000000000E+00 -0.00000000000E+00 -0.92578298131E+03  0.92578298132E+03  0.25500000000E-02 0.  1.
    5000001    1    1    2    0    0 -0.87714134872E+01  0.62967403204E+02 -0.23109977304E+03  0.25174975006E+03  0.77000000000E+02 0.  0.
   -5000001    1    1    2    0    0  0.87714134872E+01 -0.62967403204E+02 -0.68071581767E+03  0.68800062209E+03  0.77000000000E+02 0.  0.
<mgrwt>
<rscale>  0 0.22742711E+03</rscale>
<asrwt>0</asrwt>
<pdfrwt beam="1">  1        2 0.14242810E+00 0.22742711E+03</pdfrwt>
<pdfrwt beam="2">  1       -2 0.21488301E-02 0.22742711E+03</pdfrwt>
<totfact> 0.20049921E+04</totfact>
</mgrwt>
</event>
<event>
 4    1  0.1195463E-003  0.2511870E+03  0.7818608E-02  0.1112557E+00
         -2   -1    0    0    0  501 -0.00000000000E+00  0.00000000000E+00  0.15758337909E+02  0.15758338116E+02  0.25500000000E-02 0. -1.
          2   -1    0    0  501    0  0.00000000000E+00 -0.00000000000E+00 -0.10009768868E+04  0.10009768868E+04  0.25500000000E-02 0.  1.
    5000001    1    1    2    0    0  0.98469979317E+02  0.12058136910E+02 -0.48560234595E+03  0.50157788417E+03  0.77000000000E+02 0.  0.
   -5000001    1    1    2    0    0 -0.98469979317E+02 -0.12058136910E+02 -0.49961620298E+03  0.51515734080E+03  0.77000000000E+02 0.  0.
<mgrwt>
<rscale>  0 0.25118704E+03</rscale>
<asrwt>0</asrwt>
<pdfrwt beam="1">  1        2 0.15399639E+00 0.25118704E+03</pdfrwt>
<pdfrwt beam="2">  1       -2 0.24243605E-02 0.25118704E+03</pdfrwt>
<totfact> 0.15145201E+04</totfact>
</mgrwt>
</event>
<event>
 4    1  0.1195463E-003  0.1793213E+03  0.7818608E-02  0.1168461E+00
          2   -1    0    0  501    0  0.00000000000E+00  0.00000000000E+00  0.86574125539E+02  0.86574125577E+02  0.25500000000E-02 0.  1.
         -2   -1    0    0    0  501 -0.00000000000E+00 -0.00000000000E+00 -0.92857239818E+02  0.92857239853E+02  0.25500000000E-02 0. -1.
    5000001    1    1    2    0    0  0.21781695007E+02  0.39958751211E+02  0.30984791558E+01  0.89497176541E+02  0.77000000000E+02 0.  0.
   -5000001    1    1    2    0    0 -0.21781695007E+02 -0.39958751211E+02 -0.93815934343E+01  0.89934188889E+02  0.77000000000E+02 0.  0.
<mgrwt>
<rscale>  0 0.17932132E+03</rscale>
<asrwt>0</asrwt>
<pdfrwt beam="1">  1        2 0.13319096E-01 0.17932132E+03</pdfrwt>
<pdfrwt beam="2">  1       -2 0.14285729E-01 0.17932132E+03</pdfrwt>
<totfact> 0.15934661E+04</totfact>
</mgrwt>
</event>
<event>
 4    1  0.1195463E-003  0.2606165E+03  0.7818608E-02  0.1106773E+00
         -2   -1    0    0    0  501 -0.00000000000E+00  0.00000000000E+00  0.28384701763E+02  0.28384701878E+02  0.25500000000E-02 0. -1.
          2   -1    0    0  501    0  0.00000000000E+00 -0.00000000000E+00 -0.59821785353E+03  0.59821785353E+03  0.25500000000E-02 0.  1.
    5000001    1    1    2    0    0  0.93704650440E+02 -0.47054265701E+02 -0.26683304356E+03  0.29685609068E+03  0.77000000000E+02 0.  0.
   -5000001    1    1    2    0    0 -0.93704650440E+02  0.47054265701E+02 -0.30300010820E+03  0.32974646473E+03  0.77000000000E+02 0.  0.
<mgrwt>
<rscale>  0 0.26061646E+03</rscale>
<asrwt>0</asrwt>
<pdfrwt beam="1">  1        2 0.92033507E-01 0.26061646E+03</pdfrwt>
<pdfrwt beam="2">  1       -2 0.43668776E-02 0.26061646E+03</pdfrwt>
<totfact> 0.12088322E+04</totfact>
</mgrwt>
</event>
<event>
 4    1  0.1195463E-003  0.2840001E+03  0.7818608E-02  0.1093524E+00
          2   -1    0    0  501    0  0.00000000000E+00  0.00000000000E+00  0.70295746537E+03  0.70295746537E+03  0.25500000000E-02 0.  1.
         -2   -1    0    0    0  501 -0.00000000000E+00 -0.00000000000E+00 -0.28684546708E+02  0.28684546821E+02  0.25500000000E-02 0. -1.
    5000001    1    1    2    0    0 -0.22344177911E+02 -0.87629778866E+02  0.13664269443E+03  0.18104824322E+03  0.77000000000E+02 0.  0.
   -5000001    1    1    2    0    0  0.22344177911E+02  0.87629778866E+02  0.53763022423E+03  0.55059376898E+03  0.77000000000E+02 0.  0.
<mgrwt>
<rscale>  0 0.28400011E+03</rscale>
<asrwt>0</asrwt>
<pdfrwt beam="1">  1        2 0.10814731E+00 0.28400011E+03</pdfrwt>
<pdfrwt beam="2">  1       -2 0.44130070E-02 0.28400011E+03</pdfrwt>
<totfact> 0.98576468E+03</totfact>
</mgrwt>
</event>
<event>
 4    1  0.1195463E-003  0.3057980E+03  0.7818608E-02  0.1082378E+00
          2   -1    0    0  501    0  0.00000000000E+00  0.00000000000E+00  0.45384617389E+03  0.45384617390E+03  0.25500000000E-02 0.  1.
         -2   -1    0    0    0  501 -0.00000000000E+00 -0.00000000000E+00 -0.51511064975E+02  0.51511065038E+02  0.25500000000E-02 0. -1.
    5000001    1    1    2    0    0  0.11559781421E+03 -0.21264841003E+02  0.30079051409E+03  0.33199244190E+03  0.77000000000E+02 0.  0.
   -5000001    1    1    2    0    0 -0.11559781421E+03  0.21264841003E+02  0.10154459483E+03  0.17336479704E+03  0.77000000000E+02 0.  0.
<mgrwt>
<rscale>  0 0.30579797E+03</rscale>
<asrwt>0</asrwt>
<pdfrwt beam="1">  1        2 0.69822490E-01 0.30579797E+03</pdfrwt>
<pdfrwt beam="2">  1       -2 0.79247790E-02 0.30579797E+03</pdfrwt>
<totfact> 0.66542839E+03</totfact>
</mgrwt>
</event>
<event>
 4    1  0.1195463E-003  0.1968968E+03  0.7818608E-02  0.1152384E+00
          2   -1    0    0  501    0  0.00000000000E+00  0.00000000000E+00  0.34639207791E+03  0.34639207792E+03  0.25500000000E-02 0.  1.
         -2   -1    0    0    0  501 -0.00000000000E+00 -0.00000000000E+00 -0.27980111385E+02  0.27980111501E+02  0.25500000000E-02 0. -1.
    5000001    1    1    2    0    0  0.13502116459E+02 -0.59043102036E+02  0.17770829049E+03  0.20292272312E+03  0.77000000000E+02 0.  0.
   -5000001    1    1    2    0    0 -0.13502116459E+02  0.59043102036E+02  0.14070367603E+03  0.17144946630E+03  0.77000000000E+02 0.  0.
<mgrwt>
<rscale>  0 0.19689682E+03</rscale>
<asrwt>0</asrwt>
<pdfrwt beam="1">  1        2 0.53291091E-01 0.19689682E+03</pdfrwt>
<pdfrwt beam="2">  1       -2 0.43046324E-02 0.19689682E+03</pdfrwt>
<totfact> 0.22203631E+04</totfact>
</mgrwt>
</event>
<event>
 4    1  0.1195463E-003  0.2545675E+03  0.7818608E-02  0.1110452E+00
         -2   -1    0    0    0  501 -0.00000000000E+00  0.00000000000E+00  0.54773148160E+01  0.54773154096E+01  0.25500000000E-02 0. -1.
          2   -1    0    0  501    0  0.00000000000E+00 -0.00000000000E+00 -0.29578632314E+04  0.29578632314E+04  0.25500000000E-02 0.  1.
    5000001    1    1    2    0    0  0.24543009470E+02 -0.33223073492E+02 -0.25535710185E+04  0.25550655722E+04  0.77000000000E+02 0.  0.
   -5000001    1    1    2    0    0 -0.24543009470E+02  0.33223073492E+02 -0.39881489807E+03  0.40827497455E+03  0.77000000000E+02 0.  0.
<mgrwt>
<rscale>  0 0.25456747E+03</rscale>
<asrwt>0</asrwt>
<pdfrwt beam="1">  1        2 0.45505461E+00 0.25456747E+03</pdfrwt>
<pdfrwt beam="2">  1       -2 0.84266623E-03 0.25456747E+03</pdfrwt>
<totfact> 0.60370157E+03</totfact>
</mgrwt>
</event>
<event>
 4    1  0.1195463E-003  0.1907036E+03  0.7818608E-02  0.1157828E+00
          2   -1    0    0  501    0  0.00000000000E+00  0.00000000000E+00  0.54799149654E+03  0.54799149655E+03  0.25500000000E-02 0.  1.
         -2   -1    0    0    0  501 -0.00000000000E+00 -0.00000000000E+00 -0.16591436164E+02  0.16591436360E+02  0.25500000000E-02 0. -1.
    5000001    1    1    2    0    0 -0.45498318881E+02 -0.30994298067E+02  0.29974253120E+03  0.31433314897E+03  0.77000000000E+02 0.  0.
   -5000001    1    1    2    0    0  0.45498318881E+02  0.30994298067E+02  0.23165752918E+03  0.25024978393E+03  0.77000000000E+02 0.  0.
<mgrwt>
<rscale>  0 0.19070360E+03</rscale>
<asrwt>0</asrwt>
<pdfrwt beam="1">  1        2 0.84306370E-01 0.19070360E+03</pdfrwt>
<pdfrwt beam="2">  1       -2 0.25525291E-02 0.19070360E+03</pdfrwt>
<totfact> 0.29168573E+04</totfact>
</mgrwt>
</event>
<event>
 4    1  0.1195463E-003  0.1787339E+03  0.7818608E-02  0.1169034E+00
         -2   -1    0    0    0  501 -0.00000000000E+00  0.00000000000E+00  0.44297185847E+01  0.44297193187E+01  0.25500000000E-02 0. -1.
          2   -1    0    0  501    0  0.00000000000E+00 -0.00000000000E+00 -0.18029252224E+04  0.18029252224E+04  0.25500000000E-02 0.  1.
    5000001    1    1    2    0    0 -0.40025026628E+02  0.21259484198E+02 -0.91812118655E+03  0.92245839018E+03  0.77000000000E+02 0.  0.
   -5000001    1    1    2    0    0  0.40025026628E+02 -0.21259484198E+02 -0.88037431731E+03  0.88489655159E+03  0.77000000000E+02 0.  0.
<mgrwt>
<rscale>  0 0.17873390E+03</rscale>
<asrwt>0</asrwt>
<pdfrwt beam="1">  1        2 0.27737253E+00 0.17873390E+03</pdfrwt>
<pdfrwt beam="2">  1       -2 0.68149666E-03 0.17873390E+03</pdfrwt>
<totfact> 0.34262049E+04</totfact>
</mgrwt>
</event>
<event>
 4    1  0.1195463E-003  0.1919663E+03  0.7818608E-02  0.1156700E+00
          2   -1    0    0  501    0  0.00000000000E+00  0.00000000000E+00  0.15556239484E+04  0.15556239484E+04  0.25500000000E-02 0.  1.
         -2   -1    0    0    0  501 -0.00000000000E+00 -0.00000000000E+00 -0.59222338421E+01  0.59222343911E+01  0.25500000000E-02 0. -1.
    5000001    1    1    2    0    0 -0.64353352274E+01  0.55869463516E+02  0.86431486516E+03  0.86955850673E+03  0.77000000000E+02 0.  0.
   -5000001    1    1    2    0    0  0.64353352274E+01 -0.55869463516E+02  0.68538684939E+03  0.69198767606E+03  0.77000000000E+02 0.  0.
<mgrwt>
<rscale>  0 0.19196634E+03</rscale>
<asrwt>0</asrwt>
<pdfrwt beam="1">  1        2 0.23932692E+00 0.19196634E+03</pdfrwt>
<pdfrwt beam="2">  1       -2 0.91111233E-03 0.19196634E+03</pdfrwt>
<totfact> 0.30496253E+04</totfact>
</mgrwt>
</event>
<event>
 4    1  0.1195463E-003  0.2939685E+03  0.7818608E-02  0.1088295E+00
         -2   -1    0    0    0  501 -0.00000000000E+00  0.00000000000E+00  0.87115385582E+01  0.87115389314E+01  0.25500000000E-02 0. -1.
          2   -1    0    0  501    0  0.00000000000E+00 -0.00000000000E+00 -0.24799709077E+04  0.24799709077E+04  0.25500000000E-02 0.  1.
    5000001    1    1    2    0    0  0.73902008495E+02  0.93936847800E+02 -0.15512268571E+04  0.15577289239E+04  0.77000000000E+02 0.  0.
   -5000001    1    1    2    0    0 -0.73902008495E+02 -0.93936847800E+02 -0.92003251205E+03  0.93095352272E+03  0.77000000000E+02 0.  0.
<mgrwt>
<rscale>  0 0.29396845E+03</rscale>
<asrwt>0</asrwt>
<pdfrwt beam="1">  1        2 0.38153342E+00 0.29396845E+03</pdfrwt>
<pdfrwt beam="2">  1       -2 0.13402387E-02 0.29396845E+03</pdfrwt>
<totfact> 0.57206788E+03</totfact>
</mgrwt>
</event>
<event>
 4    1  0.1195463E-003  0.2645677E+03  0.7818608E-02  0.1104430E+00
         -2   -1    0    0    0  501 -0.00000000000E+00  0.00000000000E+00  0.39752464073E+03  0.39752464074E+03  0.25500000000E-02 0. -1.
          2   -1    0    0  501    0  0.00000000000E+00 -0.00000000000E+00 -0.44019944924E+02  0.44019944998E+02  0.25500000000E-02 0.  1.
    5000001    1    1    2    0    0  0.53339259681E+01 -0.94722617504E+02  0.92159096622E+02  0.15304615031E+03  0.77000000000E+02 0.  0.
   -5000001    1    1    2    0    0 -0.53339259681E+01  0.94722617504E+02  0.26134559918E+03  0.28849843543E+03  0.77000000000E+02 0.  0.
<mgrwt>
<rscale>  0 0.26456767E+03</rscale>
<asrwt>0</asrwt>
<pdfrwt beam="1">  1        2 0.67722991E-02 0.26456767E+03</pdfrwt>
<pdfrwt beam="2">  1       -2 0.61157638E-01 0.26456767E+03</pdfrwt>
<totfact> 0.26666681E+03</totfact>
</mgrwt>
</event>
<event>
 4    1  0.1195463E-003  0.2138940E+03  0.7818608E-02  0.1138519E+00
          2   -1    0    0  501    0  0.00000000000E+00  0.00000000000E+00  0.52591583312E+03  0.52591583313E+03  0.25500000000E-02 0.  1.
         -2   -1    0    0    0  501 -0.00000000000E+00 -0.00000000000E+00 -0.21748076034E+02  0.21748076184E+02  0.25500000000E-02 0. -1.
    5000001    1    1    2    0    0  0.32093522660E+02  0.10220251313E+02  0.82741604368E+02  0.11793905556E+03  0.77000000000E+02 0.  0.
   -5000001    1    1    2    0    0 -0.32093522660E+02 -0.10220251313E+02  0.42142615272E+03  0.42972485375E+03  0.77000000000E+02 0.  0.
<mgrwt>
<rscale>  0 0.21389397E+03</rscale>
<asrwt>0</asrwt>
<pdfrwt beam="1">  1        2 0.80910123E-01 0.21389397E+03</pdfrwt>
<pdfrwt beam="2">  1       -2 0.33458581E-02 0.21389397E+03</pdfrwt>
<totfact> 0.20640108E+04</totfact>
</mgrwt>
</event>
<event>
 4    1  0.1195463E-003  0.3030283E+03  0.7818608E-02  0.1083737E+00
          2   -1    0    0  501    0  0.00000000000E+00  0.00000000000E+00  0.26923605118E+03  0.26923605119E+03  0.25500000000E-02 0.  1.
         -2   -1    0    0    0  501 -0.00000000000E+00 -0.00000000000E+00 -0.85265484757E+02  0.85265484795E+02  0.25500000000E-02 0. -1.
    5000001    1    1    2    0    0  0.77698659932E+02 -0.41378269779E+02 -0.20700487495E+02  0.11877185335E+03  0.77000000000E+02 0.  0.
   -5000001    1    1    2    0    0 -0.77698659932E+02  0.41378269779E+02  0.20467105392E+03  0.23572968264E+03  0.77000000000E+02 0.  0.
<mgrwt>
<rscale>  0 0.30302833E+03</rscale>
<asrwt>0</asrwt>
<pdfrwt beam="1">  1        2 0.41420930E-01 0.30302833E+03</pdfrwt>
<pdfrwt beam="2">  1       -2 0.13117767E-01 0.30302833E+03</pdfrwt>
<totfact> 0.52452192E+03</totfact>
</mgrwt>
</event>
<event>
 4    1  0.1195463E-003  0.3296540E+03  0.7818608E-02  0.1071290E+00
          2   -1    0    0  501    0  0.00000000000E+00  0.00000000000E+00  0.59282022623E+03  0.59282022624E+03  0.25500000000E-02 0.  1.
         -2   -1    0    0    0  501 -0.00000000000E+00 -0.00000000000E+00 -0.45828308251E+02  0.45828308322E+02  0.25500000000E-02 0. -1.
    5000001    1    1    2    0    0  0.86785179066E+02  0.11621495693E+03  0.30098724364E+03  0.34287009837E+03  0.77000000000E+02 0.  0.
   -5000001    1    1    2    0    0 -0.86785179066E+02 -0.11621495693E+03  0.24600467434E+03  0.29577843619E+03  0.77000000000E+02 0.  0.
<mgrwt>
<rscale>  0 0.32965405E+03</rscale>
<asrwt>0</asrwt>
<pdfrwt beam="1">  1        2 0.91203105E-01 0.32965405E+03</pdfrwt>
<pdfrwt beam="2">  1       -2 0.70505095E-02 0.32965405E+03</pdfrwt>
<totfact> 0.59117917E+03</totfact>
</mgrwt>
</event>
<event>
 4    1  0.1195463E-003  0.5107405E+03  0.7818608E-02  0.1011013E+00
          2   -1    0    0  501    0  0.00000000000E+00  0.00000000000E+00  0.13955286767E+04  0.13955286767E+04  0.25500000000E-02 0.  1.
         -2   -1    0    0    0  501 -0.00000000000E+00 -0.00000000000E+00 -0.46730650855E+02  0.46730650925E+02  0.25500000000E-02 0. -1.
    5000001    1    1    2    0    0  0.15921897744E+03  0.34415198142E+02  0.16336726123E+03  0.24321379624E+03  0.77000000000E+02 0.  0.
   -5000001    1    1    2    0    0 -0.15921897744E+03 -0.34415198142E+02  0.11854307646E+04  0.11990455314E+04  0.77000000000E+02 0.  0.
<mgrwt>
<rscale>  0 0.51074050E+03</rscale>
<asrwt>0</asrwt>
<pdfrwt beam="1">  1        2 0.21469674E+00 0.51074050E+03</pdfrwt>
<pdfrwt beam="2">  1       -2 0.71893304E-02 0.51074050E+03</pdfrwt>
<totfact> 0.17263715E+03</totfact>
</mgrwt>
</event>
<event>
 4    1  0.1195463E-003  0.2937473E+03  0.7818608E-02  0.1088409E+00
         -2   -1    0    0    0  501 -0.00000000000E+00  0.00000000000E+00  0.12489915458E+03  0.12489915461E+03  0.25500000000E-02 0. -1.
          2   -1    0    0  501    0  0.00000000000E+00 -0.00000000000E+00 -0.17271424067E+03  0.17271424069E+03  0.25500000000E-02 0.  1.
    5000001    1    1    2    0    0 -0.10598846016E+03 -0.14599752061E+02 -0.89537856557E+02  0.15935097805E+03  0.77000000000E+02 0.  0.
   -5000001    1    1    2    0    0  0.10598846016E+03  0.14599752061E+02  0.41722770474E+02  0.13826241725E+03  0.77000000000E+02 0.  0.
<mgrwt>
<rscale>  0 0.29374726E+03</rscale>
<asrwt>0</asrwt>
<pdfrwt beam="1">  1        2 0.26571422E-01 0.29374726E+03</pdfrwt>
<pdfrwt beam="2">  1       -2 0.19215255E-01 0.29374726E+03</pdfrwt>
<totfact> 0.45074043E+03</totfact>
</mgrwt>
</event>
<event>
 4    1  0.1195463E-003  0.2367195E+03  0.7818608E-02  0.1121998E+00
          2   -1    0    0  501    0  0.00000000000E+00  0.00000000000E+00  0.58310771546E+02  0.58310771602E+02  0.25500000000E-02 0.  1.
         -2   -1    0    0    0  501 -0.00000000000E+00 -0.00000000000E+00 -0.24024781663E+03  0.24024781664E+03  0.25500000000E-02 0. -1.
    5000001    1    1    2    0    0  0.39253048892E+02 -0.72880813581E+02 -0.13515888459E+03  0.17620822603E+03  0.77000000000E+02 0.  0.
   -5000001    1    1    2    0    0 -0.39253048892E+02  0.72880813581E+02 -0.46778160491E+02  0.12235036222E+03  0.77000000000E+02 0.  0.
<mgrwt>
<rscale>  0 0.23671954E+03</rscale>
<asrwt>0</asrwt>
<pdfrwt beam="1">  1        2 0.89708881E-02 0.23671954E+03</pdfrwt>
<pdfrwt beam="2">  1       -2 0.36961202E-01 0.23671954E+03</pdfrwt>
<totfact> 0.50193954E+03</totfact>
</mgrwt>
</event>
<event>
 4    1  0.1195463E-003  0.2299015E+03  0.7818608E-02  0.1126709E+00
          2   -1    0    0  501    0  0.00000000000E+00  0.00000000000E+00  0.88779037476E+02  0.88779037512E+02  0.25500000000E-02 0.  1.
         -2   -1    0    0    0  501 -0.00000000000E+00 -0.00000000000E+00 -0.14883784406E+03  0.14883784408E+03  0.25500000000E-02 0. -1.
    5000001    1    1    2    0    0 -0.50547016881E+02  0.30278029582E+02 -0.93850501477E+02  0.13493952949E+03  0.77000000000E+02 0.  0.
   -5000001    1    1    2    0    0  0.50547016881E+02 -0.30278029582E+02  0.33791694896E+02  0.10267735210E+03  0.77000000000E+02 0.  0.
<mgrwt>
<rscale>  0 0.22990155E+03</rscale>
<asrwt>0</asrwt>
<pdfrwt beam="1">  1        2 0.13658313E-01 0.22990155E+03</pdfrwt>
<pdfrwt beam="2">  1       -2 0.22898130E-01 0.22990155E+03</pdfrwt>
<totfact> 0.71066046E+03</totfact>
</mgrwt>
</event>
<event>
 4    1  0.1195463E-003  0.2912227E+03  0.7818608E-02  0.1089712E+00
          2   -1    0    0  501    0  0.00000000000E+00  0.00000000000E+00  0.47500129443E+03  0.47500129444E+03  0.25500000000E-02 0.  1.
         -2   -1    0    0    0  501 -0.00000000000E+00 -0.00000000000E+00 -0.44637072283E+02  0.44637072356E+02  0.25500000000E-02 0. -1.
    5000001    1    1    2    0    0 -0.76053643599E+02 -0.95376023351E+02  0.17981247628E+03  0.23052607046E+03  0.77000000000E+02 0.  0.
   -5000001    1    1    2    0    0  0.76053643599E+02  0.95376023351E+02  0.25055174587E+03  0.28911229634E+03  0.77000000000E+02 0.  0.
<mgrwt>
<rscale>  0 0.29122271E+03</rscale>
<asrwt>0</asrwt>
<pdfrwt beam="1">  1        2 0.73077120E-01 0.29122271E+03</pdfrwt>
<pdfrwt beam="2">  1       -2 0.68672421E-02 0.29122271E+03</pdfrwt>
<totfact> 0.78950899E+03</totfact>
</mgrwt>
</event>
<event>
 4    1  0.1195463E-003  0.3992299E+03  0.7818608E-02  0.1044047E+00
         -2   -1    0    0    0  501 -0.00000000000E+00  0.00000000000E+00  0.17517417728E+02  0.17517417914E+02  0.25500000000E-02 0. -1.
          2   -1    0    0  501    0  0.00000000000E+00 -0.00000000000E+00 -0.22746571880E+04  0.22746571880E+04  0.25500000000E-02 0.  1.
    5000001    1    1    2    0    0 -0.66560429487E+02 -0.13376493091E+02 -0.14565248509E+03  0.17819334375E+03  0.77000000000E+02 0.  0.
   -5000001    1    1    2    0    0  0.66560429487E+02  0.13376493091E+02 -0.21114872852E+04  0.21139812622E+04  0.77000000000E+02 0.  0.
<mgrwt>
<rscale>  0 0.39922986E+03</rscale>
<asrwt>0</asrwt>
<pdfrwt beam="1">  1        2 0.34994703E+00 0.39922986E+03</pdfrwt>
<pdfrwt beam="2">  1       -2 0.26949892E-02 0.39922986E+03</pdfrwt>
<totfact> 0.26193460E+03</totfact>
</mgrwt>
</event>
<event>
 4    1  0.1195463E-003  0.2757993E+03  0.7818608E-02  0.1098006E+00
          2   -1    0    0  501    0  0.00000000000E+00  0.00000000000E+00  0.22441494464E+03  0.22441494465E+03  0.25500000000E-02 0.  1.
         -2   -1    0    0    0  501 -0.00000000000E+00 -0.00000000000E+00 -0.84737274630E+02  0.84737274668E+02  0.25500000000E-02 0. -1.
    5000001    1    1    2    0    0  0.10859778962E+03  0.30164308854E+02  0.91802962367E+02  0.16449969404E+03  0.77000000000E+02 0.  0.
   -5000001    1    1    2    0    0 -0.10859778962E+03 -0.30164308854E+02  0.47874707639E+02  0.14465252528E+03  0.77000000000E+02 0.  0.
<mgrwt>
<rscale>  0 0.27579928E+03</rscale>
<asrwt>0</asrwt>
<pdfrwt beam="1">  1        2 0.34525376E-01 0.27579928E+03</pdfrwt>
<pdfrwt beam="2">  1       -2 0.13036504E-01 0.27579928E+03</pdfrwt>
<totfact> 0.64345002E+03</totfact>
</mgrwt>
</event>
<event>
 4    1  0.1195463E-003  0.2641470E+03  0.7818608E-02  0.1104677E+00
         -2   -1    0    0    0  501 -0.00000000000E+00  0.00000000000E+00  0.78119460003E+02  0.78119460045E+02  0.25500000000E-02 0. -1.
          2   -1    0    0  501    0  0.00000000000E+00 -0.00000000000E+00 -0.22329145184E+03  0.22329145185E+03  0.25500000000E-02 0.  1.
    5000001    1    1    2    0    0 -0.27644659948E+02 -0.85090473168E+02 -0.14018713092E+03  0.18326496535E+03  0.77000000000E+02 0.  0.
   -5000001    1    1    2    0    0  0.27644659948E+02  0.85090473168E+02 -0.49848609128E+01  0.11814594655E+03  0.77000000000E+02 0.  0.
<mgrwt>
<rscale>  0 0.26414699E+03</rscale>
<asrwt>0</asrwt>
<pdfrwt beam="1">  1        2 0.34352531E-01 0.26414699E+03</pdfrwt>
<pdfrwt beam="2">  1       -2 0.12018379E-01 0.26414699E+03</pdfrwt>
<totfact> 0.73687951E+03</totfact>
</mgrwt>
</event>
<event>
 4    1  0.1195463E-003  0.3382748E+03  0.7818608E-02  0.1067533E+00
          2   -1    0    0  501    0  0.00000000000E+00  0.00000000000E+00  0.34259382342E+03  0.34259382343E+03  0.25500000000E-02 0.  1.
         -2   -1    0    0    0  501 -0.00000000000E+00 -0.00000000000E+00 -0.83502562682E+02  0.83502562721E+02  0.25500000000E-02 0. -1.
    5000001    1    1    2    0    0  0.11150326102E+03  0.65626318855E+02  0.32476121574E+02  0.15402431437E+03  0.77000000000E+02 0.  0.
   -5000001    1    1    2    0    0 -0.11150326102E+03 -0.65626318855E+02  0.22661513917E+03  0.27207207179E+03  0.77000000000E+02 0.  0.
<mgrwt>
<rscale>  0 0.33827481E+03</rscale>
<asrwt>0</asrwt>
<pdfrwt beam="1">  1        2 0.52706742E-01 0.33827481E+03</pdfrwt>
<pdfrwt beam="2">  1       -2 0.12846548E-01 0.33827481E+03</pdfrwt>
<totfact> 0.41942462E+03</totfact>
</mgrwt>
</event>
<event>
 4    1  0.1195463E-003  0.3196840E+03  0.7818608E-02  0.1075795E+00
          2   -1    0    0  501    0  0.00000000000E+00  0.00000000000E+00  0.62882652993E+03  0.62882652993E+03  0.25500000000E-02 0.  1.
         -2   -1    0    0    0  501 -0.00000000000E+00 -0.00000000000E+00 -0.40630390650E+02  0.40630390730E+02  0.25500000000E-02 0. -1.
    5000001    1    1    2    0    0  0.94217919908E+02 -0.34175455386E+02  0.89179081513E+02  0.15468318190E+03  0.77000000000E+02 0.  0.
   -5000001    1    1    2    0    0 -0.94217919908E+02  0.34175455386E+02  0.49901705776E+03  0.51477373876E+03  0.77000000000E+02 0.  0.
<mgrwt>
<rscale>  0 0.31968402E+03</rscale>
<asrwt>0</asrwt>
<pdfrwt beam="1">  1        2 0.96742540E-01 0.31968402E+03</pdfrwt>
<pdfrwt beam="2">  1       -2 0.62508296E-02 0.31968402E+03</pdfrwt>
<totfact> 0.66430073E+03</totfact>
</mgrwt>
</event>
<event>
 4    1  0.1195463E-003  0.3493451E+03  0.7818608E-02  0.1062884E+00
          2   -1    0    0  501    0  0.00000000000E+00  0.00000000000E+00  0.34023700858E+03  0.34023700859E+03  0.25500000000E-02 0.  1.
         -2   -1    0    0    0  501 -0.00000000000E+00 -0.00000000000E+00 -0.89674237620E+02  0.89674237656E+02  0.25500000000E-02 0. -1.
    5000001    1    1    2    0    0  0.90803828060E+02 -0.12435620091E+03  0.88947960963E+02  0.19377961620E+03  0.77000000000E+02 0.  0.
   -5000001    1    1    2    0    0 -0.90803828060E+02  0.12435620091E+03  0.16161481000E+03  0.23613163004E+03  0.77000000000E+02 0.  0.
<mgrwt>
<rscale>  0 0.34934507E+03</rscale>
<asrwt>0</asrwt>
<pdfrwt beam="1">  1        2 0.52344154E-01 0.34934507E+03</pdfrwt>
<pdfrwt beam="2">  1       -2 0.13796037E-01 0.34934507E+03</pdfrwt>
<totfact> 0.37617743E+03</totfact>
</mgrwt>
</event>
<event>
 4    1  0.1195463E-003  0.4222933E+03  0.7818608E-02  0.1036322E+00
          2   -1    0    0  501    0  0.00000000000E+00  0.00000000000E+00  0.18996582469E+03  0.18996582471E+03  0.25500000000E-02 0. -1.
         -2   -1    0    0    0  501 -0.00000000000E+00 -0.00000000000E+00 -0.23468909838E+03  0.23468909839E+03  0.25500000000E-02 0.  1.
    5000001    1    1    2    0    0 -0.37506504734E+02 -0.18912911179E+03  0.16289615184E+02  0.20825683755E+03  0.77000000000E+02 0.  0.
   -5000001    1    1    2    0    0  0.37506504734E+02  0.18912911179E+03 -0.61012888869E+02  0.21639808555E+03  0.77000000000E+02 0.  0.
<mgrwt>
<rscale>  0 0.42229330E+03</rscale>
<asrwt>0</asrwt>
<pdfrwt beam="1">  1        2 0.29225511E-01 0.42229330E+03</pdfrwt>
<pdfrwt beam="2">  1       -2 0.36106015E-01 0.42229330E+03</pdfrwt>
<totfact> 0.13175490E+03</totfact>
</mgrwt>
</event>
<event>
 4    1  0.1195463E-003  0.2094783E+03  0.7818608E-02  0.1141980E+00
         -2   -1    0    0    0  501 -0.00000000000E+00  0.00000000000E+00  0.64944918517E+01  0.64944923523E+01  0.25500000000E-02 0. -1.
          2   -1    0    0  501    0  0.00000000000E+00 -0.00000000000E+00 -0.16891678940E+04  0.16891678940E+04  0.25500000000E-02 0.  1.
    5000001    1    1    2    0    0 -0.49479368465E+02 -0.33272445889E+02 -0.11533788756E+04  0.11574830859E+04  0.77000000000E+02 0.  0.
   -5000001    1    1    2    0    0  0.49479368465E+02  0.33272445889E+02 -0.52929452653E+03  0.53817930039E+03  0.77000000000E+02 0.  0.
<mgrwt>
<rscale>  0 0.20947828E+03</rscale>
<asrwt>0</asrwt>
<pdfrwt beam="1">  1        2 0.25987163E+00 0.20947828E+03</pdfrwt>
<pdfrwt beam="2">  1       -2 0.99915398E-03 0.20947828E+03</pdfrwt>
<totfact> 0.22834018E+04</totfact>
</mgrwt>
</event>
<event>
 4    1  0.1195463E-003  0.2591652E+03  0.7818608E-02  0.1107646E+00
          2   -1    0    0  501    0  0.00000000000E+00  0.00000000000E+00  0.50276106096E+03  0.50276106096E+03  0.25500000000E-02 0.  1.
         -2   -1    0    0    0  501 -0.00000000000E+00 -0.00000000000E+00 -0.33398861872E+02  0.33398861969E+02  0.25500000000E-02 0. -1.
    5000001    1    1    2    0    0  0.69371008068E+02  0.57047888202E+02  0.12529187259E+03  0.17231904028E+03  0.77000000000E+02 0.  0.
   -5000001    1    1    2    0    0 -0.69371008068E+02 -0.57047888202E+02  0.34407032650E+03  0.36384088265E+03  0.77000000000E+02 0.  0.
<mgrwt>
<rscale>  0 0.25916518E+03</rscale>
<asrwt>0</asrwt>
<pdfrwt beam="1">  1        2 0.77347858E-01 0.25916518E+03</pdfrwt>
<pdfrwt beam="2">  1       -2 0.51382863E-02 0.25916518E+03</pdfrwt>
<totfact> 0.11511389E+04</totfact>
</mgrwt>
</event>
<event>
 4    1  0.1195463E-003  0.1975455E+03  0.7818608E-02  0.1151827E+00
          2   -1    0    0  501    0  0.00000000000E+00  0.00000000000E+00  0.46200783114E+02  0.46200783184E+02  0.25500000000E-02 0.  1.
         -2   -1    0    0    0  501 -0.00000000000E+00 -0.00000000000E+00 -0.21116644431E+03  0.21116644433E+03  0.25500000000E-02 0. -1.
    5000001    1    1    2    0    0  0.41048177496E+02  0.24807921514E+02 -0.31578045700E+02  0.96054978090E+02  0.77000000000E+02 0.  0.
   -5000001    1    1    2    0    0 -0.41048177496E+02 -0.24807921514E+02 -0.13338761550E+03  0.16131224942E+03  0.77000000000E+02 0.  0.
<mgrwt>
<rscale>  0 0.19754549E+03</rscale>
<asrwt>0</asrwt>
<pdfrwt beam="1">  1        2 0.71078129E-02 0.19754549E+03</pdfrwt>
<pdfrwt beam="2">  1       -2 0.32487145E-01 0.19754549E+03</pdfrwt>
<totfact> 0.84771098E+03</totfact>
</mgrwt>
</event>
<event>
 4    1  0.1195463E-003  0.2090372E+03  0.7818608E-02  0.1142331E+00
          2   -1    0    0  501    0  0.00000000000E+00  0.00000000000E+00  0.10879107145E+04  0.10879107145E+04  0.25500000000E-02 0.  1.
         -2   -1    0    0    0  501 -0.00000000000E+00 -0.00000000000E+00 -0.10041392940E+02  0.10041393264E+02  0.25500000000E-02 0. -1.
    5000001    1    1    2    0    0  0.18839315837E+02  0.60232573368E+02  0.70604566993E+03  0.71303041362E+03  0.77000000000E+02 0.  0.
   -5000001    1    1    2    0    0 -0.18839315837E+02 -0.60232573368E+02  0.37182365161E+03  0.38492169413E+03  0.77000000000E+02 0.  0.
<mgrwt>
<rscale>  0 0.20903721E+03</rscale>
<asrwt>0</asrwt>
<pdfrwt beam="1">  1        2 0.16737073E+00 0.20903721E+03</pdfrwt>
<pdfrwt beam="2">  1       -2 0.15448311E-02 0.20903721E+03</pdfrwt>
<totfact> 0.25770761E+04</totfact>
</mgrwt>
</event>
<event>
 4    1  0.1195463E-003  0.4251821E+03  0.7818608E-02  0.1035393E+00
          2   -1    0    0  501    0  0.00000000000E+00  0.00000000000E+00  0.76274547454E+03  0.76274547455E+03  0.25500000000E-02 0.  1.
         -2   -1    0    0    0  501 -0.00000000000E+00 -0.00000000000E+00 -0.59252994122E+02  0.59252994177E+02  0.25500000000E-02 0. -1.
    5000001    1    1    2    0    0  0.19426417845E+03  0.38875939371E+02  0.35948987699E+03  0.41762648545E+03  0.77000000000E+02 0.  0.
   -5000001    1    1    2    0    0 -0.19426417845E+03 -0.38875939371E+02  0.34400260343E+03  0.40437198327E+03  0.77000000000E+02 0.  0.
<mgrwt>
<rscale>  0 0.42518209E+03</rscale>
<asrwt>0</asrwt>
<pdfrwt beam="1">  1        2 0.11734545E+00 0.42518209E+03</pdfrwt>
<pdfrwt beam="2">  1       -2 0.91158456E-02 0.42518209E+03</pdfrwt>
<totfact> 0.29140518E+03</totfact>
</mgrwt>
</event>
<event>
 4    1  0.1195463E-003  0.2797299E+03  0.7818608E-02  0.1095837E+00
         -2   -1    0    0    0  501 -0.00000000000E+00  0.00000000000E+00  0.19071085791E+03  0.19071085792E+03  0.25500000000E-02 0. -1.
          2   -1    0    0  501    0  0.00000000000E+00 -0.00000000000E+00 -0.10257522352E+03  0.10257522355E+03  0.25500000000E-02 0.  1.
    5000001    1    1    2    0    0  0.62540785994E+02 -0.94090993413E+02  0.13164976506E+02  0.13735640342E+03  0.77000000000E+02 0.  0.
   -5000001    1    1    2    0    0 -0.62540785994E+02  0.94090993413E+02  0.74970657882E+02  0.15592967805E+03  0.77000000000E+02 0.  0.
<mgrwt>
<rscale>  0 0.27972993E+03</rscale>
<asrwt>0</asrwt>
<pdfrwt beam="1">  1        2 0.15780804E-01 0.27972993E+03</pdfrwt>
<pdfrwt beam="2">  1       -2 0.29340132E-01 0.27972993E+03</pdfrwt>
<totfact> 0.38884250E+03</totfact>
</mgrwt>
</event>
<event>
 4    1  0.1195463E-003  0.3285182E+03  0.7818608E-02  0.1071794E+00
          2   -1    0    0  501    0  0.00000000000E+00  0.00000000000E+00  0.10881071529E+04  0.10881071529E+04  0.25500000000E-02 0.  1.
         -2   -1    0    0    0  501 -0.00000000000E+00 -0.00000000000E+00 -0.24796319640E+02  0.24796319772E+02  0.25500000000E-02 0. -1.
    5000001    1    1    2    0    0 -0.70498855576E+02 -0.11630343488E+03  0.70290672338E+03  0.72007182932E+03  0.77000000000E+02 0.  0.
   -5000001    1    1    2    0    0  0.70498855576E+02  0.11630343488E+03  0.36040410984E+03  0.39283164332E+03  0.77000000000E+02 0.  0.
<mgrwt>
<rscale>  0 0.32851821E+03</rscale>
<asrwt>0</asrwt>
<pdfrwt beam="1">  1        2 0.16740112E+00 0.32851821E+03</pdfrwt>
<pdfrwt beam="2">  1       -2 0.38148180E-02 0.32851821E+03</pdfrwt>
<totfact> 0.68775301E+03</totfact>
</mgrwt>
</event>
<event>
 4    1  0.1195463E-003  0.1897367E+03  0.7818608E-02  0.1158699E+00
          2   -1    0    0  501    0  0.00000000000E+00  0.00000000000E+00  0.93789671864E+01  0.93789675330E+01  0.25500000000E-02 0.  1.
         -2   -1    0    0    0  501 -0.00000000000E+00 -0.00000000000E+00 -0.95959430154E+03  0.95959430155E+03  0.25500000000E-02 0. -1.
    5000001    1    1    2    0    0  0.53475256676E+02 -0.13674306575E+02 -0.50034125653E+03  0.50923173775E+03  0.77000000000E+02 0.  0.
   -5000001    1    1    2    0    0 -0.53475256676E+02  0.13674306575E+02 -0.44987407782E+03  0.45974153133E+03  0.77000000000E+02 0.  0.
<mgrwt>
<rscale>  0 0.18973670E+03</rscale>
<asrwt>0</asrwt>
<pdfrwt beam="1">  1        2 0.14429188E-02 0.18973670E+03</pdfrwt>
<pdfrwt beam="2">  1       -2 0.14762981E+00 0.18973670E+03</pdfrwt>
<totfact> 0.27874425E+03</totfact>
</mgrwt>
</event>
<event>
 4    1  0.1195463E-003  0.2197699E+03  0.7818608E-02  0.1134055E+00
         -2   -1    0    0    0  501 -0.00000000000E+00  0.00000000000E+00  0.55082972377E+02  0.55082972436E+02  0.25500000000E-02 0. -1.
          2   -1    0    0  501    0  0.00000000000E+00 -0.00000000000E+00 -0.21920926118E+03  0.21920926119E+03  0.25500000000E-02 0.  1.
    5000001    1    1    2    0    0 -0.17309359805E+01 -0.73689644096E+02 -0.11537887700E+03  0.15708101427E+03  0.77000000000E+02 0.  0.
   -5000001    1    1    2    0    0  0.17309359805E+01  0.73689644096E+02 -0.48747411803E+02  0.11721121936E+03  0.77000000000E+02 0.  0.
<mgrwt>
<rscale>  0 0.21976986E+03</rscale>
<asrwt>0</asrwt>
<pdfrwt beam="1">  1        2 0.33724501E-01 0.21976986E+03</pdfrwt>
<pdfrwt beam="2">  1       -2 0.84743036E-02 0.21976986E+03</pdfrwt>
<totfact> 0.12971705E+04</totfact>
</mgrwt>
</event>
<event>
 4    1  0.1195463E-003  0.2525391E+03  0.7818608E-02  0.1111711E+00
         -2   -1    0    0    0  501 -0.00000000000E+00  0.00000000000E+00  0.19458612883E+03  0.19458612884E+03  0.25500000000E-02 0. -1.
          2   -1    0    0  501    0  0.00000000000E+00 -0.00000000000E+00 -0.81938009803E+02  0.81938009843E+02  0.25500000000E-02 0.  1.
    5000001    1    1    2    0    0 -0.63613617382E+02  0.75408474103E+02  0.74707581755E+02  0.14575099675E+03  0.77000000000E+02 0.  0.
   -5000001    1    1    2    0    0  0.63613617382E+02 -0.75408474103E+02  0.37940537270E+02  0.13077314193E+03  0.77000000000E+02 0.  0.
<mgrwt>
<rscale>  0 0.25253911E+03</rscale>
<asrwt>0</asrwt>
<pdfrwt beam="1">  1        2 0.12605848E-01 0.25253911E+03</pdfrwt>
<pdfrwt beam="2">  1       -2 0.29936327E-01 0.25253911E+03</pdfrwt>
<totfact> 0.48844680E+03</totfact>
</mgrwt>
</event>
<event>
 4    1  0.1195463E-003  0.2588653E+03  0.7818608E-02  0.1107827E+00
          2   -1    0    0  501    0  0.00000000000E+00  0.00000000000E+00  0.98607781800E+02  0.98607781833E+02  0.25500000000E-02 0.  1.
         -2   -1    0    0    0  501 -0.00000000000E+00 -0.00000000000E+00 -0.16989341573E+03  0.16989341575E+03  0.25500000000E-02 0. -1.
    5000001    1    1    2    0    0  0.44508401122E+02 -0.93385039567E+02 -0.47101648803E+02  0.13729285744E+03  0.77000000000E+02 0.  0.
   -5000001    1    1    2    0    0 -0.44508401122E+02  0.93385039567E+02 -0.24183985129E+02  0.13120834014E+03  0.77000000000E+02 0.  0.
<mgrwt>
<rscale>  0 0.25886532E+03</rscale>
<asrwt>0</asrwt>
<pdfrwt beam="1">  1        2 0.15170428E-01 0.25886532E+03</pdfrwt>
<pdfrwt beam="2">  1       -2 0.26137448E-01 0.25886532E+03</pdfrwt>
<totfact> 0.49980796E+03</totfact>
</mgrwt>
</event>
<event>
 4    1  0.1195463E-003  0.1827089E+03  0.7818608E-02  0.1165207E+00
          2   -1    0    0  501    0  0.00000000000E+00  0.00000000000E+00  0.56546177501E+02  0.56546177559E+02  0.25500000000E-02 0.  1.
         -2   -1    0    0    0  501 -0.00000000000E+00 -0.00000000000E+00 -0.14758978702E+03  0.14758978704E+03  0.25500000000E-02 0. -1.
    5000001    1    1    2    0    0  0.55339302935E+01  0.46782935340E+02 -0.29825360294E+02  0.95067447321E+02  0.77000000000E+02 0.  0.
   -5000001    1    1    2    0    0 -0.55339302935E+01 -0.46782935340E+02 -0.61218249225E+02  0.10906851728E+03  0.77000000000E+02 0.  0.
<mgrwt>
<rscale>  0 0.18270893E+03</rscale>
<asrwt>0</asrwt>
<pdfrwt beam="1">  1        2 0.86994120E-02 0.18270893E+03</pdfrwt>
<pdfrwt beam="2">  1       -2 0.22706121E-01 0.18270893E+03</pdfrwt>
<totfact> 0.12346052E+04</totfact>
</mgrwt>
</event>
<event>
 4    1  0.1195463E-003  0.2129508E+03  0.7818608E-02  0.1139250E+00
         -2   -1    0    0    0  501 -0.00000000000E+00  0.00000000000E+00  0.16829158526E+02  0.16829158719E+02  0.25500000000E-02 0. -1.
          2   -1    0    0  501    0  0.00000000000E+00 -0.00000000000E+00 -0.67365263460E+03  0.67365263460E+03  0.25500000000E-02 0.  1.
    5000001    1    1    2    0    0 -0.44586379142E+02  0.41610226926E+02 -0.19516918055E+03  0.21849339859E+03  0.77000000000E+02 0.  0.
   -5000001    1    1    2    0    0  0.44586379142E+02 -0.41610226926E+02 -0.46165429552E+03  0.47198839473E+03  0.77000000000E+02 0.  0.
<mgrwt>
<rscale>  0 0.21295076E+03</rscale>
<asrwt>0</asrwt>
<pdfrwt beam="1">  1        2 0.10363885E+00 0.21295076E+03</pdfrwt>
<pdfrwt beam="2">  1       -2 0.25891018E-02 0.21295076E+03</pdfrwt>
<totfact> 0.22674117E+04</totfact>
</mgrwt>
</event>
<event>
 4    1  0.1195463E-003  0.2374475E+03  0.7818608E-02  0.1121505E+00
          2   -1    0    0  501    0  0.00000000000E+00  0.00000000000E+00  0.47407085998E+03  0.47407085999E+03  0.25500000000E-02 0.  1.
         -2   -1    0    0    0  501 -0.00000000000E+00 -0.00000000000E+00 -0.29732543060E+02  0.29732543169E+02  0.25500000000E-02 0. -1.
    5000001    1    1    2    0    0  0.75489536228E+02  0.21572285054E+02  0.31711104942E+03  0.33563738055E+03  0.77000000000E+02 0.  0.
   -5000001    1    1    2    0    0 -0.75489536228E+02 -0.21572285054E+02  0.12722726751E+03  0.16816602261E+03  0.77000000000E+02 0.  0.
<mgrwt>
<rscale>  0 0.23744753E+03</rscale>
<asrwt>0</asrwt>
<pdfrwt beam="1">  1        2 0.72933977E-01 0.23744753E+03</pdfrwt>
<pdfrwt beam="2">  1       -2 0.45742375E-02 0.23744753E+03</pdfrwt>
<totfact> 0.14593371E+04</totfact>
</mgrwt>
</event>
<event>
 4    1  0.1195463E-003  0.2204451E+03  0.7818608E-02  0.1133552E+00
         -2   -1    0    0    0  501 -0.00000000000E+00  0.00000000000E+00  0.30415618922E+03  0.30415618923E+03  0.25500000000E-02 0. -1.
          2   -1    0    0  501    0  0.00000000000E+00 -0.00000000000E+00 -0.39943311933E+02  0.39943312014E+02  0.25500000000E-02 0.  1.
    5000001    1    1    2    0    0 -0.75165715031E+02  0.10081367697E+02  0.98320779779E+02  0.14610781782E+03  0.77000000000E+02 0.  0.
   -5000001    1    1    2    0    0  0.75165715031E+02 -0.10081367697E+02  0.16589209750E+03  0.19799168342E+03  0.77000000000E+02 0.  0.
<mgrwt>
<rscale>  0 0.22044505E+03</rscale>
<asrwt>0</asrwt>
<pdfrwt beam="1">  1        2 0.61451248E-02 0.22044505E+03</pdfrwt>
<pdfrwt beam="2">  1       -2 0.46793261E-01 0.22044505E+03</pdfrwt>
<totfact> 0.51532511E+03</totfact>
</mgrwt>
</event>
<event>
 4    1  0.1195463E-003  0.2890048E+03  0.7818608E-02  0.1090870E+00
          2   -1    0    0  501    0  0.00000000000E+00  0.00000000000E+00  0.90264339414E+02  0.90264339450E+02  0.25500000000E-02 0.  1.
         -2   -1    0    0    0  501 -0.00000000000E+00 -0.00000000000E+00 -0.23133104155E+03  0.23133104156E+03  0.25500000000E-02 0. -1.
    5000001    1    1    2    0    0 -0.86313626837E+02 -0.79098137790E+02 -0.31263726474E+02  0.14357220543E+03  0.77000000000E+02 0.  0.
   -5000001    1    1    2    0    0  0.86313626837E+02  0.79098137790E+02 -0.10980297566E+03  0.17802317558E+03  0.77000000000E+02 0.  0.
<mgrwt>
<rscale>  0 0.28900480E+03</rscale>
<asrwt>0</asrwt>
<pdfrwt beam="1">  1        2 0.13886822E-01 0.28900480E+03</pdfrwt>
<pdfrwt beam="2">  1       -2 0.35589391E-01 0.28900480E+03</pdfrwt>
<totfact> 0.31755822E+03</totfact>
</mgrwt>
</event>
<event>
 4    1  0.1195463E-003  0.2284354E+03  0.7818608E-02  0.1127746E+00
          2   -1    0    0  501    0  0.00000000000E+00  0.00000000000E+00  0.22436786925E+03  0.22436786926E+03  0.25500000000E-02 0.  1.
         -2   -1    0    0    0  501 -0.00000000000E+00 -0.00000000000E+00 -0.58144188210E+02  0.58144188266E+02  0.25500000000E-02 0. -1.
    5000001    1    1    2    0    0  0.71761043134E+02  0.40711960862E+02  0.61351908255E+02  0.12845297862E+03  0.77000000000E+02 0.  0.
   -5000001    1    1    2    0    0 -0.71761043134E+02 -0.40711960862E+02  0.10487177278E+03  0.15405907891E+03  0.77000000000E+02 0.  0.
<mgrwt>
<rscale>  0 0.22843544E+03</rscale>
<asrwt>0</asrwt>
<pdfrwt beam="1">  1        2 0.34518134E-01 0.22843544E+03</pdfrwt>
<pdfrwt beam="2">  1       -2 0.89452597E-02 0.22843544E+03</pdfrwt>
<totfact> 0.11647933E+04</totfact>
</mgrwt>
</event>
<event>
 4    1  0.1195463E-003  0.2357892E+03  0.7818608E-02  0.1122630E+00
         -2   -1    0    0    0  501 -0.00000000000E+00  0.00000000000E+00  0.20787617567E+02  0.20787617724E+02  0.25500000000E-02 0. -1.
          2   -1    0    0  501    0  0.00000000000E+00 -0.00000000000E+00 -0.66862585408E+03  0.66862585409E+03  0.25500000000E-02 0.  1.
    5000001    1    1    2    0    0 -0.83106196058E+02 -0.71232924338E+01 -0.41696744301E+03  0.43214376039E+03  0.77000000000E+02 0.  0.
   -5000001    1    1    2    0    0  0.83106196058E+02  0.71232924338E+01 -0.23087079351E+03  0.25726971142E+03  0.77000000000E+02 0.  0.
<mgrwt>
<rscale>  0 0.23578922E+03</rscale>
<asrwt>0</asrwt>
<pdfrwt beam="1">  1        2 0.10286550E+00 0.23578922E+03</pdfrwt>
<pdfrwt beam="2">  1       -2 0.31980955E-02 0.23578922E+03</pdfrwt>
<totfact> 0.16832663E+04</totfact>
</mgrwt>
</event>
<event>
 4    1  0.1195463E-003  0.4287108E+03  0.7818608E-02  0.1034268E+00
         -2   -1    0    0    0  501 -0.00000000000E+00  0.00000000000E+00  0.21617257572E+03  0.21617257573E+03  0.25500000000E-02 0. -1.
          2   -1    0    0  501    0  0.00000000000E+00 -0.00000000000E+00 -0.21255354532E+03  0.21255354533E+03  0.25500000000E-02 0.  1.
    5000001    1    1    2    0    0  0.18494831685E+03  0.51844545108E+02 -0.54098743074E+02  0.21389111894E+03  0.77000000000E+02 0.  0.
   -5000001    1    1    2    0    0 -0.18494831685E+03 -0.51844545108E+02  0.57717773471E+02  0.21483500212E+03  0.77000000000E+02 0.  0.
<mgrwt>
<rscale>  0 0.42871085E+03</rscale>
<asrwt>0</asrwt>
<pdfrwt beam="1">  1        2 0.32700546E-01 0.42871085E+03</pdfrwt>
<pdfrwt beam="2">  1       -2 0.33257319E-01 0.42871085E+03</pdfrwt>
<totfact> 0.13573257E+03</totfact>
</mgrwt>
</event>
<event>
 4    1  0.1195463E-003  0.1850774E+03  0.7818608E-02  0.1162978E+00
          2   -1    0    0  501    0  0.00000000000E+00  0.00000000000E+00  0.26334593066E+03  0.26334593067E+03  0.25500000000E-02 0.  1.
         -2   -1    0    0    0  501 -0.00000000000E+00 -0.00000000000E+00 -0.32517726266E+02  0.32517726366E+02  0.25500000000E-02 0. -1.
    5000001    1    1    2    0    0  0.30964730671E+01 -0.44049627322E+02  0.73591593703E+02  0.11530256058E+03  0.77000000000E+02 0.  0.
   -5000001    1    1    2    0    0 -0.30964730671E+01  0.44049627322E+02  0.15723661069E+03  0.18056109646E+03  0.77000000000E+02 0.  0.
<mgrwt>
<rscale>  0 0.18507740E+03</rscale>
<asrwt>0</asrwt>
<pdfrwt beam="1">  1        2 0.40514759E-01 0.18507740E+03</pdfrwt>
<pdfrwt beam="2">  1       -2 0.50027271E-02 0.18507740E+03</pdfrwt>
<totfact> 0.23617934E+04</totfact>
</mgrwt>
</event>
<event>
 4    1  0.1195463E-003  0.3587688E+03  0.7818608E-02  0.1059072E+00
          2   -1    0    0  501    0  0.00000000000E+00  0.00000000000E+00  0.47977461544E+02  0.47977461611E+02  0.25500000000E-02 0.  1.
         -2   -1    0    0    0  501 -0.00000000000E+00 -0.00000000000E+00 -0.67070573161E+03  0.67070573162E+03  0.25500000000E-02 0. -1.
    5000001    1    1    2    0    0  0.42445600775E+02  0.13103488929E+03 -0.48225879641E+03  0.50741927235E+03  0.77000000000E+02 0.  0.
   -5000001    1    1    2    0    0 -0.42445600775E+02 -0.13103488929E+03 -0.14046947366E+03  0.21126392088E+03  0.77000000000E+02 0.  0.
<mgrwt>
<rscale>  0 0.35876877E+03</rscale>
<asrwt>0</asrwt>
<pdfrwt beam="1">  1        2 0.73811484E-02 0.35876877E+03</pdfrwt>
<pdfrwt beam="2">  1       -2 0.10318549E+00 0.35876877E+03</pdfrwt>
<totfact> 0.75570690E+02</totfact>
</mgrwt>
</event>
<event>
 4    1  0.1195463E-003  0.3062625E+03  0.7818608E-02  0.1082151E+00
          2   -1    0    0  501    0  0.00000000000E+00  0.00000000000E+00  0.15715407227E+04  0.15715407227E+04  0.25500000000E-02 0.  1.
         -2   -1    0    0    0  501 -0.00000000000E+00 -0.00000000000E+00 -0.14921141907E+02  0.14921142125E+02  0.25500000000E-02 0. -1.
    5000001    1    1    2    0    0  0.81736312725E+02 -0.56797238061E+02  0.32632272704E+03  0.34974601249E+03  0.77000000000E+02 0.  0.
   -5000001    1    1    2    0    0 -0.81736312725E+02  0.56797238061E+02  0.12302968538E+04  0.12367158523E+04  0.77000000000E+02 0.  0.
<mgrwt>
<rscale>  0 0.30626252E+03</rscale>
<asrwt>0</asrwt>
<pdfrwt beam="1">  1        2 0.24177560E+00 0.30626252E+03</pdfrwt>
<pdfrwt beam="2">  1       -2 0.22955593E-02 0.30626252E+03</pdfrwt>
<totfact> 0.78941978E+03</totfact>
</mgrwt>
</event>
<event>
 4    1  0.1195463E-003  0.2228259E+03  0.7818608E-02  0.1131794E+00
         -2   -1    0    0    0  501 -0.00000000000E+00  0.00000000000E+00  0.49460132060E+02  0.49460132126E+02  0.25500000000E-02 0. -1.
          2   -1    0    0  501    0  0.00000000000E+00 -0.00000000000E+00 -0.25096666640E+03  0.25096666641E+03  0.25500000000E-02 0.  1.
    5000001    1    1    2    0    0  0.76366425407E+02  0.14435762849E+02 -0.72355793880E+02  0.13116624218E+03  0.77000000000E+02 0.  0.
   -5000001    1    1    2    0    0 -0.76366425407E+02 -0.14435762849E+02 -0.12915074046E+03  0.16926055636E+03  0.77000000000E+02 0.  0.
<mgrwt>
<rscale>  0 0.22282589E+03</rscale>
<asrwt>0</asrwt>
<pdfrwt beam="1">  1        2 0.38610256E-01 0.22282589E+03</pdfrwt>
<pdfrwt beam="2">  1       -2 0.76092512E-02 0.22282589E+03</pdfrwt>
<totfact> 0.13265948E+04</totfact>
</mgrwt>
</event>
<event>
 4    1  0.1195463E-003  0.2693726E+03  0.7818608E-02  0.1101639E+00
         -2   -1    0    0    0  501 -0.00000000000E+00  0.00000000000E+00  0.33285295747E+02  0.33285295845E+02  0.25500000000E-02 0. -1.
          2   -1    0    0  501    0  0.00000000000E+00 -0.00000000000E+00 -0.54499720510E+03  0.54499720510E+03  0.25500000000E-02 0.  1.
    5000001    1    1    2    0    0  0.69840881118E+02 -0.80875145070E+02 -0.31630420100E+03  0.34263082952E+03  0.77000000000E+02 0.  0.
   -5000001    1    1    2    0    0 -0.69840881118E+02  0.80875145070E+02 -0.19540770835E+03  0.23565167143E+03  0.77000000000E+02 0.  0.
<mgrwt>
<rscale>  0 0.26937255E+03</rscale>
<asrwt>0</asrwt>
<pdfrwt beam="1">  1        2 0.83845718E-01 0.26937255E+03</pdfrwt>
<pdfrwt beam="2">  1       -2 0.51208151E-02 0.26937255E+03</pdfrwt>
<totfact> 0.10582889E+04</totfact>
</mgrwt>
</event>
<event>
 4    1  0.1195463E-003  0.1839684E+03  0.7818608E-02  0.1164017E+00
         -2   -1    0    0    0  501 -0.00000000000E+00  0.00000000000E+00  0.12441403487E+02  0.12441403748E+02  0.25500000000E-02 0. -1.
          2   -1    0    0  501    0  0.00000000000E+00 -0.00000000000E+00 -0.68007559389E+03  0.68007559389E+03  0.25500000000E-02 0.  1.
    5000001    1    1    2    0    0 -0.38302616394E+02 -0.18455095036E+02 -0.23250050267E+03  0.24858230970E+03  0.77000000000E+02 0.  0.
   -5000001    1    1    2    0    0  0.38302616394E+02  0.18455095036E+02 -0.43513368773E+03  0.44393468794E+03  0.77000000000E+02 0.  0.
<mgrwt>
<rscale>  0 0.18396842E+03</rscale>
<asrwt>0</asrwt>
<pdfrwt beam="1">  1        2 0.10462699E+00 0.18396842E+03</pdfrwt>
<pdfrwt beam="2">  1       -2 0.19140626E-02 0.18396842E+03</pdfrwt>
<totfact> 0.34545459E+04</totfact>
</mgrwt>
</event>
<event>
 4    1  0.1195463E-003  0.3950816E+03  0.7818608E-02  0.1045496E+00
         -2   -1    0    0    0  501 -0.00000000000E+00  0.00000000000E+00  0.16683038912E+02  0.16683039107E+02  0.25500000000E-02 0. -1.
          2   -1    0    0  501    0  0.00000000000E+00 -0.00000000000E+00 -0.23390448692E+04  0.23390448692E+04  0.25500000000E-02 0.  1.
    5000001    1    1    2    0    0 -0.16443938701E+03 -0.27527945008E+02 -0.15950738873E+04  0.16056113495E+04  0.77000000000E+02 0.  0.
   -5000001    1    1    2    0    0  0.16443938701E+03  0.27527945008E+02 -0.72728794298E+03  0.75011655878E+03  0.77000000000E+02 0.  0.
<mgrwt>
<rscale>  0 0.39508165E+03</rscale>
<asrwt>0</asrwt>
<pdfrwt beam="1">  1        2 0.35985280E+00 0.39508165E+03</pdfrwt>
<pdfrwt beam="2">  1       -2 0.25666232E-02 0.39508165E+03</pdfrwt>
<totfact> 0.26003353E+03</totfact>
</mgrwt>
</event>
<event>
 4    1  0.1195463E-003  0.2421584E+03  0.7818608E-02  0.1118363E+00
          2   -1    0    0  501    0  0.00000000000E+00  0.00000000000E+00  0.32476820404E+04  0.32476820404E+04  0.25500000000E-02 0.  1.
         -2   -1    0    0    0  501 -0.00000000000E+00 -0.00000000000E+00 -0.45140419000E+01  0.45140426202E+01  0.25500000000E-02 0. -1.
    5000001    1    1    2    0    0 -0.68335880057E+02  0.63728336055E+02  0.16253982567E+04  0.16299017106E+04  0.77000000000E+02 0.  0.
   -5000001    1    1    2    0    0  0.68335880057E+02 -0.63728336055E+02  0.16177697418E+04  0.16222943724E+04  0.77000000000E+02 0.  0.
<mgrwt>
<rscale>  0 0.24215841E+03</rscale>
<asrwt>0</asrwt>
<pdfrwt beam="1">  1        2 0.49964336E+00 0.24215841E+03</pdfrwt>
<pdfrwt beam="2">  1       -2 0.69446808E-03 0.24215841E+03</pdfrwt>
<totfact> 0.53400623E+03</totfact>
</mgrwt>
</event>
<event>
 4    1  0.1195463E-003  0.1799806E+03  0.7818608E-02  0.1167822E+00
         -2   -1    0    0    0  501 -0.00000000000E+00  0.00000000000E+00  0.29657009742E+03  0.29657009743E+03  0.25500000000E-02 0. -1.
          2   -1    0    0  501    0  0.00000000000E+00 -0.00000000000E+00 -0.27306371073E+02  0.27306371192E+02  0.25500000000E-02 0.  1.
    5000001    1    1    2    0    0  0.18604112241E+02 -0.26050412621E+02  0.73753258499E+02  0.11132511006E+03  0.77000000000E+02 0.  0.
   -5000001    1    1    2    0    0 -0.18604112241E+02  0.26050412621E+02  0.19551046785E+03  0.21255135856E+03  0.77000000000E+02 0.  0.
<mgrwt>
<rscale>  0 0.17998059E+03</rscale>
<asrwt>0</asrwt>
<pdfrwt beam="1">  1        2 0.42009805E-02 0.17998059E+03</pdfrwt>
<pdfrwt beam="2">  1       -2 0.45626166E-01 0.17998059E+03</pdfrwt>
<totfact> 0.88053009E+03</totfact>
</mgrwt>
</event>
<event>
 4    1  0.1195463E-003  0.6120444E+03  0.7818608E-02  0.9880728E-01
         -2   -1    0    0    0  501 -0.00000000000E+00  0.00000000000E+00  0.43601764584E+02  0.43601764658E+02  0.25500000000E-02 0. -1.
          2   -1    0    0  501    0  0.00000000000E+00 -0.00000000000E+00 -0.21478395001E+04  0.21478395001E+04  0.25500000000E-02 0.  1.
    5000001    1    1    2    0    0  0.69222035373E+02 -0.26190700095E+03 -0.62344706929E+03  0.68410687435E+03  0.77000000000E+02 0.  0.
   -5000001    1    1    2    0    0 -0.69222035373E+02  0.26190700095E+03 -0.14807906662E+04  0.15073343904E+04  0.77000000000E+02 0.  0.
<mgrwt>
<rscale>  0 0.61204442E+03</rscale>
<asrwt>0</asrwt>
<pdfrwt beam="1">  1        2 0.33043676E+00 0.61204442E+03</pdfrwt>
<pdfrwt beam="2">  1       -2 0.67079654E-02 0.61204442E+03</pdfrwt>
<totfact> 0.74633680E+02</totfact>
</mgrwt>
</event>
<event>
 4    1  0.1195463E-003  0.2867001E+03  0.7818608E-02  0.1092085E+00
         -2   -1    0    0    0  501 -0.00000000000E+00  0.00000000000E+00  0.15535640048E+02  0.15535640257E+02  0.25500000000E-02 0. -1.
          2   -1    0    0  501    0  0.00000000000E+00 -0.00000000000E+00 -0.13227155385E+04  0.13227155385E+04  0.25500000000E-02 0.  1.
    5000001    1    1    2    0    0 -0.71950663520E+02 -0.95362873299E+02 -0.56635662459E+03  0.58391763272E+03  0.77000000000E+02 0.  0.
   -5000001    1    1    2    0    0  0.71950663520E+02  0.95362873299E+02 -0.74082327388E+03  0.75433354605E+03  0.77000000000E+02 0.  0.
<mgrwt>
<rscale>  0 0.28670007E+03</rscale>
<asrwt>0</asrwt>
<pdfrwt beam="1">  1        2 0.20349461E+00 0.28670007E+03</pdfrwt>
<pdfrwt beam="2">  1       -2 0.23900995E-02 0.28670007E+03</pdfrwt>
<totfact> 0.10130212E+04</totfact>
</mgrwt>
</event>
<event>
 4    1  0.1195463E-003  0.2302506E+03  0.7818608E-02  0.1126463E+00
         -2   -1    0    0    0  501 -0.00000000000E+00  0.00000000000E+00  0.82338175256E+01  0.82338179205E+01  0.25500000000E-02 0. -1.
          2   -1    0    0  501    0  0.00000000000E+00 -0.00000000000E+00 -0.16096831474E+04  0.16096831474E+04  0.25500000000E-02 0.  1.
    5000001    1    1    2    0    0  0.75737843002E+02 -0.39849038918E+02 -0.79496929508E+03  0.80326169265E+03  0.77000000000E+02 0.  0.
   -5000001    1    1    2    0    0 -0.75737843002E+02  0.39849038918E+02 -0.80648003482E+03  0.81465527269E+03  0.77000000000E+02 0.  0.
<mgrwt>
<rscale>  0 0.23025063E+03</rscale>
<asrwt>0</asrwt>
<pdfrwt beam="1">  1        2 0.24764331E+00 0.23025063E+03</pdfrwt>
<pdfrwt beam="2">  1       -2 0.12667425E-02 0.23025063E+03</pdfrwt>
<totfact> 0.17892552E+04</totfact>
</mgrwt>
</event>
<event>
 4    1  0.1195463E-003  0.2994941E+03  0.7818608E-02  0.1085494E+00
          2   -1    0    0  501    0  0.00000000000E+00  0.00000000000E+00  0.54055764718E+03  0.54055764719E+03  0.25500000000E-02 0.  1.
         -2   -1    0    0    0  501 -0.00000000000E+00 -0.00000000000E+00 -0.41483424302E+02  0.41483424380E+02  0.25500000000E-02 0. -1.
    5000001    1    1    2    0    0 -0.60180019611E+02 -0.10899948419E+03  0.18830692553E+03  0.23851838612E+03  0.77000000000E+02 0.  0.
   -5000001    1    1    2    0    0  0.60180019611E+02  0.10899948419E+03  0.31076729735E+03  0.34352268545E+03  0.77000000000E+02 0.  0.
<mgrwt>
<rscale>  0 0.29949412E+03</rscale>
<asrwt>0</asrwt>
<pdfrwt beam="1">  1        2 0.83162712E-01 0.29949412E+03</pdfrwt>
<pdfrwt beam="2">  1       -2 0.63820655E-02 0.29949412E+03</pdfrwt>
<totfact> 0.76523015E+03</totfact>
</mgrwt>
</event>
<event>
 4    1  0.1195463E-003  0.4139451E+03  0.7818608E-02  0.1039055E+00
          2   -1    0    0  501    0  0.00000000000E+00  0.00000000000E+00  0.16060587215E+04  0.16060587215E+04  0.25500000000E-02 0.  1.
         -2   -1    0    0    0  501 -0.00000000000E+00 -0.00000000000E+00 -0.26672516607E+02  0.26672516729E+02  0.25500000000E-02 0. -1.
    5000001    1    1    2    0    0  0.73223029504E+00  0.17104273060E+03  0.11347359200E+04  0.11501351051E+04  0.77000000000E+02 0.  0.
   -5000001    1    1    2    0    0 -0.73223029504E+00 -0.17104273060E+03  0.44465028490E+03  0.48259613314E+03  0.77000000000E+02 0.  0.
<mgrwt>
<rscale>  0 0.41394506E+03</rscale>
<asrwt>0</asrwt>
<pdfrwt beam="1">  1        2 0.24708588E+00 0.41394506E+03</pdfrwt>
<pdfrwt beam="2">  1       -2 0.41034654E-02 0.41394506E+03</pdfrwt>
<totfact> 0.31640059E+03</totfact>
</mgrwt>
</event>
<event>
 4    1  0.1195463E-003  0.2417814E+03  0.7818608E-02  0.1118612E+00
         -2   -1    0    0    0  501 -0.00000000000E+00  0.00000000000E+00  0.31745767966E+03  0.31745767967E+03  0.25500000000E-02 0. -1.
          2   -1    0    0  501    0  0.00000000000E+00 -0.00000000000E+00 -0.46036258042E+02  0.46036258113E+02  0.25500000000E-02 0.  1.
    5000001    1    1    2    0    0 -0.63325530777E+02 -0.47067064363E+02  0.61142541814E+02  0.12606681489E+03  0.77000000000E+02 0.  0.
   -5000001    1    1    2    0    0  0.63325530777E+02  0.47067064363E+02  0.21027887981E+03  0.23742712290E+03  0.77000000000E+02 0.  0.
<mgrwt>
<rscale>  0 0.24178142E+03</rscale>
<asrwt>0</asrwt>
<pdfrwt beam="1">  1        2 0.70825011E-02 0.24178142E+03</pdfrwt>
<pdfrwt beam="2">  1       -2 0.48839644E-01 0.24178142E+03</pdfrwt>
<totfact> 0.39607581E+03</totfact>
</mgrwt>
</event>
<event>
 4    1  0.1195463E-003  0.1877731E+03  0.7818608E-02  0.1160485E+00
          2   -1    0    0  501    0  0.00000000000E+00  0.00000000000E+00  0.28149962290E+04  0.28149962290E+04  0.25500000000E-02 0.  1.
         -2   -1    0    0    0  501 -0.00000000000E+00 -0.00000000000E+00 -0.31313309103E+01  0.31313319485E+01  0.25500000000E-02 0. -1.
    5000001    1    1    2    0    0 -0.16168368154E+02 -0.48815291061E+02  0.11727802382E+04  0.11764296987E+04  0.77000000000E+02 0.  0.
   -5000001    1    1    2    0    0  0.16168368154E+02  0.48815291061E+02  0.16390846599E+04  0.16416978623E+04  0.77000000000E+02 0.  0.
<mgrwt>
<rscale>  0 0.18777312E+03</rscale>
<asrwt>0</asrwt>
<pdfrwt beam="1">  1        2 0.43307968E+00 0.18777312E+03</pdfrwt>
<pdfrwt beam="2">  1       -2 0.48173958E-03 0.18777312E+03</pdfrwt>
<totfact> 0.16266952E+04</totfact>
</mgrwt>
</event>
<event>
 4    1  0.1195463E-003  0.1890428E+03  0.7818608E-02  0.1159327E+00
         -2   -1    0    0    0  501 -0.00000000000E+00  0.00000000000E+00  0.15094019677E+03  0.15094019679E+03  0.25500000000E-02 0. -1.
          2   -1    0    0  501    0  0.00000000000E+00 -0.00000000000E+00 -0.59190976820E+02  0.59190976874E+02  0.25500000000E-02 0.  1.
    5000001    1    1    2    0    0 -0.49839865408E+02 -0.20965469300E+02  0.35825368639E+02  0.10067780354E+03  0.77000000000E+02 0.  0.
   -5000001    1    1    2    0    0  0.49839865408E+02  0.20965469300E+02  0.55923851308E+02  0.10945337013E+03  0.77000000000E+02 0.  0.
<mgrwt>
<rscale>  0 0.18904283E+03</rscale>
<asrwt>0</asrwt>
<pdfrwt beam="1">  1        2 0.91063042E-02 0.18904283E+03</pdfrwt>
<pdfrwt beam="2">  1       -2 0.23221569E-01 0.18904283E+03</pdfrwt>
<totfact> 0.11244606E+04</totfact>
</mgrwt>
</event>
<event>
 4    1  0.1195463E-003  0.3549571E+03  0.7818608E-02  0.1060599E+00
         -2   -1    0    0    0  501 -0.00000000000E+00  0.00000000000E+00  0.13419817213E+02  0.13419817456E+02  0.25500000000E-02 0. -1.
          2   -1    0    0  501    0  0.00000000000E+00 -0.00000000000E+00 -0.23471728110E+04  0.23471728110E+04  0.25500000000E-02 0.  1.
    5000001    1    1    2    0    0 -0.27630154346E+02 -0.71983467307E+02 -0.20985107781E+04  0.21013380335E+04  0.77000000000E+02 0.  0.
   -5000001    1    1    2    0    0  0.27630154346E+02  0.71983467307E+02 -0.23524221569E+03  0.25925459502E+03  0.77000000000E+02 0.  0.
<mgrwt>
<rscale>  0 0.35495707E+03</rscale>
<asrwt>0</asrwt>
<pdfrwt beam="1">  1        2 0.36110318E+00 0.35495707E+03</pdfrwt>
<pdfrwt beam="2">  1       -2 0.20645892E-02 0.35495707E+03</pdfrwt>
<totfact> 0.35683593E+03</totfact>
</mgrwt>
</event>
<event>
 4    1  0.1195463E-003  0.1993644E+03  0.7818608E-02  0.1150276E+00
         -2   -1    0    0    0  501 -0.00000000000E+00  0.00000000000E+00  0.10752118211E+02  0.10752118514E+02  0.25500000000E-02 0. -1.
          2   -1    0    0  501    0  0.00000000000E+00 -0.00000000000E+00 -0.92414699261E+03  0.92414699262E+03  0.25500000000E-02 0.  1.
    5000001    1    1    2    0    0 -0.55885730260E+02  0.28408719583E+02 -0.41547666933E+03  0.42717693401E+03  0.77000000000E+02 0.  0.
   -5000001    1    1    2    0    0  0.55885730260E+02 -0.28408719583E+02 -0.49791820507E+03  0.50772217712E+03  0.77000000000E+02 0.  0.
<mgrwt>
<rscale>  0 0.19936437E+03</rscale>
<asrwt>0</asrwt>
<pdfrwt beam="1">  1        2 0.14217640E+00 0.19936437E+03</pdfrwt>
<pdfrwt beam="2">  1       -2 0.16541728E-02 0.19936437E+03</pdfrwt>
<totfact> 0.29228272E+04</totfact>
</mgrwt>
</event>
<event>
 4    1  0.1195463E-003  0.3329921E+03  0.7818608E-02  0.1069821E+00
          2   -1    0    0  501    0  0.00000000000E+00  0.00000000000E+00  0.16098777893E+03  0.16098777895E+03  0.25500000000E-02 0.  1.
         -2   -1    0    0    0  501 -0.00000000000E+00 -0.00000000000E+00 -0.17219281207E+03  0.17219281209E+03  0.25500000000E-02 0. -1.
    5000001    1    1    2    0    0 -0.73365978821E+01 -0.14581729158E+03  0.16214185807E+02  0.16585658870E+03  0.77000000000E+02 0.  0.
   -5000001    1    1    2    0    0  0.73365978821E+01  0.14581729158E+03 -0.27419218952E+02  0.16732400235E+03  0.77000000000E+02 0.  0.
<mgrwt>
<rscale>  0 0.33299212E+03</rscale>
<asrwt>0</asrwt>
<pdfrwt beam="1">  1        2 0.24767351E-01 0.33299212E+03</pdfrwt>
<pdfrwt beam="2">  1       -2 0.26491202E-01 0.33299212E+03</pdfrwt>
<totfact> 0.27937371E+03</totfact>
</mgrwt>
</event>
<event>
 4    1  0.1195463E-003  0.4732663E+03  0.7818608E-02  0.1021002E+00
          2   -1    0    0  501    0  0.00000000000E+00  0.00000000000E+00  0.21408925288E+03  0.21408925290E+03  0.25500000000E-02 0.  1.
         -2   -1    0    0    0  501 -0.00000000000E+00 -0.00000000000E+00 -0.26155095556E+03  0.26155095558E+03  0.25500000000E-02 0. -1.
    5000001    1    1    2    0    0  0.36859121986E+02 -0.20043152499E+03  0.69116841342E+02  0.22855530806E+03  0.77000000000E+02 0.  0.
   -5000001    1    1    2    0    0 -0.36859121986E+02  0.20043152499E+03 -0.11657854402E+03  0.24708490041E+03  0.77000000000E+02 0.  0.
<mgrwt>
<rscale>  0 0.47326630E+03</rscale>
<asrwt>0</asrwt>
<pdfrwt beam="1">  1        2 0.32936808E-01 0.47326630E+03</pdfrwt>
<pdfrwt beam="2">  1       -2 0.40238609E-01 0.47326630E+03</pdfrwt>
<totfact> 0.93788074E+02</totfact>
</mgrwt>
</event>
<event>
 4    1  0.1195463E-003  0.2527502E+03  0.7818608E-02  0.1111579E+00
          2   -1    0    0  501    0  0.00000000000E+00  0.00000000000E+00  0.21153104400E+03  0.21153104402E+03  0.25500000000E-02 0.  1.
         -2   -1    0    0    0  501 -0.00000000000E+00 -0.00000000000E+00 -0.75500318856E+02  0.75500318899E+02  0.25500000000E-02 0. -1.
    5000001    1    1    2    0    0  0.71800773869E+01  0.99919191086E+02  0.65173325098E+02  0.14216877492E+03  0.77000000000E+02 0.  0.
   -5000001    1    1    2    0    0 -0.71800773869E+01 -0.99919191086E+02  0.70857400049E+02  0.14486258799E+03  0.77000000000E+02 0.  0.
<mgrwt>
<rscale>  0 0.25275016E+03</rscale>
<asrwt>0</asrwt>
<pdfrwt beam="1">  1        2 0.32543238E-01 0.25275016E+03</pdfrwt>
<pdfrwt beam="2">  1       -2 0.11615434E-01 0.25275016E+03</pdfrwt>
<totfact> 0.82413146E+03</totfact>
</mgrwt>
</event>
<event>
 4    1  0.1195463E-003  0.2636381E+03  0.7818608E-02  0.1104977E+00
         -2   -1    0    0    0  501 -0.00000000000E+00  0.00000000000E+00  0.41419553996E+02  0.41419554075E+02  0.25500000000E-02 0. -1.
          2   -1    0    0  501    0  0.00000000000E+00 -0.00000000000E+00 -0.41951836571E+03  0.41951836572E+03  0.25500000000E-02 0.  1.
    5000001    1    1    2    0    0  0.10015913298E+03 -0.36945306158E+02 -0.20146852759E+03  0.24065613471E+03  0.77000000000E+02 0.  0.
   -5000001    1    1    2    0    0 -0.10015913298E+03  0.36945306158E+02 -0.17663028413E+03  0.22028178508E+03  0.77000000000E+02 0.  0.
<mgrwt>
<rscale>  0 0.26363811E+03</rscale>
<asrwt>0</asrwt>
<pdfrwt beam="1">  1        2 0.64541284E-01 0.26363811E+03</pdfrwt>
<pdfrwt beam="2">  1       -2 0.63722394E-02 0.26363811E+03</pdfrwt>
<totfact> 0.10121989E+04</totfact>
</mgrwt>
</event>
<event>
 4    1  0.1195463E-003  0.2649475E+03  0.7818608E-02  0.1104207E+00
          2   -1    0    0  501    0  0.00000000000E+00  0.00000000000E+00  0.31059984361E+04  0.31059984361E+04  0.25500000000E-02 0.  1.
         -2   -1    0    0    0  501 -0.00000000000E+00 -0.00000000000E+00 -0.56501310228E+01  0.56501315982E+01  0.25500000000E-02 0. -1.
    5000001    1    1    2    0    0  0.10486032358E+03  0.19416733252E+02  0.13653716894E+04  0.13716929494E+04  0.77000000000E+02 0.  0.
   -5000001    1    1    2    0    0 -0.10486032358E+03 -0.19416733252E+02  0.17349766157E+04  0.17399556184E+04  0.77000000000E+02 0.  0.
<mgrwt>
<rscale>  0 0.26494753E+03</rscale>
<asrwt>0</asrwt>
<pdfrwt beam="1">  1        2 0.47784531E+00 0.26494753E+03</pdfrwt>
<pdfrwt beam="2">  1       -2 0.86925207E-03 0.26494753E+03</pdfrwt>
<totfact> 0.47076373E+03</totfact>
</mgrwt>
</event>
<event>
 4    1  0.1195463E-003  0.2247174E+03  0.7818608E-02  0.1130414E+00
         -2   -1    0    0    0  501 -0.00000000000E+00  0.00000000000E+00  0.99678072111E+01  0.99678075373E+01  0.25500000000E-02 0. -1.
          2   -1    0    0  501    0  0.00000000000E+00 -0.00000000000E+00 -0.12665248285E+04  0.12665248285E+04  0.25500000000E-02 0.  1.
    5000001    1    1    2    0    0  0.54905848588E+02 -0.60005570880E+02 -0.57742202272E+03  0.58818408093E+03  0.77000000000E+02 0.  0.
   -5000001    1    1    2    0    0 -0.54905848588E+02  0.60005570880E+02 -0.67913499855E+03  0.68830855508E+03  0.77000000000E+02 0.  0.
<mgrwt>
<rscale>  0 0.22471738E+03</rscale>
<asrwt>0</asrwt>
<pdfrwt beam="1">  1        2 0.19484985E+00 0.22471738E+03</pdfrwt>
<pdfrwt beam="2">  1       -2 0.15335098E-02 0.22471738E+03</pdfrwt>
<totfact> 0.20700115E+04</totfact>
</mgrwt>
</event>
<event>
 4    1  0.1195463E-003  0.1997526E+03  0.7818608E-02  0.1149948E+00
         -2   -1    0    0    0  501 -0.00000000000E+00  0.00000000000E+00  0.45897559271E+02  0.45897559341E+02  0.25500000000E-02 0. -1.
          2   -1    0    0  501    0  0.00000000000E+00 -0.00000000000E+00 -0.21733787365E+03  0.21733787367E+03  0.25500000000E-02 0.  1.
    5000001    1    1    2    0    0 -0.61386963215E+02  0.77968431508E+01 -0.10513838976E+03  0.14426444821E+03  0.77000000000E+02 0.  0.
   -5000001    1    1    2    0    0  0.61386963215E+02 -0.77968431508E+01 -0.66301924627E+02  0.11897098480E+03  0.77000000000E+02 0.  0.
<mgrwt>
<rscale>  0 0.19975263E+03</rscale>
<asrwt>0</asrwt>
<pdfrwt beam="1">  1        2 0.33436596E-01 0.19975263E+03</pdfrwt>
<pdfrwt beam="2">  1       -2 0.70611630E-02 0.19975263E+03</pdfrwt>
<totfact> 0.17269036E+04</totfact>
</mgrwt>
</event>
<event>
 4    1  0.1195463E-003  0.2707818E+03  0.7818608E-02  0.1100833E+00
          2   -1    0    0  501    0  0.00000000000E+00  0.00000000000E+00  0.25562029168E+03  0.25562029169E+03  0.25500000000E-02 0.  1.
         -2   -1    0    0    0  501 -0.00000000000E+00 -0.00000000000E+00 -0.71710624681E+02  0.71710624726E+02  0.25500000000E-02 0. -1.
    5000001    1    1    2    0    0  0.58334136825E+02 -0.52143684746E+02 -0.38400773526E+01  0.10984344119E+03  0.77000000000E+02 0.  0.
   -5000001    1    1    2    0    0 -0.58334136825E+02  0.52143684746E+02  0.18774974435E+03  0.21748747523E+03  0.77000000000E+02 0.  0.
<mgrwt>
<rscale>  0 0.27078176E+03</rscale>
<asrwt>0</asrwt>
<pdfrwt beam="1">  1        2 0.39326199E-01 0.27078176E+03</pdfrwt>
<pdfrwt beam="2">  1       -2 0.11032404E-01 0.27078176E+03</pdfrwt>
<totfact> 0.73118633E+03</totfact>
</mgrwt>
</event>
<event>
 4    1  0.1195463E-003  0.3458828E+03  0.7818608E-02  0.1064318E+00
          2   -1    0    0  501    0  0.00000000000E+00  0.00000000000E+00  0.80063430634E+03  0.80063430634E+03  0.25500000000E-02 0.  1.
         -2   -1    0    0    0  501 -0.00000000000E+00 -0.00000000000E+00 -0.37356282077E+02  0.37356282164E+02  0.25500000000E-02 0. -1.
    5000001    1    1    2    0    0 -0.13083454912E+03 -0.81827211260E+02  0.35039112288E+03  0.39053336700E+03  0.77000000000E+02 0.  0.
   -5000001    1    1    2    0    0  0.13083454912E+03  0.81827211260E+02  0.41288690138E+03  0.44745722151E+03  0.77000000000E+02 0.  0.
<mgrwt>
<rscale>  0 0.34588276E+03</rscale>
<asrwt>0</asrwt>
<pdfrwt beam="1">  1        2 0.12317449E+00 0.34588276E+03</pdfrwt>
<pdfrwt beam="2">  1       -2 0.57471212E-02 0.34588276E+03</pdfrwt>
<totfact> 0.56275141E+03</totfact>
</mgrwt>
</event>
<event>
 4    1  0.1195463E-003  0.6016516E+03  0.7818608E-02  0.9901985E-01
         -2   -1    0    0    0  501 -0.00000000000E+00  0.00000000000E+00  0.31982958504E+03  0.31982958505E+03  0.25500000000E-02 0. -1.
          2   -1    0    0  501    0  0.00000000000E+00 -0.00000000000E+00 -0.28295122648E+03  0.28295122649E+03  0.25500000000E-02 0.  1.
    5000001    1    1    2    0    0 -0.27669402915E+03 -0.77769276115E+02 -0.25910447822E+02  0.29867707877E+03  0.77000000000E+02 0.  0.
   -5000001    1    1    2    0    0  0.27669402915E+03  0.77769276115E+02  0.62788806391E+02  0.30410373277E+03  0.77000000000E+02 0.  0.
<mgrwt>
<rscale>  0 0.60165164E+03</rscale>
<asrwt>0</asrwt>
<pdfrwt beam="1">  1        2 0.43530958E-01 0.60165164E+03</pdfrwt>
<pdfrwt beam="2">  1       -2 0.49204551E-01 0.60165164E+03</pdfrwt>
<totfact> 0.46228968E+02</totfact>
</mgrwt>
</event>
<event>
 4    1  0.1195463E-003  0.2999985E+03  0.7818608E-02  0.1085241E+00
          2   -1    0    0  501    0  0.00000000000E+00  0.00000000000E+00  0.48479803057E+03  0.48479803057E+03  0.25500000000E-02 0.  1.
         -2   -1    0    0    0  501 -0.00000000000E+00 -0.00000000000E+00 -0.46410605004E+02  0.46410605074E+02  0.25500000000E-02 0. -1.
    5000001    1    1    2    0    0  0.31973466802E+02 -0.28842286337E+02  0.43860916053E+01  0.88331296040E+02  0.77000000000E+02 0.  0.
   -5000001    1    1    2    0    0 -0.31973466802E+02  0.28842286337E+02  0.43400133396E+03  0.44287733961E+03  0.77000000000E+02 0.  0.
<mgrwt>
<rscale>  0 0.29999847E+03</rscale>
<asrwt>0</asrwt>
<pdfrwt beam="1">  1        2 0.74584307E-01 0.29999847E+03</pdfrwt>
<pdfrwt beam="2">  1       -2 0.71400936E-02 0.29999847E+03</pdfrwt>
<totfact> 0.72715975E+03</totfact>
</mgrwt>
</event>
<event>
 4    1  0.1195463E-003  0.1720306E+03  0.7818608E-02  0.1175747E+00
         -2   -1    0    0    0  501 -0.00000000000E+00  0.00000000000E+00  0.62205702143E+01  0.62205707369E+01  0.25500000000E-02 0. -1.
          2   -1    0    0  501    0  0.00000000000E+00 -0.00000000000E+00 -0.11893819338E+04  0.11893819338E+04  0.25500000000E-02 0.  1.
    5000001    1    1    2    0    0  0.23684686424E+02 -0.23103136379E+02 -0.72615040948E+03  0.73097068099E+03  0.77000000000E+02 0.  0.
   -5000001    1    1    2    0    0 -0.23684686424E+02  0.23103136379E+02 -0.45701095415E+03  0.46463182360E+03  0.77000000000E+02 0.  0.
<mgrwt>
<rscale>  0 0.17203063E+03</rscale>
<asrwt>0</asrwt>
<pdfrwt beam="1">  1        2 0.18298166E+00 0.17203063E+03</pdfrwt>
<pdfrwt beam="2">  1       -2 0.95701179E-03 0.17203063E+03</pdfrwt>
<totfact> 0.44448037E+04</totfact>
</mgrwt>
</event>
<event>
 4    1  0.1195463E-003  0.2515683E+03  0.7818608E-02  0.1112318E+00
         -2   -1    0    0    0  501 -0.00000000000E+00  0.00000000000E+00  0.15788089493E+02  0.15788089699E+02  0.25500000000E-02 0. -1.
          2   -1    0    0  501    0  0.00000000000E+00 -0.00000000000E+00 -0.10021255079E+04  0.10021255079E+04  0.25500000000E-02 0.  1.
    5000001    1    1    2    0    0 -0.58009596805E+02  0.78310128765E+02 -0.57359264941E+03  0.58688594892E+03  0.77000000000E+02 0.  0.
   -5000001    1    1    2    0    0  0.58009596805E+02 -0.78310128765E+02 -0.41274476897E+03  0.43102764865E+03  0.77000000000E+02 0.  0.
<mgrwt>
<rscale>  0 0.25156826E+03</rscale>
<asrwt>0</asrwt>
<pdfrwt beam="1">  1        2 0.15417311E+00 0.25156826E+03</pdfrwt>
<pdfrwt beam="2">  1       -2 0.24289376E-02 0.25156826E+03</pdfrwt>
<totfact> 0.15079655E+04</totfact>
</mgrwt>
</event>
<event>
 4    1  0.1195463E-003  0.2221608E+03  0.7818608E-02  0.1132282E+00
         -2   -1    0    0    0  501 -0.00000000000E+00  0.00000000000E+00  0.32614666708E+03  0.32614666709E+03  0.25500000000E-02 0. -1.
          2   -1    0    0  501    0  0.00000000000E+00 -0.00000000000E+00 -0.37832243590E+02  0.37832243676E+02  0.25500000000E-02 0.  1.
    5000001    1    1    2    0    0  0.66288387022E+02 -0.28308533530E+02  0.20124961055E+03  0.22721339985E+03  0.77000000000E+02 0.  0.
   -5000001    1    1    2    0    0 -0.66288387022E+02  0.28308533530E+02  0.87064812947E+02  0.13676551092E+03  0.77000000000E+02 0.  0.
<mgrwt>
<rscale>  0 0.22216084E+03</rscale>
<asrwt>0</asrwt>
<pdfrwt beam="1">  1        2 0.58203451E-02 0.22216084E+03</pdfrwt>
<pdfrwt beam="2">  1       -2 0.50176411E-01 0.22216084E+03</pdfrwt>
<totfact> 0.48191133E+03</totfact>
</mgrwt>
</event>
<event>
 4    1  0.1195463E-003  0.3893766E+03  0.7818608E-02  0.1047522E+00
          2   -1    0    0  501    0  0.00000000000E+00  0.00000000000E+00  0.14463415456E+04  0.14463415456E+04  0.25500000000E-02 0.  1.
         -2   -1    0    0    0  501 -0.00000000000E+00 -0.00000000000E+00 -0.26206487485E+02  0.26206487609E+02  0.25500000000E-02 0. -1.
    5000001    1    1    2    0    0 -0.15426991313E+03  0.44569238670E+02  0.10075810235E+04  0.10231979975E+04  0.77000000000E+02 0.  0.
   -5000001    1    1    2    0    0  0.15426991313E+03 -0.44569238670E+02  0.41255403462E+03  0.44935003573E+03  0.77000000000E+02 0.  0.
<mgrwt>
<rscale>  0 0.38937659E+03</rscale>
<asrwt>0</asrwt>
<pdfrwt beam="1">  1        2 0.22251410E+00 0.38937659E+03</pdfrwt>
<pdfrwt beam="2">  1       -2 0.40317670E-02 0.38937659E+03</pdfrwt>
<totfact> 0.39687294E+03</totfact>
</mgrwt>
</event>
<event>
 4    1  0.1195463E-003  0.1909270E+03  0.7818608E-02  0.1157628E+00
         -2   -1    0    0    0  501 -0.00000000000E+00  0.00000000000E+00  0.30871982685E+02  0.30871982791E+02  0.25500000000E-02 0. -1.
          2   -1    0    0  501    0  0.00000000000E+00 -0.00000000000E+00 -0.29519574510E+03  0.29519574511E+03  0.25500000000E-02 0.  1.
    5000001    1    1    2    0    0  0.31810945646E+02 -0.46180974918E+02 -0.12140682401E+03  0.15431537714E+03  0.77000000000E+02 0.  0.
   -5000001    1    1    2    0    0 -0.31810945646E+02  0.46180974918E+02 -0.14291693841E+03  0.17175235076E+03  0.77000000000E+02 0.  0.
<mgrwt>
<rscale>  0 0.19092698E+03</rscale>
<asrwt>0</asrwt>
<pdfrwt beam="1">  1        2 0.45414728E-01 0.19092698E+03</pdfrwt>
<pdfrwt beam="2">  1       -2 0.47495360E-02 0.19092698E+03</pdfrwt>
<totfact> 0.22667796E+04</totfact>
</mgrwt>
</event>
<event>
 4    1  0.1195463E-003  0.1699867E+03  0.7818608E-02  0.1177862E+00
         -2   -1    0    0    0  501 -0.00000000000E+00  0.00000000000E+00  0.17511510078E+03  0.17511510080E+03  0.25500000000E-02 0. -1.
          2   -1    0    0  501    0  0.00000000000E+00 -0.00000000000E+00 -0.41252107480E+02  0.41252107559E+02  0.25500000000E-02 0.  1.
    5000001    1    1    2    0    0  0.35882236128E+02  0.10951406088E+01  0.63779361677E+02  0.10623342778E+03  0.77000000000E+02 0.  0.
   -5000001    1    1    2    0    0 -0.35882236128E+02 -0.10951406088E+01  0.70083631624E+02  0.11013378058E+03  0.77000000000E+02 0.  0.
<mgrwt>
<rscale>  0 0.16998667E+03</rscale>
<asrwt>0</asrwt>
<pdfrwt beam="1">  1        2 0.63464782E-02 0.16998667E+03</pdfrwt>
<pdfrwt beam="2">  1       -2 0.26940784E-01 0.16998667E+03</pdfrwt>
<totfact> 0.13582160E+04</totfact>
</mgrwt>
</event>
<event>
 4    1  0.1195463E-003  0.2368819E+03  0.7818608E-02  0.1121888E+00
          2   -1    0    0  501    0  0.00000000000E+00  0.00000000000E+00  0.39459096622E+03  0.39459096623E+03  0.25500000000E-02 0.  1.
         -2   -1    0    0    0  501 -0.00000000000E+00 -0.00000000000E+00 -0.35551392951E+02  0.35551393042E+02  0.25500000000E-02 0. -1.
    5000001    1    1    2    0    0 -0.49767171315E+02  0.60578360590E+01  0.43806417823E+02  0.10179131083E+03  0.77000000000E+02 0.  0.
   -5000001    1    1    2    0    0  0.49767171315E+02 -0.60578360590E+01  0.31523315545E+03  0.32835104844E+03  0.77000000000E+02 0.  0.
<mgrwt>
<rscale>  0 0.23688190E+03</rscale>
<asrwt>0</asrwt>
<pdfrwt beam="1">  1        2 0.60706298E-01 0.23688190E+03</pdfrwt>
<pdfrwt beam="2">  1       -2 0.54694455E-02 0.23688190E+03</pdfrwt>
<totfact> 0.13598750E+04</totfact>
</mgrwt>
</event>
<event>
 4    1  0.1195463E-003  0.2149174E+03  0.7818608E-02  0.1137730E+00
          2   -1    0    0  501    0  0.00000000000E+00  0.00000000000E+00  0.60151473856E+03  0.60151473856E+03  0.25500000000E-02 0.  1.
         -2   -1    0    0    0  501 -0.00000000000E+00 -0.00000000000E+00 -0.19197154663E+02  0.19197154832E+02  0.25500000000E-02 0. -1.
    5000001    1    1    2    0    0 -0.47914430340E+02  0.19720709687E+01  0.45753906535E+03  0.46644472129E+03  0.77000000000E+02 0.  0.
   -5000001    1    1    2    0    0  0.47914430340E+02 -0.19720709687E+01  0.12477851854E+03  0.15426717210E+03  0.77000000000E+02 0.  0.
<mgrwt>
<rscale>  0 0.21491739E+03</rscale>
<asrwt>0</asrwt>
<pdfrwt beam="1">  1        2 0.92540721E-01 0.21491739E+03</pdfrwt>
<pdfrwt beam="2">  1       -2 0.29534087E-02 0.21491739E+03</pdfrwt>
<totfact> 0.21327677E+04</totfact>
</mgrwt>
</event>
<event>
 4    1  0.1195463E-003  0.1780112E+03  0.7818608E-02  0.1169742E+00
         -2   -1    0    0    0  501 -0.00000000000E+00  0.00000000000E+00  0.19741794862E+02  0.19741795027E+02  0.25500000000E-02 0. -1.
          2   -1    0    0  501    0  0.00000000000E+00 -0.00000000000E+00 -0.40128065404E+03  0.40128065404E+03  0.25500000000E-02 0.  1.
    5000001    1    1    2    0    0 -0.38485074465E+02 -0.18911132609E+02 -0.16139317303E+03  0.18388988062E+03  0.77000000000E+02 0.  0.
   -5000001    1    1    2    0    0  0.38485074465E+02  0.18911132609E+02 -0.22014568614E+03  0.23713256845E+03  0.77000000000E+02 0.  0.
<mgrwt>
<rscale>  0 0.17801124E+03</rscale>
<asrwt>0</asrwt>
<pdfrwt beam="1">  1        2 0.61735479E-01 0.17801124E+03</pdfrwt>
<pdfrwt beam="2">  1       -2 0.30371995E-02 0.17801124E+03</pdfrwt>
<totfact> 0.31604999E+04</totfact>
</mgrwt>
</event>
<event>
 4    1  0.1195463E-003  0.1989303E+03  0.7818608E-02  0.1150645E+00
          2   -1    0    0  501    0  0.00000000000E+00  0.00000000000E+00  0.60217321739E+02  0.60217321793E+02  0.25500000000E-02 0.  1.
         -2   -1    0    0    0  501 -0.00000000000E+00 -0.00000000000E+00 -0.16429352929E+03  0.16429352931E+03  0.25500000000E-02 0. -1.
    5000001    1    1    2    0    0  0.20003387081E+02 -0.54713258080E+02 -0.78997960574E+02  0.12475317182E+03  0.77000000000E+02 0.  0.
   -5000001    1    1    2    0    0 -0.20003387081E+02  0.54713258080E+02 -0.25078246977E+02  0.99757679282E+02  0.77000000000E+02 0.  0.
<mgrwt>
<rscale>  0 0.19893030E+03</rscale>
<asrwt>0</asrwt>
<pdfrwt beam="1">  1        2 0.92642034E-02 0.19893030E+03</pdfrwt>
<pdfrwt beam="2">  1       -2 0.25275927E-01 0.19893030E+03</pdfrwt>
<totfact> 0.95241572E+03</totfact>
</mgrwt>
</event>
<event>
 4    1  0.1195463E-003  0.1886991E+03  0.7818608E-02  0.1159640E+00
          2   -1    0    0  501    0  0.00000000000E+00  0.00000000000E+00  0.30196780238E+03  0.30196780239E+03  0.25500000000E-02 0.  1.
         -2   -1    0    0    0  501 -0.00000000000E+00 -0.00000000000E+00 -0.29479435418E+02  0.29479435528E+02  0.25500000000E-02 0. -1.
    5000001    1    1    2    0    0 -0.13474939724E+02  0.51985512069E+02  0.15279367557E+03  0.17932923565E+03  0.77000000000E+02 0.  0.
   -5000001    1    1    2    0    0  0.13474939724E+02 -0.51985512069E+02  0.11969469139E+03  0.15211800226E+03  0.77000000000E+02 0.  0.
<mgrwt>
<rscale>  0 0.18869913E+03</rscale>
<asrwt>0</asrwt>
<pdfrwt beam="1">  1        2 0.46456585E-01 0.18869913E+03</pdfrwt>
<pdfrwt beam="2">  1       -2 0.45352978E-02 0.18869913E+03</pdfrwt>
<totfact> 0.23694779E+04</totfact>
</mgrwt>
</event>
<event>
 4    1  0.1195463E-003  0.1851690E+03  0.7818608E-02  0.1162892E+00
          2   -1    0    0  501    0  0.00000000000E+00  0.00000000000E+00  0.50386533672E+03  0.50386533673E+03  0.25500000000E-02 0.  1.
         -2   -1    0    0    0  501 -0.00000000000E+00 -0.00000000000E+00 -0.17012260443E+02  0.17012260634E+02  0.25500000000E-02 0. -1.
    5000001    1    1    2    0    0  0.43962687393E+02 -0.24735406124E+02  0.27132054262E+03  0.28651072414E+03  0.77000000000E+02 0.  0.
   -5000001    1    1    2    0    0 -0.43962687393E+02  0.24735406124E+02  0.21553253365E+03  0.23436687322E+03  0.77000000000E+02 0.  0.
<mgrwt>
<rscale>  0 0.18516899E+03</rscale>
<asrwt>0</asrwt>
<pdfrwt beam="1">  1        2 0.77517741E-01 0.18516899E+03</pdfrwt>
<pdfrwt beam="2">  1       -2 0.26172709E-02 0.18516899E+03</pdfrwt>
<totfact> 0.30805573E+04</totfact>
</mgrwt>
</event>
<event>
 4    1  0.1195463E-003  0.2897799E+03  0.7818608E-02  0.1090464E+00
         -2   -1    0    0    0  501 -0.00000000000E+00  0.00000000000E+00  0.27885710205E+02  0.27885710321E+02  0.25500000000E-02 0. -1.
          2   -1    0    0  501    0  0.00000000000E+00 -0.00000000000E+00 -0.75282628692E+03  0.75282628692E+03  0.25500000000E-02 0.  1.
    5000001    1    1    2    0    0 -0.83819994092E+02 -0.37929115866E+02 -0.14360128166E+03  0.18712225238E+03  0.77000000000E+02 0.  0.
   -5000001    1    1    2    0    0  0.83819994092E+02  0.37929115866E+02 -0.58133929505E+03  0.59358974486E+03  0.77000000000E+02 0.  0.
<mgrwt>
<rscale>  0 0.28977989E+03</rscale>
<asrwt>0</asrwt>
<pdfrwt beam="1">  1        2 0.11581941E+00 0.28977989E+03</pdfrwt>
<pdfrwt beam="2">  1       -2 0.42901098E-02 0.28977989E+03</pdfrwt>
<totfact> 0.94610191E+03</totfact>
</mgrwt>
</event>
<event>
 4    1  0.1195463E-003  0.3425699E+03  0.7818608E-02  0.1065707E+00
         -2   -1    0    0    0  501 -0.00000000000E+00  0.00000000000E+00  0.42816664173E+02  0.42816664249E+02  0.25500000000E-02 0.  1.
          2   -1    0    0  501    0  0.00000000000E+00 -0.00000000000E+00 -0.68521306221E+03  0.68521306222E+03  0.25500000000E-02 0. -1.
    5000001    1    1    2    0    0  0.11061432192E+03  0.95988365040E+02 -0.41529066695E+03  0.44703985560E+03  0.77000000000E+02 0.  0.
   -5000001    1    1    2    0    0 -0.11061432192E+03 -0.95988365040E+02 -0.22710573109E+03  0.28098987087E+03  0.77000000000E+02 0.  0.
<mgrwt>
<rscale>  0 0.34256992E+03</rscale>
<asrwt>0</asrwt>
<pdfrwt beam="1">  1        2 0.10541739E+00 0.34256992E+03</pdfrwt>
<pdfrwt beam="2">  1       -2 0.65871796E-02 0.34256992E+03</pdfrwt>
<totfact> 0.55348751E+03</totfact>
</mgrwt>
</event>
<event>
 4    1  0.1195463E-003  0.1984557E+03  0.7818608E-02  0.1151048E+00
         -2   -1    0    0    0  501 -0.00000000000E+00  0.00000000000E+00  0.27505410999E+02  0.27505411117E+02  0.25500000000E-02 0. -1.
          2   -1    0    0  501    0  0.00000000000E+00 -0.00000000000E+00 -0.35797205930E+03  0.35797205931E+03  0.25500000000E-02 0.  1.
    5000001    1    1    2    0    0  0.58260344246E+02 -0.96507499930E+01 -0.12496622320E+03  0.15821808250E+03  0.77000000000E+02 0.  0.
   -5000001    1    1    2    0    0 -0.58260344246E+02  0.96507499930E+01 -0.20550042510E+03  0.22725938794E+03  0.77000000000E+02 0.  0.
<mgrwt>
<rscale>  0 0.19845572E+03</rscale>
<asrwt>0</asrwt>
<pdfrwt beam="1">  1        2 0.55072621E-01 0.19845572E+03</pdfrwt>
<pdfrwt beam="2">  1       -2 0.42316019E-02 0.19845572E+03</pdfrwt>
<totfact> 0.22004530E+04</totfact>
</mgrwt>
</event>
<event>
 4    1  0.1195463E-003  0.3346240E+03  0.7818608E-02  0.1069109E+00
         -2   -1    0    0    0  501 -0.00000000000E+00  0.00000000000E+00  0.54413751184E+02  0.54413751244E+02  0.25500000000E-02 0. -1.
          2   -1    0    0  501    0  0.00000000000E+00 -0.00000000000E+00 -0.51445289035E+03  0.51445289036E+03  0.25500000000E-02 0.  1.
    5000001    1    1    2    0    0  0.47273198406E+02  0.63241569911E+02 -0.44391160586E+03  0.45740656452E+03  0.77000000000E+02 0.  0.
   -5000001    1    1    2    0    0 -0.47273198406E+02 -0.63241569911E+02 -0.16127533311E+02  0.11146007708E+03  0.77000000000E+02 0.  0.
<mgrwt>
<rscale>  0 0.33462404E+03</rscale>
<asrwt>0</asrwt>
<pdfrwt beam="1">  1        2 0.79146595E-01 0.33462404E+03</pdfrwt>
<pdfrwt beam="2">  1       -2 0.83713467E-02 0.33462404E+03</pdfrwt>
<totfact> 0.53191581E+03</totfact>
</mgrwt>
</event>
<event>
 4    1  0.1195463E-003  0.2635004E+03  0.7818608E-02  0.1105058E+00
          2   -1    0    0  501    0  0.00000000000E+00  0.00000000000E+00  0.50585650894E+03  0.50585650894E+03  0.25500000000E-02 0.  1.
         -2   -1    0    0    0  501 -0.00000000000E+00 -0.00000000000E+00 -0.34314301700E+02  0.34314301795E+02  0.25500000000E-02 0. -1.
    5000001    1    1    2    0    0  0.42606955986E+02 -0.80686374684E+02  0.12156913832E+03  0.17039277904E+03  0.77000000000E+02 0.  0.
   -5000001    1    1    2    0    0 -0.42606955986E+02  0.80686374684E+02  0.34997306892E+03  0.36977803169E+03  0.77000000000E+02 0.  0.
<mgrwt>
<rscale>  0 0.26350038E+03</rscale>
<asrwt>0</asrwt>
<pdfrwt beam="1">  1        2 0.77824074E-01 0.26350038E+03</pdfrwt>
<pdfrwt beam="2">  1       -2 0.52791236E-02 0.26350038E+03</pdfrwt>
<totfact> 0.10979693E+04</totfact>
</mgrwt>
</event>
<event>
 4    1  0.1195463E-003  0.4809601E+03  0.7818608E-02  0.1018872E+00
         -2   -1    0    0    0  501 -0.00000000000E+00  0.00000000000E+00  0.72015356084E+02  0.72015356130E+02  0.25500000000E-02 0. -1.
          2   -1    0    0  501    0  0.00000000000E+00 -0.00000000000E+00 -0.80303237262E+03  0.80303237263E+03  0.25500000000E-02 0.  1.
    5000001    1    1    2    0    0  0.19008452913E+03  0.11697931744E+03 -0.28242504839E+03  0.36811573844E+03  0.77000000000E+02 0.  0.
   -5000001    1    1    2    0    0 -0.19008452913E+03 -0.11697931744E+03 -0.44859196815E+03  0.50693199032E+03  0.77000000000E+02 0.  0.
<mgrwt>
<rscale>  0 0.48096013E+03</rscale>
<asrwt>0</asrwt>
<pdfrwt beam="1">  1        2 0.12354344E+00 0.48096013E+03</pdfrwt>
<pdfrwt beam="2">  1       -2 0.11079286E-01 0.48096013E+03</pdfrwt>
<totfact> 0.19922557E+03</totfact>
</mgrwt>
</event>
<event>
 4    1  0.1195463E-003  0.3440746E+03  0.7818608E-02  0.1065074E+00
          2   -1    0    0  501    0  0.00000000000E+00  0.00000000000E+00  0.25572238182E+03  0.25572238183E+03  0.25500000000E-02 0.  1.
         -2   -1    0    0    0  501 -0.00000000000E+00 -0.00000000000E+00 -0.11573817225E+03  0.11573817228E+03  0.25500000000E-02 0. -1.
    5000001    1    1    2    0    0 -0.13374226996E+03  0.67801416133E+02  0.32846980688E+02  0.17173220707E+03  0.77000000000E+02 0.  0.
   -5000001    1    1    2    0    0  0.13374226996E+03 -0.67801416133E+02  0.10713722888E+03  0.19972834705E+03  0.77000000000E+02 0.  0.
<mgrwt>
<rscale>  0 0.34407465E+03</rscale>
<asrwt>0</asrwt>
<pdfrwt beam="1">  1        2 0.39341905E-01 0.34407465E+03</pdfrwt>
<pdfrwt beam="2">  1       -2 0.17805873E-01 0.34407465E+03</pdfrwt>
<totfact> 0.33479064E+03</totfact>
</mgrwt>
</event>
<event>
 4    1  0.1195463E-003  0.2144608E+03  0.7818608E-02  0.1138081E+00
          2   -1    0    0  501    0  0.00000000000E+00  0.00000000000E+00  0.67718046269E+03  0.67718046269E+03  0.25500000000E-02 0.  1.
         -2   -1    0    0    0  501 -0.00000000000E+00 -0.00000000000E+00 -0.16979754017E+02  0.16979754209E+02  0.25500000000E-02 0. -1.
    5000001    1    1    2    0    0 -0.21200974968E+02 -0.67420137299E+02  0.40767496375E+03  0.42085963494E+03  0.77000000000E+02 0.  0.
   -5000001    1    1    2    0    0  0.21200974968E+02  0.67420137299E+02  0.25252574493E+03  0.27330058197E+03  0.77000000000E+02 0.  0.
<mgrwt>
<rscale>  0 0.21446079E+03</rscale>
<asrwt>0</asrwt>
<pdfrwt beam="1">  1        2 0.10418161E+00 0.21446079E+03</pdfrwt>
<pdfrwt beam="2">  1       -2 0.26122698E-02 0.21446079E+03</pdfrwt>
<totfact> 0.22249375E+04</totfact>
</mgrwt>
</event>
<event>
 4    1  0.1195463E-003  0.2396511E+03  0.7818608E-02  0.1120025E+00
          2   -1    0    0  501    0  0.00000000000E+00  0.00000000000E+00  0.72264333438E+03  0.72264333439E+03  0.25500000000E-02 0.  1.
         -2   -1    0    0    0  501 -0.00000000000E+00 -0.00000000000E+00 -0.19868953633E+02  0.19868953797E+02  0.25500000000E-02 0. -1.
    5000001    1    1    2    0    0 -0.43719486711E+02 -0.19513972900E+02  0.10866949251E+03  0.14152825605E+03  0.77000000000E+02 0.  0.
   -5000001    1    1    2    0    0  0.43719486711E+02  0.19513972900E+02  0.59410488824E+03  0.60098403214E+03  0.77000000000E+02 0.  0.
<mgrwt>
<rscale>  0 0.23965114E+03</rscale>
<asrwt>0</asrwt>
<pdfrwt beam="1">  1        2 0.11117590E+00 0.23965114E+03</pdfrwt>
<pdfrwt beam="2">  1       -2 0.30567620E-02 0.23965114E+03</pdfrwt>
<totfact> 0.16405955E+04</totfact>
</mgrwt>
</event>
<event>
 4    1  0.1195463E-003  0.5931390E+03  0.7818608E-02  0.9919744E-01
          2   -1    0    0  501    0  0.00000000000E+00  0.00000000000E+00  0.37531506113E+04  0.37531506113E+04  0.25500000000E-02 0.  1.
         -2   -1    0    0    0  501 -0.00000000000E+00 -0.00000000000E+00 -0.23434569949E+02  0.23434570087E+02  0.25500000000E-02 0. -1.
    5000001    1    1    2    0    0 -0.14192453333E+03  0.42883109784E+02  0.30468142017E+03  0.34747849151E+03  0.77000000000E+02 0.  0.
   -5000001    1    1    2    0    0  0.14192453333E+03 -0.42883109784E+02  0.34250346212E+04  0.34291066899E+04  0.77000000000E+02 0.  0.
<mgrwt>
<rscale>  0 0.59313901E+03</rscale>
<asrwt>0</asrwt>
<pdfrwt beam="1">  1        2 0.57740779E+00 0.59313901E+03</pdfrwt>
<pdfrwt beam="2">  1       -2 0.36053185E-02 0.59313901E+03</pdfrwt>
<totfact> 0.20303917E+02</totfact>
</mgrwt>
</event>
<event>
 4    1  0.1195463E-003  0.3140474E+03  0.7818608E-02  0.1078422E+00
          2   -1    0    0  501    0  0.00000000000E+00  0.00000000000E+00  0.19146112008E+03  0.19146112009E+03  0.25500000000E-02 0.  1.
         -2   -1    0    0    0  501 -0.00000000000E+00 -0.00000000000E+00 -0.12878043986E+03  0.12878043989E+03  0.25500000000E-02 0. -1.
    5000001    1    1    2    0    0 -0.70931992660E+02  0.92874463479E+02 -0.41271091961E+02  0.14590858981E+03  0.77000000000E+02 0.  0.
   -5000001    1    1    2    0    0  0.70931992660E+02 -0.92874463479E+02  0.10395177218E+03  0.17433297017E+03  0.77000000000E+02 0.  0.
<mgrwt>
<rscale>  0 0.31404743E+03</rscale>
<asrwt>0</asrwt>
<pdfrwt beam="1">  1        2 0.29455557E-01 0.31404743E+03</pdfrwt>
<pdfrwt beam="2">  1       -2 0.19812375E-01 0.31404743E+03</pdfrwt>
<totfact> 0.38231438E+03</totfact>
</mgrwt>
</event>
<event>
 4    1  0.1195463E-003  0.5020432E+03  0.7818608E-02  0.1013247E+00
         -2   -1    0    0    0  501 -0.00000000000E+00  0.00000000000E+00  0.86756575878E+02  0.86756575915E+02  0.25500000000E-02 0. -1.
          2   -1    0    0  501    0  0.00000000000E+00 -0.00000000000E+00 -0.72630614410E+03  0.72630614411E+03  0.25500000000E-02 0.  1.
    5000001    1    1    2    0    0  0.10124808814E+03 -0.15230785625E+03 -0.56874728664E+03  0.60237142569E+03  0.77000000000E+02 0.  0.
   -5000001    1    1    2    0    0 -0.10124808814E+03  0.15230785625E+03 -0.70802281582E+02  0.21069129433E+03  0.77000000000E+02 0.  0.
<mgrwt>
<rscale>  0 0.50204316E+03</rscale>
<asrwt>0</asrwt>
<pdfrwt beam="1">  1        2 0.11173940E+00 0.50204316E+03</pdfrwt>
<pdfrwt beam="2">  1       -2 0.13347166E-01 0.50204316E+03</pdfrwt>
<totfact> 0.16690333E+03</totfact>
</mgrwt>
</event>
<event>
 4    1  0.1195463E-003  0.2232075E+03  0.7818608E-02  0.1131514E+00
         -2   -1    0    0    0  501 -0.00000000000E+00  0.00000000000E+00  0.80797844971E+01  0.80797848995E+01  0.25500000000E-02 0. -1.
          2   -1    0    0  501    0  0.00000000000E+00 -0.00000000000E+00 -0.15415502898E+04  0.15415502898E+04  0.25500000000E-02 0.  1.
    5000001    1    1    2    0    0  0.79509258097E+02 -0.93845251144E+01 -0.69176755359E+03  0.70062910276E+03  0.77000000000E+02 0.  0.
   -5000001    1    1    2    0    0 -0.79509258097E+02  0.93845251144E+01 -0.84170295168E+03  0.84900097190E+03  0.77000000000E+02 0.  0.
<mgrwt>
<rscale>  0 0.22320748E+03</rscale>
<asrwt>0</asrwt>
<pdfrwt beam="1">  1        2 0.23716135E+00 0.22320748E+03</pdfrwt>
<pdfrwt beam="2">  1       -2 0.12430450E-02 0.22320748E+03</pdfrwt>
<totfact> 0.19951941E+04</totfact>
</mgrwt>
</event>
<event>
 4    1  0.1195463E-003  0.2047532E+03  0.7818608E-02  0.1145790E+00
          2   -1    0    0  501    0  0.00000000000E+00  0.00000000000E+00  0.42019574146E+03  0.42019574147E+03  0.25500000000E-02 0.  1.
         -2   -1    0    0    0  501 -0.00000000000E+00 -0.00000000000E+00 -0.24943061188E+02  0.24943061318E+02  0.25500000000E-02 0. -1.
    5000001    1    1    2    0    0  0.39649133066E+02 -0.49529727402E+02  0.24752109079E+03  0.26687251270E+03  0.77000000000E+02 0.  0.
   -5000001    1    1    2    0    0 -0.39649133066E+02  0.49529727402E+02  0.14773158948E+03  0.17826629008E+03  0.77000000000E+02 0.  0.
<mgrwt>
<rscale>  0 0.20475320E+03</rscale>
<asrwt>0</asrwt>
<pdfrwt beam="1">  1        2 0.64645499E-01 0.20475320E+03</pdfrwt>
<pdfrwt beam="2">  1       -2 0.38373940E-02 0.20475320E+03</pdfrwt>
<totfact> 0.21480450E+04</totfact>
</mgrwt>
</event>
<event>
 4    1  0.1195463E-003  0.4319228E+03  0.7818608E-02  0.1033254E+00
         -2   -1    0    0    0  501 -0.00000000000E+00  0.00000000000E+00  0.93842281025E+02  0.93842281059E+02  0.25500000000E-02 0. -1.
          2   -1    0    0  501    0  0.00000000000E+00 -0.00000000000E+00 -0.49699699567E+03  0.49699699568E+03  0.25500000000E-02 0.  1.
    5000001    1    1    2    0    0 -0.47542449981E+02 -0.13280217705E+03 -0.42273682126E+01  0.16075936496E+03  0.77000000000E+02 0.  0.
   -5000001    1    1    2    0    0  0.47542449981E+02  0.13280217705E+03 -0.39892734644E+03  0.43007991178E+03  0.77000000000E+02 0.  0.
<mgrwt>
<rscale>  0 0.43192283E+03</rscale>
<asrwt>0</asrwt>
<pdfrwt beam="1">  1        2 0.76461075E-01 0.43192283E+03</pdfrwt>
<pdfrwt beam="2">  1       -2 0.14437274E-01 0.43192283E+03</pdfrwt>
<totfact> 0.23006984E+03</totfact>
</mgrwt>
</event>
<event>
 4    1  0.1195463E-003  0.4167798E+03  0.7818608E-02  0.1038119E+00
          2   -1    0    0  501    0  0.00000000000E+00  0.00000000000E+00  0.82783549898E+02  0.82783549937E+02  0.25500000000E-02 0.  1.
         -2   -1    0    0    0  501 -0.00000000000E+00 -0.00000000000E+00 -0.52457695296E+03  0.52457695297E+03  0.25500000000E-02 0. -1.
    5000001    1    1    2    0    0 -0.65982096546E+02  0.17605525757E+03 -0.28844003577E+03  0.35281120308E+03  0.77000000000E+02 0.  0.
   -5000001    1    1    2    0    0  0.65982096546E+02 -0.17605525757E+03 -0.15335336730E+03  0.25454929983E+03  0.77000000000E+02 0.  0.
<mgrwt>
<rscale>  0 0.41677976E+03</rscale>
<asrwt>0</asrwt>
<pdfrwt beam="1">  1        2 0.12735931E-01 0.41677976E+03</pdfrwt>
<pdfrwt beam="2">  1       -2 0.80704145E-01 0.41677976E+03</pdfrwt>
<totfact> 0.66785838E+02</totfact>
</mgrwt>
</event>
<event>
 4    1  0.1195463E-003  0.1831546E+03  0.7818608E-02  0.1164784E+00
          2   -1    0    0  501    0  0.00000000000E+00  0.00000000000E+00  0.12095012430E+04  0.12095012430E+04  0.25500000000E-02 0.  1.
         -2   -1    0    0    0  501 -0.00000000000E+00 -0.00000000000E+00 -0.69337693376E+01  0.69337698065E+01  0.25500000000E-02 0. -1.
    5000001    1    1    2    0    0 -0.13503291041E+02 -0.43897553219E+02  0.47737451001E+03  0.48572086310E+03  0.77000000000E+02 0.  0.
   -5000001    1    1    2    0    0  0.13503291041E+02  0.43897553219E+02  0.72519296361E+03  0.73071414967E+03  0.77000000000E+02 0.  0.
<mgrwt>
<rscale>  0 0.18315461E+03</rscale>
<asrwt>0</asrwt>
<pdfrwt beam="1">  1        2 0.18607723E+00 0.18315461E+03</pdfrwt>
<pdfrwt beam="2">  1       -2 0.10667331E-02 0.18315461E+03</pdfrwt>
<totfact> 0.37222416E+04</totfact>
</mgrwt>
</event>
<event>
 4    1  0.1195463E-003  0.2277682E+03  0.7818608E-02  0.1128220E+00
         -2   -1    0    0    0  501 -0.00000000000E+00  0.00000000000E+00  0.15048262341E+02  0.15048262557E+02  0.25500000000E-02 0. -1.
          2   -1    0    0  501    0  0.00000000000E+00 -0.00000000000E+00 -0.86186653965E+03  0.86186653965E+03  0.25500000000E-02 0.  1.
    5000001    1    1    2    0    0  0.52482314710E+02  0.62416573192E+02 -0.49947740224E+03  0.51191493172E+03  0.77000000000E+02 0.  0.
   -5000001    1    1    2    0    0 -0.52482314710E+02 -0.62416573192E+02 -0.34734087507E+03  0.36499987049E+03  0.77000000000E+02 0.  0.
<mgrwt>
<rscale>  0 0.22776825E+03</rscale>
<asrwt>0</asrwt>
<pdfrwt beam="1">  1        2 0.13259481E+00 0.22776825E+03</pdfrwt>
<pdfrwt beam="2">  1       -2 0.23151180E-02 0.22776825E+03</pdfrwt>
<totfact> 0.19759290E+04</totfact>
</mgrwt>
</event>
<event>
 4    1  0.1195463E-003  0.3089137E+03  0.7818608E-02  0.1080868E+00
          2   -1    0    0  501    0  0.00000000000E+00  0.00000000000E+00  0.12433439072E+04  0.12433439072E+04  0.25500000000E-02 0.  1.
         -2   -1    0    0    0  501 -0.00000000000E+00 -0.00000000000E+00 -0.19187703813E+02  0.19187703983E+02  0.25500000000E-02 0. -1.
    5000001    1    1    2    0    0  0.10823266934E+03 -0.41313589349E+02  0.33770669337E+03  0.36523408127E+03  0.77000000000E+02 0.  0.
   -5000001    1    1    2    0    0 -0.10823266934E+03  0.41313589349E+02  0.88644951005E+03  0.89729752994E+03  0.77000000000E+02 0.  0.
<mgrwt>
<rscale>  0 0.30891368E+03</rscale>
<asrwt>0</asrwt>
<pdfrwt beam="1">  1        2 0.19128362E+00 0.30891368E+03</pdfrwt>
<pdfrwt beam="2">  1       -2 0.29519554E-02 0.30891368E+03</pdfrwt>
<totfact> 0.82088825E+03</totfact>
</mgrwt>
</event>
<event>
 4    1  0.1195463E-003  0.3085941E+03  0.7818608E-02  0.1081022E+00
          2   -1    0    0  501    0  0.00000000000E+00  0.00000000000E+00  0.16975728781E+04  0.16975728781E+04  0.25500000000E-02 0.  1.
         -2   -1    0    0    0  501 -0.00000000000E+00 -0.00000000000E+00 -0.14024479021E+02  0.14024479253E+02  0.25500000000E-02 0. -1.
    5000001    1    1    2    0    0 -0.52353356409E+02 -0.11839988684E+03  0.10273245268E+04  0.10383082830E+04  0.77000000000E+02 0.  0.
   -5000001    1    1    2    0    0  0.52353356409E+02  0.11839988684E+03  0.65622387230E+03  0.67328907440E+03  0.77000000000E+02 0.  0.
<mgrwt>
<rscale>  0 0.30859407E+03</rscale>
<asrwt>0</asrwt>
<pdfrwt beam="1">  1        2 0.26116508E+00 0.30859407E+03</pdfrwt>
<pdfrwt beam="2">  1       -2 0.21576120E-02 0.30859407E+03</pdfrwt>
<totfact> 0.74172383E+03</totfact>
</mgrwt>
</event>
<event>
 4    1  0.1195463E-003  0.1831892E+03  0.7818608E-02  0.1164752E+00
         -2   -1    0    0    0  501 -0.00000000000E+00  0.00000000000E+00  0.26348583296E+02  0.26348583419E+02  0.25500000000E-02 0. -1.
          2   -1    0    0  501    0  0.00000000000E+00 -0.00000000000E+00 -0.31840701235E+03  0.31840701236E+03  0.25500000000E-02 0.  1.
    5000001    1    1    2    0    0  0.26614176675E+02  0.36635240964E+02 -0.10791683856E+03  0.14009103942E+03  0.77000000000E+02 0.  0.
   -5000001    1    1    2    0    0 -0.26614176675E+02 -0.36635240964E+02 -0.18414159049E+03  0.20466455636E+03  0.77000000000E+02 0.  0.
<mgrwt>
<rscale>  0 0.18318923E+03</rscale>
<asrwt>0</asrwt>
<pdfrwt beam="1">  1        2 0.48985692E-01 0.18318923E+03</pdfrwt>
<pdfrwt beam="2">  1       -2 0.40536284E-02 0.18318923E+03</pdfrwt>
<totfact> 0.26430971E+04</totfact>
</mgrwt>
</event>
<event>
 4    1  0.1195463E-003  0.3950105E+03  0.7818608E-02  0.1045521E+00
         -2   -1    0    0    0  501 -0.00000000000E+00  0.00000000000E+00  0.57586592215E+02  0.57586592272E+02  0.25500000000E-02 0.  1.
          2   -1    0    0  501    0  0.00000000000E+00 -0.00000000000E+00 -0.67738553339E+03  0.67738553339E+03  0.25500000000E-02 0. -1.
    5000001    1    1    2    0    0 -0.12632846655E+03  0.75318347914E+01 -0.66847574955E+02  0.16252140866E+03  0.77000000000E+02 0.  0.
   -5000001    1    1    2    0    0  0.12632846655E+03 -0.75318347914E+01 -0.55295136622E+03  0.57245071700E+03  0.77000000000E+02 0.  0.
<mgrwt>
<rscale>  0 0.39501050E+03</rscale>
<asrwt>0</asrwt>
<pdfrwt beam="1">  1        2 0.10421315E+00 0.39501050E+03</pdfrwt>
<pdfrwt beam="2">  1       -2 0.88594762E-02 0.39501050E+03</pdfrwt>
<totfact> 0.35327896E+03</totfact>
</mgrwt>
</event>
<event>
 4    1  0.1195463E-003  0.2780835E+03  0.7818608E-02  0.1096740E+00
          2   -1    0    0  501    0  0.00000000000E+00  0.00000000000E+00  0.25461133728E+04  0.25461133728E+04  0.25500000000E-02 0.  1.
         -2   -1    0    0    0  501 -0.00000000000E+00 -0.00000000000E+00 -0.75929855225E+01  0.75929859507E+01  0.25500000000E-02 0. -1.
    5000001    1    1    2    0    0 -0.53521735101E+02 -0.91768378384E+02  0.84667249039E+03  0.85677845291E+03  0.77000000000E+02 0.  0.
   -5000001    1    1    2    0    0  0.53521735101E+02  0.91768378384E+02  0.16918478969E+04  0.16969279059E+04  0.77000000000E+02 0.  0.
<mgrwt>
<rscale>  0 0.27808346E+03</rscale>
<asrwt>0</asrwt>
<pdfrwt beam="1">  1        2 0.39170996E+00 0.27808346E+03</pdfrwt>
<pdfrwt beam="2">  1       -2 0.11681510E-02 0.27808346E+03</pdfrwt>
<totfact> 0.64322190E+03</totfact>
</mgrwt>
</event>
<event>
 4    1  0.1195463E-003  0.2346713E+03  0.7818608E-02  0.1123394E+00
          2   -1    0    0  501    0  0.00000000000E+00  0.00000000000E+00  0.64189627471E+03  0.64189627471E+03  0.25500000000E-02 0.  1.
         -2   -1    0    0    0  501 -0.00000000000E+00 -0.00000000000E+00 -0.21448417698E+02  0.21448417850E+02  0.25500000000E-02 0. -1.
    5000001    1    1    2    0    0 -0.56389498225E+02 -0.48142842364E+02  0.17345297036E+03  0.20374602256E+03  0.77000000000E+02 0.  0.
   -5000001    1    1    2    0    0  0.56389498225E+02  0.48142842364E+02  0.44699488665E+03  0.45959867001E+03  0.77000000000E+02 0.  0.
<mgrwt>
<rscale>  0 0.23467134E+03</rscale>
<asrwt>0</asrwt>
<pdfrwt beam="1">  1        2 0.98753258E-01 0.23467134E+03</pdfrwt>
<pdfrwt beam="2">  1       -2 0.32997571E-02 0.23467134E+03</pdfrwt>
<totfact> 0.16857773E+04</totfact>
</mgrwt>
</event>
<event>
 4    1  0.1195463E-003  0.2672307E+03  0.7818608E-02  0.1102875E+00
         -2   -1    0    0    0  501 -0.00000000000E+00  0.00000000000E+00  0.38538360982E+03  0.38538360983E+03  0.25500000000E-02 0. -1.
          2   -1    0    0  501    0  0.00000000000E+00 -0.00000000000E+00 -0.46325422633E+02  0.46325422703E+02  0.25500000000E-02 0.  1.
    5000001    1    1    2    0    0  0.10317397783E+03  0.32258068376E+02  0.19448339701E+03  0.23545327432E+03  0.77000000000E+02 0.  0.
   -5000001    1    1    2    0    0 -0.10317397783E+03 -0.32258068376E+02  0.14457479017E+03  0.19625575821E+03  0.77000000000E+02 0.  0.
<mgrwt>
<rscale>  0 0.26723068E+03</rscale>
<asrwt>0</asrwt>
<pdfrwt beam="1">  1        2 0.71269880E-02 0.26723068E+03</pdfrwt>
<pdfrwt beam="2">  1       -2 0.59289787E-01 0.26723068E+03</pdfrwt>
<totfact> 0.26636524E+03</totfact>
</mgrwt>
</event>
<event>
 4    1  0.1195463E-003  0.3103036E+03  0.7818608E-02  0.1080200E+00
         -2   -1    0    0    0  501 -0.00000000000E+00  0.00000000000E+00  0.18290519127E+02  0.18290519305E+02  0.25500000000E-02 0. -1.
          2   -1    0    0  501    0  0.00000000000E+00 -0.00000000000E+00 -0.13160963266E+04  0.13160963266E+04  0.25500000000E-02 0.  1.
    5000001    1    1    2    0    0 -0.11845329468E+03  0.46945545542E+02 -0.83674205711E+03  0.84988313162E+03  0.77000000000E+02 0.  0.
   -5000001    1    1    2    0    0  0.11845329468E+03 -0.46945545542E+02 -0.46106375040E+03  0.48450371433E+03  0.77000000000E+02 0.  0.
<mgrwt>
<rscale>  0 0.31030363E+03</rscale>
<asrwt>0</asrwt>
<pdfrwt beam="1">  1        2 0.20247628E+00 0.31030363E+03</pdfrwt>
<pdfrwt beam="2">  1       -2 0.28139271E-02 0.31030363E+03</pdfrwt>
<totfact> 0.80286352E+03</totfact>
</mgrwt>
</event>
<event>
 4    1  0.1195463E-003  0.6072045E+03  0.7818608E-02  0.9890571E-01
         -2   -1    0    0    0  501 -0.00000000000E+00  0.00000000000E+00  0.62118341299E+02  0.62118341351E+02  0.25500000000E-02 0. -1.
          2   -1    0    0  501    0  0.00000000000E+00 -0.00000000000E+00 -0.14838504685E+04  0.14838504685E+04  0.25500000000E-02 0.  1.
    5000001    1    1    2    0    0  0.14153473923E+03  0.17456155225E+03 -0.11922063341E+04  0.12156433527E+04  0.77000000000E+02 0.  0.
   -5000001    1    1    2    0    0 -0.14153473923E+03 -0.17456155225E+03 -0.22952579309E+03  0.33032545712E+03  0.77000000000E+02 0.  0.
<mgrwt>
<rscale>  0 0.60720451E+03</rscale>
<asrwt>0</asrwt>
<pdfrwt beam="1">  1        2 0.22828466E+00 0.60720451E+03</pdfrwt>
<pdfrwt beam="2">  1       -2 0.95566690E-02 0.60720451E+03</pdfrwt>
<totfact> 0.97521863E+02</totfact>
</mgrwt>
</event>
<event>
 4    1  0.1195463E-003  0.2865247E+03  0.7818608E-02  0.1092178E+00
         -2   -1    0    0    0  501 -0.00000000000E+00  0.00000000000E+00  0.15008364887E+03  0.15008364889E+03  0.25500000000E-02 0. -1.
          2   -1    0    0  501    0  0.00000000000E+00 -0.00000000000E+00 -0.13675109001E+03  0.13675109004E+03  0.25500000000E-02 0.  1.
    5000001    1    1    2    0    0  0.15380644106E+02  0.18528661232E+02 -0.11184774164E+03  0.13790863936E+03  0.77000000000E+02 0.  0.
   -5000001    1    1    2    0    0 -0.15380644106E+02 -0.18528661232E+02  0.12518030049E+03  0.14892609956E+03  0.77000000000E+02 0.  0.
<mgrwt>
<rscale>  0 0.28652471E+03</rscale>
<asrwt>0</asrwt>
<pdfrwt beam="1">  1        2 0.21038629E-01 0.28652471E+03</pdfrwt>
<pdfrwt beam="2">  1       -2 0.23089792E-01 0.28652471E+03</pdfrwt>
<totfact> 0.42677671E+03</totfact>
</mgrwt>
</event>
<event>
 4    1  0.1195463E-003  0.3114825E+03  0.7818608E-02  0.1079637E+00
         -2   -1    0    0    0  501 -0.00000000000E+00  0.00000000000E+00  0.18725674996E+03  0.18725674998E+03  0.25500000000E-02 0. -1.
          2   -1    0    0  501    0  0.00000000000E+00 -0.00000000000E+00 -0.12952983972E+03  0.12952983975E+03  0.25500000000E-02 0.  1.
    5000001    1    1    2    0    0  0.10351565415E+03  0.86286820886E+02  0.15782447557E+02  0.15600958869E+03  0.77000000000E+02 0.  0.
   -5000001    1    1    2    0    0 -0.10351565415E+03 -0.86286820886E+02  0.41944462684E+02  0.16077700104E+03  0.77000000000E+02 0.  0.
<mgrwt>
<rscale>  0 0.31148250E+03</rscale>
<asrwt>0</asrwt>
<pdfrwt beam="1">  1        2 0.19927668E-01 0.31148250E+03</pdfrwt>
<pdfrwt beam="2">  1       -2 0.28808731E-01 0.31148250E+03</pdfrwt>
<totfact> 0.30717883E+03</totfact>
</mgrwt>
</event>
<event>
 4    1  0.1195463E-003  0.2778939E+03  0.7818608E-02  0.1096845E+00
         -2   -1    0    0    0  501 -0.00000000000E+00  0.00000000000E+00  0.16517847373E+03  0.16517847375E+03  0.25500000000E-02 0. -1.
          2   -1    0    0  501    0  0.00000000000E+00 -0.00000000000E+00 -0.11688114528E+03  0.11688114531E+03  0.25500000000E-02 0.  1.
    5000001    1    1    2    0    0  0.97437402940E+02  0.24006056025E+02  0.82516449863E+02  0.15102417924E+03  0.77000000000E+02 0.  0.
   -5000001    1    1    2    0    0 -0.97437402940E+02 -0.24006056025E+02 -0.34219121412E+02  0.13103543982E+03  0.77000000000E+02 0.  0.
<mgrwt>
<rscale>  0 0.27789386E+03</rscale>
<asrwt>0</asrwt>
<pdfrwt beam="1">  1        2 0.17981715E-01 0.27789386E+03</pdfrwt>
<pdfrwt beam="2">  1       -2 0.25412073E-01 0.27789386E+03</pdfrwt>
<totfact> 0.43157515E+03</totfact>
</mgrwt>
</event>
<event>
 4    1  0.1195463E-003  0.2206422E+03  0.7818608E-02  0.1133405E+00
         -2   -1    0    0    0  501 -0.00000000000E+00  0.00000000000E+00  0.99684010144E+01  0.99684013405E+01  0.25500000000E-02 0. -1.
          2   -1    0    0  501    0  0.00000000000E+00 -0.00000000000E+00 -0.12209325757E+04  0.12209325757E+04  0.25500000000E-02 0.  1.
    5000001    1    1    2    0    0  0.56928135478E+02 -0.49545644829E+02 -0.73585739461E+03  0.74371411761E+03  0.77000000000E+02 0.  0.
   -5000001    1    1    2    0    0 -0.56928135478E+02  0.49545644829E+02 -0.47510678008E+03  0.48718685943E+03  0.77000000000E+02 0.  0.
<mgrwt>
<rscale>  0 0.22064221E+03</rscale>
<asrwt>0</asrwt>
<pdfrwt beam="1">  1        2 0.18783566E+00 0.22064221E+03</pdfrwt>
<pdfrwt beam="2">  1       -2 0.15336012E-02 0.22064221E+03</pdfrwt>
<totfact> 0.21925914E+04</totfact>
</mgrwt>
</event>
<event>
 4    1  0.1195463E-003  0.1743488E+03  0.7818608E-02  0.1173387E+00
          2   -1    0    0  501    0  0.00000000000E+00  0.00000000000E+00  0.43188867906E+03  0.43188867906E+03  0.25500000000E-02 0.  1.
         -2   -1    0    0    0  501 -0.00000000000E+00 -0.00000000000E+00 -0.17595678043E+02  0.17595678227E+02  0.25500000000E-02 0. -1.
    5000001    1    1    2    0    0 -0.38326479847E+02 -0.12183154659E+02  0.22591975617E+03  0.24204562492E+03  0.77000000000E+02 0.  0.
   -5000001    1    1    2    0    0  0.38326479847E+02  0.12183154659E+02  0.18837324484E+03  0.20743873237E+03  0.77000000000E+02 0.  0.
<mgrwt>
<rscale>  0 0.17434878E+03</rscale>
<asrwt>0</asrwt>
<pdfrwt beam="1">  1        2 0.66444411E-01 0.17434878E+03</pdfrwt>
<pdfrwt beam="2">  1       -2 0.27070275E-02 0.17434878E+03</pdfrwt>
<totfact> 0.34528018E+04</totfact>
</mgrwt>
</event>
<event>
 4    1  0.1195463E-003  0.2961357E+03  0.7818608E-02  0.1087188E+00
          2   -1    0    0  501    0  0.00000000000E+00  0.00000000000E+00  0.20462933047E+04  0.20462933047E+04  0.25500000000E-02 0.  1.
         -2   -1    0    0    0  501 -0.00000000000E+00 -0.00000000000E+00 -0.10714050225E+02  0.10714050528E+02  0.25500000000E-02 0. -1.
    5000001    1    1    2    0    0 -0.85907862857E+02 -0.53424745544E+02  0.49057961985E+03  0.50678568226E+03  0.77000000000E+02 0.  0.
   -5000001    1    1    2    0    0  0.85907862857E+02  0.53424745544E+02  0.15449996346E+04  0.15502216730E+04  0.77000000000E+02 0.  0.
<mgrwt>
<rscale>  0 0.29613571E+03</rscale>
<asrwt>0</asrwt>
<pdfrwt beam="1">  1        2 0.31481431E+00 0.29613571E+03</pdfrwt>
<pdfrwt beam="2">  1       -2 0.16483157E-02 0.29613571E+03</pdfrwt>
<totfact> 0.72199919E+03</totfact>
</mgrwt>
</event>
<event>
 4    1  0.1195463E-003  0.4394921E+03  0.7818608E-02  0.1030903E+00
         -2   -1    0    0    0  501 -0.00000000000E+00  0.00000000000E+00  0.30904225240E+03  0.30904225241E+03  0.25500000000E-02 0. -1.
          2   -1    0    0  501    0  0.00000000000E+00 -0.00000000000E+00 -0.15625152681E+03  0.15625152683E+03  0.25500000000E-02 0.  1.
    5000001    1    1    2    0    0  0.16150196460E+03  0.38819449146E+02 -0.52269194206E+02  0.19039669867E+03  0.77000000000E+02 0.  0.
   -5000001    1    1    2    0    0 -0.16150196460E+03 -0.38819449146E+02  0.20505991979E+03  0.27489708057E+03  0.77000000000E+02 0.  0.
<mgrwt>
<rscale>  0 0.43949209E+03</rscale>
<asrwt>0</asrwt>
<pdfrwt beam="1">  1        2 0.24038697E-01 0.43949209E+03</pdfrwt>
<pdfrwt beam="2">  1       -2 0.47544961E-01 0.43949209E+03</pdfrwt>
<totfact> 0.96229515E+02</totfact>
</mgrwt>
</event>
<event>
 4    1  0.1195463E-003  0.2212770E+03  0.7818608E-02  0.1132935E+00
          2   -1    0    0  501    0  0.00000000000E+00  0.00000000000E+00  0.17541447735E+04  0.17541447735E+04  0.25500000000E-02 0.  1.
         -2   -1    0    0    0  501 -0.00000000000E+00 -0.00000000000E+00 -0.69782596671E+01  0.69782601330E+01  0.25500000000E-02 0. -1.
    5000001    1    1    2    0    0  0.83885252403E+01 -0.76280675949E+02  0.10372291511E+04  0.10429105526E+04  0.77000000000E+02 0.  0.
   -5000001    1    1    2    0    0 -0.83885252403E+01  0.76280675949E+02  0.70993736276E+03  0.71821248104E+03  0.77000000000E+02 0.  0.
<mgrwt>
<rscale>  0 0.22127700E+03</rscale>
<asrwt>0</asrwt>
<pdfrwt beam="1">  1        2 0.26986845E+00 0.22127700E+03</pdfrwt>
<pdfrwt beam="2">  1       -2 0.10735783E-02 0.22127700E+03</pdfrwt>
<totfact> 0.19079541E+04</totfact>
</mgrwt>
</event>
<event>
 4    1  0.1195463E-003  0.2350742E+03  0.7818608E-02  0.1123118E+00
         -2   -1    0    0    0  501 -0.00000000000E+00  0.00000000000E+00  0.78233523603E+03  0.78233523603E+03  0.25500000000E-02 0. -1.
          2   -1    0    0  501    0  0.00000000000E+00 -0.00000000000E+00 -0.17658634128E+02  0.17658634312E+02  0.25500000000E-02 0.  1.
    5000001    1    1    2    0    0  0.32641483075E+02 -0.82206990478E+02  0.40924605868E+03  0.42571679818E+03  0.77000000000E+02 0.  0.
   -5000001    1    1    2    0    0 -0.32641483075E+02  0.82206990478E+02  0.35543054322E+03  0.37427707217E+03  0.77000000000E+02 0.  0.
<mgrwt>
<rscale>  0 0.23507422E+03</rscale>
<asrwt>0</asrwt>
<pdfrwt beam="1">  1        2 0.27167129E-02 0.23507422E+03</pdfrwt>
<pdfrwt beam="2">  1       -2 0.12035927E+00 0.23507422E+03</pdfrwt>
<totfact> 0.19630272E+03</totfact>
</mgrwt>
</event>
<event>
 4    1  0.1195463E-003  0.1865919E+03  0.7818608E-02  0.1161572E+00
         -2   -1    0    0    0  501 -0.00000000000E+00  0.00000000000E+00  0.77921790038E+02  0.77921790080E+02  0.25500000000E-02 0. -1.
          2   -1    0    0  501    0  0.00000000000E+00 -0.00000000000E+00 -0.11170347999E+03  0.11170348002E+03  0.25500000000E-02 0.  1.
    5000001    1    1    2    0    0  0.14681445309E+02  0.50563135904E+02 -0.15142537284E+02  0.94501174513E+02  0.77000000000E+02 0.  0.
   -5000001    1    1    2    0    0 -0.14681445309E+02 -0.50563135904E+02 -0.18639152667E+02  0.95124095586E+02  0.77000000000E+02 0.  0.
<mgrwt>
<rscale>  0 0.18659191E+03</rscale>
<asrwt>0</asrwt>
<pdfrwt beam="1">  1        2 0.17185151E-01 0.18659191E+03</pdfrwt>
<pdfrwt beam="2">  1       -2 0.11987968E-01 0.18659191E+03</pdfrwt>
<totfact> 0.15732862E+04</totfact>
</mgrwt>
</event>
<event>
 4    1  0.1195463E-003  0.2229983E+03  0.7818608E-02  0.1131667E+00
          2   -1    0    0  501    0  0.00000000000E+00  0.00000000000E+00  0.45706231486E+03  0.45706231487E+03  0.25500000000E-02 0.  1.
         -2   -1    0    0    0  501 -0.00000000000E+00 -0.00000000000E+00 -0.27199934578E+02  0.27199934698E+02  0.25500000000E-02 0. -1.
    5000001    1    1    2    0    0 -0.47425746824E+02 -0.21456142522E+02  0.81179620486E+02  0.12340461213E+03  0.77000000000E+02 0.  0.
   -5000001    1    1    2    0    0  0.47425746824E+02  0.21456142522E+02  0.34868275979E+03  0.36085763743E+03  0.77000000000E+02 0.  0.
<mgrwt>
<rscale>  0 0.22299834E+03</rscale>
<asrwt>0</asrwt>
<pdfrwt beam="1">  1        2 0.70317279E-01 0.22299834E+03</pdfrwt>
<pdfrwt beam="2">  1       -2 0.41846054E-02 0.22299834E+03</pdfrwt>
<totfact> 0.17309426E+04</totfact>
</mgrwt>
</event>
<event>
 4    1  0.1195463E-003  0.2142500E+03  0.7818608E-02  0.1138244E+00
         -2   -1    0    0    0  501 -0.00000000000E+00  0.00000000000E+00  0.19585088976E+03  0.19585088978E+03  0.25500000000E-02 0. -1.
          2   -1    0    0  501    0  0.00000000000E+00 -0.00000000000E+00 -0.58594375869E+02  0.58594375924E+02  0.25500000000E-02 0.  1.
    5000001    1    1    2    0    0 -0.22149527381E+02 -0.69174771098E+02  0.88179141310E+02  0.13776905125E+03  0.77000000000E+02 0.  0.
   -5000001    1    1    2    0    0  0.22149527381E+02  0.69174771098E+02  0.49077372582E+02  0.11667621445E+03  0.77000000000E+02 0.  0.
<mgrwt>
<rscale>  0 0.21424995E+03</rscale>
<asrwt>0</asrwt>
<pdfrwt beam="1">  1        2 0.90145195E-02 0.21424995E+03</pdfrwt>
<pdfrwt beam="2">  1       -2 0.30130906E-01 0.21424995E+03</pdfrwt>
<totfact> 0.72346561E+03</totfact>
</mgrwt>
</event>
<event>
 4    1  0.1195463E-003  0.1762184E+03  0.7818608E-02  0.1171514E+00
          2   -1    0    0  501    0  0.00000000000E+00  0.00000000000E+00  0.14743284126E+04  0.14743284126E+04  0.25500000000E-02 0.  1.
         -2   -1    0    0    0  501 -0.00000000000E+00 -0.00000000000E+00 -0.52656058250E+01  0.52656064425E+01  0.25500000000E-02 0. -1.
    5000001    1    1    2    0    0  0.42387669464E+02 -0.56305474988E+01  0.75477891491E+03  0.75990040662E+03  0.77000000000E+02 0.  0.
   -5000001    1    1    2    0    0 -0.42387669464E+02  0.56305474988E+01  0.71428389185E+03  0.71969361241E+03  0.77000000000E+02 0.  0.
<mgrwt>
<rscale>  0 0.17621842E+03</rscale>
<asrwt>0</asrwt>
<pdfrwt beam="1">  1        2 0.22682008E+00 0.17621842E+03</pdfrwt>
<pdfrwt beam="2">  1       -2 0.81009209E-03 0.17621842E+03</pdfrwt>
<totfact> 0.39629642E+04</totfact>
</mgrwt>
</event>
<event>
 4    1  0.1195463E-003  0.2410461E+03  0.7818608E-02  0.1119098E+00
          2   -1    0    0  501    0  0.00000000000E+00  0.00000000000E+00  0.28112539894E+04  0.28112539894E+04  0.25500000000E-02 0.  1.
         -2   -1    0    0    0  501 -0.00000000000E+00 -0.00000000000E+00 -0.51670199538E+01  0.51670205830E+01  0.25500000000E-02 0. -1.
    5000001    1    1    2    0    0  0.53960514712E+02 -0.32809929915E+02  0.21962402084E+04  0.21984968232E+04  0.77000000000E+02 0.  0.
   -5000001    1    1    2    0    0 -0.53960514712E+02  0.32809929915E+02  0.60984676109E+03  0.61792418683E+03  0.77000000000E+02 0.  0.
<mgrwt>
<rscale>  0 0.24104611E+03</rscale>
<asrwt>0</asrwt>
<pdfrwt beam="1">  1        2 0.43250029E+00 0.24104611E+03</pdfrwt>
<pdfrwt beam="2">  1       -2 0.79492678E-03 0.24104611E+03</pdfrwt>
<totfact> 0.79870279E+03</totfact>
</mgrwt>
</event>
<event>
 4    1  0.1195463E-003  0.2365829E+03  0.7818608E-02  0.1122090E+00
         -2   -1    0    0    0  501 -0.00000000000E+00  0.00000000000E+00  0.86776864418E+01  0.86776868164E+01  0.25500000000E-02 0. -1.
          2   -1    0    0  501    0  0.00000000000E+00 -0.00000000000E+00 -0.16125115313E+04  0.16125115313E+04  0.25500000000E-02 0.  1.
    5000001    1    1    2    0    0 -0.12268309348E+02 -0.61319108391E+02 -0.12435364700E+04  0.12474864715E+04  0.77000000000E+02 0.  0.
   -5000001    1    1    2    0    0  0.12268309348E+02  0.61319108391E+02 -0.36029737491E+03  0.37370274663E+03  0.77000000000E+02 0.  0.
<mgrwt>
<rscale>  0 0.23658292E+03</rscale>
<asrwt>0</asrwt>
<pdfrwt beam="1">  1        2 0.24807846E+00 0.23658292E+03</pdfrwt>
<pdfrwt beam="2">  1       -2 0.13350300E-02 0.23658292E+03</pdfrwt>
<totfact> 0.16537147E+04</totfact>
</mgrwt>
</event>
<event>
 4    1  0.1195463E-003  0.2631150E+03  0.7818608E-02  0.1105286E+00
          2   -1    0    0  501    0  0.00000000000E+00  0.00000000000E+00  0.44005255594E+03  0.44005255594E+03  0.25500000000E-02 0.  1.
         -2   -1    0    0    0  501 -0.00000000000E+00 -0.00000000000E+00 -0.39330240284E+02  0.39330240366E+02  0.25500000000E-02 0. -1.
    5000001    1    1    2    0    0 -0.55259671316E+02  0.84505517544E+02  0.26304156854E+03  0.29208676887E+03  0.77000000000E+02 0.  0.
   -5000001    1    1    2    0    0  0.55259671316E+02 -0.84505517544E+02  0.13768074711E+03  0.18729602744E+03  0.77000000000E+02 0.  0.
<mgrwt>
<rscale>  0 0.26311498E+03</rscale>
<asrwt>0</asrwt>
<pdfrwt beam="1">  1        2 0.67700391E-01 0.26311498E+03</pdfrwt>
<pdfrwt beam="2">  1       -2 0.60508064E-02 0.26311498E+03</pdfrwt>
<totfact> 0.10400689E+04</totfact>
</mgrwt>
</event>
<event>
 4    1  0.1195463E-003  0.2321066E+03  0.7818608E-02  0.1125166E+00
         -2   -1    0    0    0  501 -0.00000000000E+00  0.00000000000E+00  0.28348963405E+02  0.28348963520E+02  0.25500000000E-02 0. -1.
          2   -1    0    0  501    0  0.00000000000E+00 -0.00000000000E+00 -0.47509206557E+03  0.47509206557E+03  0.25500000000E-02 0.  1.
    5000001    1    1    2    0    0  0.29306941047E+02  0.70856885275E+02 -0.13500550380E+03  0.17330632141E+03  0.77000000000E+02 0.  0.
   -5000001    1    1    2    0    0 -0.29306941047E+02 -0.70856885275E+02 -0.31173759836E+03  0.33013470768E+03  0.77000000000E+02 0.  0.
<mgrwt>
<rscale>  0 0.23210659E+03</rscale>
<asrwt>0</asrwt>
<pdfrwt beam="1">  1        2 0.73091081E-01 0.23210659E+03</pdfrwt>
<pdfrwt beam="2">  1       -2 0.43613793E-02 0.23210659E+03</pdfrwt>
<totfact> 0.15623863E+04</totfact>
</mgrwt>
</event>
<event>
 4    1  0.1195463E-003  0.3729107E+03  0.7818608E-02  0.1053586E+00
         -2   -1    0    0    0  501 -0.00000000000E+00  0.00000000000E+00  0.30007446953E+02  0.30007447061E+02  0.25500000000E-02 0. -1.
          2   -1    0    0  501    0  0.00000000000E+00 -0.00000000000E+00 -0.11585658489E+04  0.11585658489E+04  0.25500000000E-02 0.  1.
    5000001    1    1    2    0    0 -0.19301826100E+02  0.15957698657E+03 -0.73883160800E+03  0.76002534175E+03  0.77000000000E+02 0.  0.
   -5000001    1    1    2    0    0  0.19301826100E+02 -0.15957698657E+03 -0.38972679394E+03  0.42854795420E+03  0.77000000000E+02 0.  0.
<mgrwt>
<rscale>  0 0.37291073E+03</rscale>
<asrwt>0</asrwt>
<pdfrwt beam="1">  1        2 0.17824086E+00 0.37291073E+03</pdfrwt>
<pdfrwt beam="2">  1       -2 0.46165312E-02 0.37291073E+03</pdfrwt>
<totfact> 0.46869134E+03</totfact>
</mgrwt>
</event>
<event>
 4    1  0.1195463E-003  0.1891437E+03  0.7818608E-02  0.1159236E+00
          2   -1    0    0  501    0  0.00000000000E+00  0.00000000000E+00  0.74482330373E+02  0.74482330417E+02  0.25500000000E-02 0.  1.
         -2   -1    0    0    0  501 -0.00000000000E+00 -0.00000000000E+00 -0.12007992614E+03  0.12007992617E+03  0.25500000000E-02 0. -1.
    5000001    1    1    2    0    0 -0.54598353661E+02  0.34627828140E+00 -0.16824433444E+02  0.95880976694E+02  0.77000000000E+02 0.  0.
   -5000001    1    1    2    0    0  0.54598353661E+02 -0.34627828140E+00 -0.28773162326E+02  0.98681279893E+02  0.77000000000E+02 0.  0.
<mgrwt>
<rscale>  0 0.18914368E+03</rscale>
<asrwt>0</asrwt>
<pdfrwt beam="1">  1        2 0.11458820E-01 0.18914368E+03</pdfrwt>
<pdfrwt beam="2">  1       -2 0.18473835E-01 0.18914368E+03</pdfrwt>
<totfact> 0.12526779E+04</totfact>
</mgrwt>
</event>
<event>
 4    1  0.1195463E-003  0.2050527E+03  0.7818608E-02  0.1145545E+00
          2   -1    0    0  501    0  0.00000000000E+00  0.00000000000E+00  0.51174803693E+03  0.51174803694E+03  0.25500000000E-02 0.  1.
         -2   -1    0    0    0  501 -0.00000000000E+00 -0.00000000000E+00 -0.20540684317E+02  0.20540684475E+02  0.25500000000E-02 0. -1.
    5000001    1    1    2    0    0 -0.48535179011E+02 -0.16810194089E+02  0.13113794222E+03  0.16051294689E+03  0.77000000000E+02 0.  0.
   -5000001    1    1    2    0    0  0.48535179011E+02  0.16810194089E+02  0.36006941039E+03  0.37177577453E+03  0.77000000000E+02 0.  0.
<mgrwt>
<rscale>  0 0.20505272E+03</rscale>
<asrwt>0</asrwt>
<pdfrwt beam="1">  1        2 0.78730466E-01 0.20505272E+03</pdfrwt>
<pdfrwt beam="2">  1       -2 0.31601054E-02 0.20505272E+03</pdfrwt>
<totfact> 0.23098598E+04</totfact>
</mgrwt>
</event>
<event>
 4    1  0.1195463E-003  0.1649412E+03  0.7818608E-02  0.1183228E+00
          2   -1    0    0  501    0  0.00000000000E+00  0.00000000000E+00  0.13590817031E+02  0.13590817270E+02  0.25500000000E-02 0.  1.
         -2   -1    0    0    0  501 -0.00000000000E+00 -0.00000000000E+00 -0.50044107649E+03  0.50044107650E+03  0.25500000000E-02 0. -1.
    5000001    1    1    2    0    0  0.26699251112E+02 -0.12575038348E+02 -0.23970939403E+03  0.25349669660E+03  0.77000000000E+02 0.  0.
   -5000001    1    1    2    0    0 -0.26699251112E+02  0.12575038348E+02 -0.24714086543E+03  0.26053519717E+03  0.77000000000E+02 0.  0.
<mgrwt>
<rscale>  0 0.16494124E+03</rscale>
<asrwt>0</asrwt>
<pdfrwt beam="1">  1        2 0.20908953E-02 0.16494124E+03</pdfrwt>
<pdfrwt beam="2">  1       -2 0.76990920E-01 0.16494124E+03</pdfrwt>
<totfact> 0.76433908E+03</totfact>
</mgrwt>
</event>
<event>
 4    1  0.1195463E-003  0.2695717E+03  0.7818608E-02  0.1101525E+00
          2   -1    0    0  501    0  0.00000000000E+00  0.00000000000E+00  0.66712818238E+03  0.66712818239E+03  0.25500000000E-02 0.  1.
         -2   -1    0    0    0  501 -0.00000000000E+00 -0.00000000000E+00 -0.27231989142E+02  0.27231989261E+02  0.25500000000E-02 0. -1.
    5000001    1    1    2    0    0 -0.58315821806E+01  0.10978976523E+03  0.28835630993E+03  0.31806628456E+03  0.77000000000E+02 0.  0.
   -5000001    1    1    2    0    0  0.58315821806E+01 -0.10978976523E+03  0.35153988331E+03  0.37629388709E+03  0.77000000000E+02 0.  0.
<mgrwt>
<rscale>  0 0.26957172E+03</rscale>
<asrwt>0</asrwt>
<pdfrwt beam="1">  1        2 0.10263511E+00 0.26957172E+03</pdfrwt>
<pdfrwt beam="2">  1       -2 0.41895365E-02 0.26957172E+03</pdfrwt>
<totfact> 0.11334765E+04</totfact>
</mgrwt>
</event>
<event>
 4    1  0.1195463E-003  0.2432413E+03  0.7818608E-02  0.1117652E+00
         -2   -1    0    0    0  501 -0.00000000000E+00  0.00000000000E+00  0.35326314576E+02  0.35326314668E+02  0.25500000000E-02 0. -1.
          2   -1    0    0  501    0  0.00000000000E+00 -0.00000000000E+00 -0.41871270481E+03  0.41871270482E+03  0.25500000000E-02 0.  1.
    5000001    1    1    2    0    0 -0.56167650489E+02 -0.20382113098E+02 -0.32748697142E+03  0.34168253094E+03  0.77000000000E+02 0.  0.
   -5000001    1    1    2    0    0  0.56167650489E+02  0.20382113098E+02 -0.55899418814E+02  0.11235648855E+03  0.77000000000E+02 0.  0.
<mgrwt>
<rscale>  0 0.24324125E+03</rscale>
<asrwt>0</asrwt>
<pdfrwt beam="1">  1        2 0.64417336E-01 0.24324125E+03</pdfrwt>
<pdfrwt beam="2">  1       -2 0.54348179E-02 0.24324125E+03</pdfrwt>
<totfact> 0.12892112E+04</totfact>
</mgrwt>
</event>
<event>
 4    1  0.1195463E-003  0.2314813E+03  0.7818608E-02  0.1125601E+00
          2   -1    0    0  501    0  0.00000000000E+00  0.00000000000E+00  0.26772645923E+03  0.26772645925E+03  0.25500000000E-02 0.  1.
         -2   -1    0    0    0  501 -0.00000000000E+00 -0.00000000000E+00 -0.50035760406E+02  0.50035760471E+02  0.25500000000E-02 0. -1.
    5000001    1    1    2    0    0  0.51911442675E+02 -0.36518394105E+02  0.28349913208E+02  0.10373576320E+03  0.77000000000E+02 0.  0.
   -5000001    1    1    2    0    0 -0.51911442675E+02  0.36518394105E+02  0.18934078562E+03  0.21402645651E+03  0.77000000000E+02 0.  0.
<mgrwt>
<rscale>  0 0.23148129E+03</rscale>
<asrwt>0</asrwt>
<pdfrwt beam="1">  1        2 0.41188687E-01 0.23148129E+03</pdfrwt>
<pdfrwt beam="2">  1       -2 0.76978092E-02 0.23148129E+03</pdfrwt>
<totfact> 0.12182742E+04</totfact>
</mgrwt>
</event>
<event>
 4    1  0.1195463E-003  0.2837162E+03  0.7818608E-02  0.1093676E+00
         -2   -1    0    0    0  501 -0.00000000000E+00  0.00000000000E+00  0.40427259707E+03  0.40427259708E+03  0.25500000000E-02 0. -1.
          2   -1    0    0  501    0  0.00000000000E+00 -0.00000000000E+00 -0.49777614978E+02  0.49777615044E+02  0.25500000000E-02 0.  1.
    5000001    1    1    2    0    0  0.85104718730E+02  0.75800594145E+02  0.23282847108E+03  0.27041937832E+03  0.77000000000E+02 0.  0.
   -5000001    1    1    2    0    0 -0.85104718730E+02 -0.75800594145E+02  0.12166651101E+03  0.18363083381E+03  0.77000000000E+02 0.  0.
<mgrwt>
<rscale>  0 0.28371624E+03</rscale>
<asrwt>0</asrwt>
<pdfrwt beam="1">  1        2 0.76580943E-02 0.28371624E+03</pdfrwt>
<pdfrwt beam="2">  1       -2 0.62195787E-01 0.28371624E+03</pdfrwt>
<totfact> 0.22033706E+03</totfact>
</mgrwt>
</event>
<event>
 4    1  0.1195463E-003  0.3255893E+03  0.7818608E-02  0.1073105E+00
         -2   -1    0    0    0  501 -0.00000000000E+00  0.00000000000E+00  0.19561840307E+02  0.19561840473E+02  0.25500000000E-02 0. -1.
          2   -1    0    0  501    0  0.00000000000E+00 -0.00000000000E+00 -0.13547858813E+04  0.13547858813E+04  0.25500000000E-02 0.  1.
    5000001    1    1    2    0    0  0.13799352668E+03  0.78831767151E+01 -0.82938276515E+03  0.84433946314E+03  0.77000000000E+02 0.  0.
   -5000001    1    1    2    0    0 -0.13799352668E+03 -0.78831767151E+01 -0.50584127588E+03  0.53000825867E+03  0.77000000000E+02 0.  0.
<mgrwt>
<rscale>  0 0.32558934E+03</rscale>
<asrwt>0</asrwt>
<pdfrwt beam="1">  1        2 0.20842852E+00 0.32558934E+03</pdfrwt>
<pdfrwt beam="2">  1       -2 0.30095150E-02 0.32558934E+03</pdfrwt>
<totfact> 0.69177684E+03</totfact>
</mgrwt>
</event>
<event>
 4    1  0.1195463E-003  0.2066531E+03  0.7818608E-02  0.1144244E+00
         -2   -1    0    0    0  501 -0.00000000000E+00  0.00000000000E+00  0.30511439357E+03  0.30511439358E+03  0.25500000000E-02 0. -1.
          2   -1    0    0  501    0  0.00000000000E+00 -0.00000000000E+00 -0.34991393759E+02  0.34991393852E+02  0.25500000000E-02 0.  1.
    5000001    1    1    2    0    0  0.59191258016E+02 -0.29258584470E+02  0.10265556894E+03  0.14431505682E+03  0.77000000000E+02 0.  0.
   -5000001    1    1    2    0    0 -0.59191258016E+02  0.29258584470E+02  0.16746743087E+03  0.19579073061E+03  0.77000000000E+02 0.  0.
<mgrwt>
<rscale>  0 0.20665312E+03</rscale>
<asrwt>0</asrwt>
<pdfrwt beam="1">  1        2 0.53832912E-02 0.20665312E+03</pdfrwt>
<pdfrwt beam="2">  1       -2 0.46940677E-01 0.20665312E+03</pdfrwt>
<totfact> 0.60632951E+03</totfact>
</mgrwt>
</event>
<event>
 4    1  0.1195463E-003  0.1787411E+03  0.7818608E-02  0.1169027E+00
          2   -1    0    0  501    0  0.00000000000E+00  0.00000000000E+00  0.18835363469E+04  0.18835363469E+04  0.25500000000E-02 0.  1.
         -2   -1    0    0    0  501 -0.00000000000E+00 -0.00000000000E+00 -0.42404757752E+01  0.42404765419E+01  0.25500000000E-02 0. -1.
    5000001    1    1    2    0    0  0.29345349654E+02 -0.34495397326E+02  0.91168684186E+03  0.91605293494E+03  0.77000000000E+02 0.  0.
   -5000001    1    1    2    0    0 -0.29345349654E+02  0.34495397326E+02  0.96760902927E+03  0.97172388851E+03  0.77000000000E+02 0.  0.
<mgrwt>
<rscale>  0 0.17874105E+03</rscale>
<asrwt>0</asrwt>
<pdfrwt beam="1">  1        2 0.28977499E+00 0.17874105E+03</pdfrwt>
<pdfrwt beam="2">  1       -2 0.65238057E-03 0.17874105E+03</pdfrwt>
<totfact> 0.33136096E+04</totfact>
</mgrwt>
</event>
<event>
 4    1  0.1195463E-003  0.1900085E+03  0.7818608E-02  0.1158454E+00
          2   -1    0    0  501    0  0.00000000000E+00  0.00000000000E+00  0.10903559251E+04  0.10903559251E+04  0.25500000000E-02 0.  1.
         -2   -1    0    0    0  501 -0.00000000000E+00 -0.00000000000E+00 -0.82778523379E+01  0.82778527307E+01  0.25500000000E-02 0. -1.
    5000001    1    1    2    0    0 -0.40636580772E+02  0.19656759057E+02  0.35287114659E+03  0.36398456831E+03  0.77000000000E+02 0.  0.
   -5000001    1    1    2    0    0  0.40636580772E+02 -0.19656759057E+02  0.72920692616E+03  0.73464920951E+03  0.77000000000E+02 0.  0.
<mgrwt>
<rscale>  0 0.19000848E+03</rscale>
<asrwt>0</asrwt>
<pdfrwt beam="1">  1        2 0.16774711E+00 0.19000848E+03</pdfrwt>
<pdfrwt beam="2">  1       -2 0.12735154E-02 0.19000848E+03</pdfrwt>
<totfact> 0.33784485E+04</totfact>
</mgrwt>
</event>
<event>
 4    1  0.1195463E-003  0.3430273E+03  0.7818608E-02  0.1065514E+00
          2   -1    0    0  501    0  0.00000000000E+00  0.00000000000E+00  0.13492318042E+03  0.13492318045E+03  0.25500000000E-02 0.  1.
         -2   -1    0    0    0  501 -0.00000000000E+00 -0.00000000000E+00 -0.21802727483E+03  0.21802727485E+03  0.25500000000E-02 0. -1.
    5000001    1    1    2    0    0 -0.95752226369E+02 -0.11822067811E+03 -0.60616832618E+02  0.18096413453E+03  0.77000000000E+02 0.  0.
   -5000001    1    1    2    0    0  0.95752226369E+02  0.11822067811E+03 -0.22487261796E+02  0.17198632077E+03  0.77000000000E+02 0.  0.
<mgrwt>
<rscale>  0 0.34302731E+03</rscale>
<asrwt>0</asrwt>
<pdfrwt beam="1">  1        2 0.20757412E-01 0.34302731E+03</pdfrwt>
<pdfrwt beam="2">  1       -2 0.33542658E-01 0.34302731E+03</pdfrwt>
<totfact> 0.22219429E+03</totfact>
</mgrwt>
</event>
<event>
 4    1  0.1195463E-003  0.3050984E+03  0.7818608E-02  0.1082719E+00
         -2   -1    0    0    0  501 -0.00000000000E+00  0.00000000000E+00  0.16803105237E+03  0.16803105239E+03  0.25500000000E-02 0. -1.
          2   -1    0    0  501    0  0.00000000000E+00 -0.00000000000E+00 -0.13849376208E+03  0.13849376211E+03  0.25500000000E-02 0.  1.
    5000001    1    1    2    0    0 -0.23738176224E+02 -0.12347043306E+03 -0.24578267358E+02  0.14947086698E+03  0.77000000000E+02 0.  0.
   -5000001    1    1    2    0    0  0.23738176224E+02  0.12347043306E+03  0.54115557651E+02  0.15705394752E+03  0.77000000000E+02 0.  0.
<mgrwt>
<rscale>  0 0.30509836E+03</rscale>
<asrwt>0</asrwt>
<pdfrwt beam="1">  1        2 0.21306733E-01 0.30509836E+03</pdfrwt>
<pdfrwt beam="2">  1       -2 0.25850931E-01 0.30509836E+03</pdfrwt>
<totfact> 0.34535278E+03</totfact>
</mgrwt>
</event>
<event>
 4    1  0.1195463E-003  0.2282351E+03  0.7818608E-02  0.1127888E+00
          2   -1    0    0  501    0  0.00000000000E+00  0.00000000000E+00  0.52502345430E+02  0.52502345491E+02  0.25500000000E-02 0.  1.
         -2   -1    0    0    0  501 -0.00000000000E+00 -0.00000000000E+00 -0.24804255044E+03  0.24804255045E+03  0.25500000000E-02 0. -1.
    5000001    1    1    2    0    0 -0.32368545642E+02 -0.46801351650E+02 -0.17953747071E+03  0.20347184732E+03  0.77000000000E+02 0.  0.
   -5000001    1    1    2    0    0  0.32368545642E+02  0.46801351650E+02 -0.16002734296E+02  0.97073048619E+02  0.77000000000E+02 0.  0.
<mgrwt>
<rscale>  0 0.22823510E+03</rscale>
<asrwt>0</asrwt>
<pdfrwt beam="1">  1        2 0.80772841E-02 0.22823510E+03</pdfrwt>
<pdfrwt beam="2">  1       -2 0.38160392E-01 0.22823510E+03</pdfrwt>
<totfact> 0.53850944E+03</totfact>
</mgrwt>
</event>
<event>
 4    1  0.1195463E-003  0.2069091E+03  0.7818608E-02  0.1144037E+00
          2   -1    0    0  501    0  0.00000000000E+00  0.00000000000E+00  0.66797043799E+02  0.66797043848E+02  0.25500000000E-02 0.  1.
         -2   -1    0    0    0  501 -0.00000000000E+00 -0.00000000000E+00 -0.16022928652E+03  0.16022928654E+03  0.25500000000E-02 0. -1.
    5000001    1    1    2    0    0  0.59954684686E+02  0.11312489723E+02 -0.11139783392E+02  0.98871792810E+02  0.77000000000E+02 0.  0.
   -5000001    1    1    2    0    0 -0.59954684686E+02 -0.11312489723E+02 -0.82292459330E+02  0.12815453758E+03  0.77000000000E+02 0.  0.
<mgrwt>
<rscale>  0 0.20690909E+03</rscale>
<asrwt>0</asrwt>
<pdfrwt beam="1">  1        2 0.10276468E-01 0.20690909E+03</pdfrwt>
<pdfrwt beam="2">  1       -2 0.24650659E-01 0.20690909E+03</pdfrwt>
<totfact> 0.87739293E+03</totfact>
</mgrwt>
</event>
<event>
 4    1  0.1195463E-003  0.1929817E+03  0.7818608E-02  0.1155799E+00
          2   -1    0    0  501    0  0.00000000000E+00  0.00000000000E+00  0.74999516390E+02  0.74999516433E+02  0.25500000000E-02 0.  1.
         -2   -1    0    0    0  501 -0.00000000000E+00 -0.00000000000E+00 -0.12414055865E+03  0.12414055868E+03  0.25500000000E-02 0. -1.
    5000001    1    1    2    0    0  0.33616649283E+02  0.37703654425E+02 -0.54296696962E+02  0.10690545340E+03  0.77000000000E+02 0.  0.
   -5000001    1    1    2    0    0 -0.33616649283E+02 -0.37703654425E+02  0.51556547025E+01  0.92234621707E+02  0.77000000000E+02 0.  0.
<mgrwt>
<rscale>  0 0.19298168E+03</rscale>
<asrwt>0</asrwt>
<pdfrwt beam="1">  1        2 0.11538387E-01 0.19298168E+03</pdfrwt>
<pdfrwt beam="2">  1       -2 0.19098548E-01 0.19298168E+03</pdfrwt>
<totfact> 0.11761323E+04</totfact>
</mgrwt>
</event>
<event>
 4    1  0.1195463E-003  0.2581728E+03  0.7818608E-02  0.1108246E+00
         -2   -1    0    0    0  501 -0.00000000000E+00  0.00000000000E+00  0.18953098737E+02  0.18953098909E+02  0.25500000000E-02 0. -1.
          2   -1    0    0  501    0  0.00000000000E+00 -0.00000000000E+00 -0.87918630662E+03  0.87918630663E+03  0.25500000000E-02 0.  1.
    5000001    1    1    2    0    0  0.26668714819E+02  0.99231840140E+02 -0.47628508090E+03  0.49328962764E+03  0.77000000000E+02 0.  0.
   -5000001    1    1    2    0    0 -0.26668714819E+02 -0.99231840140E+02 -0.38394812698E+03  0.40484977790E+03  0.77000000000E+02 0.  0.
<mgrwt>
<rscale>  0 0.25817285E+03</rscale>
<asrwt>0</asrwt>
<pdfrwt beam="1">  1        2 0.13525940E+00 0.25817285E+03</pdfrwt>
<pdfrwt beam="2">  1       -2 0.29158620E-02 0.25817285E+03</pdfrwt>
<totfact> 0.13767561E+04</totfact>
</mgrwt>
</event>
<event>
 4    1  0.1195463E-003  0.3271077E+03  0.7818608E-02  0.1072424E+00
          2   -1    0    0  501    0  0.00000000000E+00  0.00000000000E+00  0.56692930046E+03  0.56692930047E+03  0.25500000000E-02 0.  1.
         -2   -1    0    0    0  501 -0.00000000000E+00 -0.00000000000E+00 -0.47183781131E+02  0.47183781200E+02  0.25500000000E-02 0. -1.
    5000001    1    1    2    0    0 -0.12772859257E+03  0.66254731609E+02  0.28014395232E+03  0.32421276478E+03  0.77000000000E+02 0.  0.
   -5000001    1    1    2    0    0  0.12772859257E+03 -0.66254731609E+02  0.23960156701E+03  0.28990031689E+03  0.77000000000E+02 0.  0.
<mgrwt>
<rscale>  0 0.32710774E+03</rscale>
<asrwt>0</asrwt>
<pdfrwt beam="1">  1        2 0.87219887E-01 0.32710774E+03</pdfrwt>
<pdfrwt beam="2">  1       -2 0.72590437E-02 0.32710774E+03</pdfrwt>
<totfact> 0.59485612E+03</totfact>
</mgrwt>
</event>
<event>
 4    1  0.1195463E-003  0.3979019E+03  0.7818608E-02  0.1044509E+00
          2   -1    0    0  501    0  0.00000000000E+00  0.00000000000E+00  0.21698718915E+04  0.21698718915E+04  0.25500000000E-02 0.  1.
         -2   -1    0    0    0  501 -0.00000000000E+00 -0.00000000000E+00 -0.18241394498E+02  0.18241394677E+02  0.25500000000E-02 0. -1.
    5000001    1    1    2    0    0  0.98178666598E+02 -0.12634280016E+03  0.58239505493E+03  0.60886332927E+03  0.77000000000E+02 0.  0.
   -5000001    1    1    2    0    0 -0.98178666598E+02  0.12634280016E+03  0.15692354421E+04  0.15792499569E+04  0.77000000000E+02 0.  0.
<mgrwt>
<rscale>  0 0.39790194E+03</rscale>
<asrwt>0</asrwt>
<pdfrwt beam="1">  1        2 0.33382633E+00 0.39790194E+03</pdfrwt>
<pdfrwt beam="2">  1       -2 0.28063693E-02 0.39790194E+03</pdfrwt>
<totfact> 0.28083607E+03</totfact>
</mgrwt>
</event>
<event>
 4    1  0.1195463E-003  0.2373631E+03  0.7818608E-02  0.1121562E+00
         -2   -1    0    0    0  501 -0.00000000000E+00  0.00000000000E+00  0.46685108243E+02  0.46685108312E+02  0.25500000000E-02 0. -1.
          2   -1    0    0  501    0  0.00000000000E+00 -0.00000000000E+00 -0.30170894615E+03  0.30170894616E+03  0.25500000000E-02 0.  1.
    5000001    1    1    2    0    0 -0.44192964595E+02 -0.73138670679E+02 -0.17040570870E+03  0.20559520623E+03  0.77000000000E+02 0.  0.
   -5000001    1    1    2    0    0  0.44192964595E+02  0.73138670679E+02 -0.84618129209E+02  0.14279884824E+03  0.77000000000E+02 0.  0.
<mgrwt>
<rscale>  0 0.23736314E+03</rscale>
<asrwt>0</asrwt>
<pdfrwt beam="1">  1        2 0.46416760E-01 0.23736314E+03</pdfrwt>
<pdfrwt beam="2">  1       -2 0.71823245E-02 0.23736314E+03</pdfrwt>
<totfact> 0.11949785E+04</totfact>
</mgrwt>
</event>
<event>
 4    1  0.1195463E-003  0.3103475E+03  0.7818608E-02  0.1080179E+00
          2   -1    0    0  501    0  0.00000000000E+00  0.00000000000E+00  0.96378369303E+02  0.96378369337E+02  0.25500000000E-02 0.  1.
         -2   -1    0    0    0  501 -0.00000000000E+00 -0.00000000000E+00 -0.24983710654E+03  0.24983710656E+03  0.25500000000E-02 0. -1.
    5000001    1    1    2    0    0 -0.11000146786E+02  0.13419786499E+03 -0.81696206170E+02  0.17530927044E+03  0.77000000000E+02 0.  0.
   -5000001    1    1    2    0    0  0.11000146786E+02 -0.13419786499E+03 -0.71762531070E+02  0.17090620546E+03  0.77000000000E+02 0.  0.
<mgrwt>
<rscale>  0 0.31034750E+03</rscale>
<asrwt>0</asrwt>
<pdfrwt beam="1">  1        2 0.14827441E-01 0.31034750E+03</pdfrwt>
<pdfrwt beam="2">  1       -2 0.38436478E-01 0.31034750E+03</pdfrwt>
<totfact> 0.25440339E+03</totfact>
</mgrwt>
</event>
<event>
 4    1  0.1195463E-003  0.3508715E+03  0.7818608E-02  0.1062258E+00
         -2   -1    0    0    0  501 -0.00000000000E+00  0.00000000000E+00  0.12819137342E+02  0.12819137596E+02  0.25500000000E-02 0. -1.
          2   -1    0    0  501    0  0.00000000000E+00 -0.00000000000E+00 -0.24009184826E+04  0.24009184826E+04  0.25500000000E-02 0.  1.
    5000001    1    1    2    0    0 -0.15417637203E+02  0.11882889414E+03 -0.18986519995E+04  0.19039869813E+04  0.77000000000E+02 0.  0.
   -5000001    1    1    2    0    0  0.15417637203E+02 -0.11882889414E+03 -0.48944734570E+03  0.50975063887E+03  0.77000000000E+02 0.  0.
<mgrwt>
<rscale>  0 0.35087151E+03</rscale>
<asrwt>0</asrwt>
<pdfrwt beam="1">  1        2 0.36937172E+00 0.35087151E+03</pdfrwt>
<pdfrwt beam="2">  1       -2 0.19721769E-02 0.35087151E+03</pdfrwt>
<totfact> 0.35706129E+03</totfact>
</mgrwt>
</event>
<event>
 4    1  0.1195463E-003  0.1719633E+03  0.7818608E-02  0.1175816E+00
          2   -1    0    0  501    0  0.00000000000E+00  0.00000000000E+00  0.48210648607E+03  0.48210648607E+03  0.25500000000E-02 0.  1.
         -2   -1    0    0    0  501 -0.00000000000E+00 -0.00000000000E+00 -0.15334471698E+02  0.15334471910E+02  0.25500000000E-02 0. -1.
    5000001    1    1    2    0    0  0.20933171050E+02 -0.31342767657E+02  0.25241681524E+03  0.26657797236E+03  0.77000000000E+02 0.  0.
   -5000001    1    1    2    0    0 -0.20933171050E+02  0.31342767657E+02  0.21435519913E+03  0.23086298562E+03  0.77000000000E+02 0.  0.
<mgrwt>
<rscale>  0 0.17196335E+03</rscale>
<asrwt>0</asrwt>
<pdfrwt beam="1">  1        2 0.74170243E-01 0.17196335E+03</pdfrwt>
<pdfrwt beam="2">  1       -2 0.23591490E-02 0.17196335E+03</pdfrwt>
<totfact> 0.37428884E+04</totfact>
</mgrwt>
</event>
<event>
 4    1  0.1195463E-003  0.4461030E+03  0.7818608E-02  0.1028891E+00
         -2   -1    0    0    0  501 -0.00000000000E+00  0.00000000000E+00  0.31752674651E+02  0.31752674753E+02  0.25500000000E-02 0. -1.
          2   -1    0    0  501    0  0.00000000000E+00 -0.00000000000E+00 -0.15668594905E+04  0.15668594906E+04  0.25500000000E-02 0.  1.
    5000001    1    1    2    0    0 -0.16275772453E+03  0.11932416083E+03 -0.96690216185E+03  0.99073564730E+03  0.77000000000E+02 0.  0.
   -5000001    1    1    2    0    0  0.16275772453E+03 -0.11932416083E+03 -0.56820465405E+03  0.60787651800E+03  0.77000000000E+02 0.  0.
<mgrwt>
<rscale>  0 0.44610304E+03</rscale>
<asrwt>0</asrwt>
<pdfrwt beam="1">  1        2 0.24105525E+00 0.44610304E+03</pdfrwt>
<pdfrwt beam="2">  1       -2 0.48850281E-02 0.44610304E+03</pdfrwt>
<totfact> 0.25419128E+03</totfact>
</mgrwt>
</event>
<event>
 4    1  0.1195463E-003  0.1852053E+03  0.7818608E-02  0.1162858E+00
         -2   -1    0    0    0  501 -0.00000000000E+00  0.00000000000E+00  0.29433560247E+02  0.29433560357E+02  0.25500000000E-02 0. -1.
          2   -1    0    0  501    0  0.00000000000E+00 -0.00000000000E+00 -0.29134260547E+03  0.29134260548E+03  0.25500000000E-02 0.  1.
    5000001    1    1    2    0    0 -0.61388359362E+01 -0.50447098406E+02 -0.11713588207E+03  0.14910536514E+03  0.77000000000E+02 0.  0.
   -5000001    1    1    2    0    0  0.61388359362E+01  0.50447098406E+02 -0.14477316315E+03  0.17167080070E+03  0.77000000000E+02 0.  0.
<mgrwt>
<rscale>  0 0.18520529E+03</rscale>
<asrwt>0</asrwt>
<pdfrwt beam="1">  1        2 0.44821937E-01 0.18520529E+03</pdfrwt>
<pdfrwt beam="2">  1       -2 0.45282402E-02 0.18520529E+03</pdfrwt>
<totfact> 0.24637838E+04</totfact>
</mgrwt>
</event>
<event>
 4    1  0.1195463E-003  0.3787236E+03  0.7818608E-02  0.1051407E+00
          2   -1    0    0  501    0  0.00000000000E+00  0.00000000000E+00  0.33540119126E+03  0.33540119127E+03  0.25500000000E-02 0.  1.
         -2   -1    0    0    0  501 -0.00000000000E+00 -0.00000000000E+00 -0.10691042307E+03  0.10691042310E+03  0.25500000000E-02 0. -1.
    5000001    1    1    2    0    0  0.12441030267E+03  0.11974836262E+03  0.10192474814E+03  0.21479117310E+03  0.77000000000E+02 0.  0.
   -5000001    1    1    2    0    0 -0.12441030267E+03 -0.11974836262E+03  0.12656602005E+03  0.22752044126E+03  0.77000000000E+02 0.  0.
<mgrwt>
<rscale>  0 0.37872356E+03</rscale>
<asrwt>0</asrwt>
<pdfrwt beam="1">  1        2 0.51600182E-01 0.37872356E+03</pdfrwt>
<pdfrwt beam="2">  1       -2 0.16447758E-01 0.37872356E+03</pdfrwt>
<totfact> 0.28555965E+03</totfact>
</mgrwt>
</event>
<event>
 4    1  0.1195463E-003  0.3569526E+03  0.7818608E-02  0.1059797E+00
          2   -1    0    0  501    0  0.00000000000E+00  0.00000000000E+00  0.12963787571E+03  0.12963787573E+03  0.25500000000E-02 0.  1.
         -2   -1    0    0    0  501 -0.00000000000E+00 -0.00000000000E+00 -0.24571359306E+03  0.24571359307E+03  0.25500000000E-02 0. -1.
    5000001    1    1    2    0    0  0.14971105715E+03 -0.57091568619E+02 -0.41347084173E+02  0.18251418906E+03  0.77000000000E+02 0.  0.
   -5000001    1    1    2    0    0 -0.14971105715E+03  0.57091568619E+02 -0.74728633176E+02  0.19283727974E+03  0.77000000000E+02 0.  0.
<mgrwt>
<rscale>  0 0.35695259E+03</rscale>
<asrwt>0</asrwt>
<pdfrwt beam="1">  1        2 0.19944289E-01 0.35695259E+03</pdfrwt>
<pdfrwt beam="2">  1       -2 0.37802091E-01 0.35695259E+03</pdfrwt>
<totfact> 0.18593656E+03</totfact>
</mgrwt>
</event>
<event>
 4    1  0.1195463E-003  0.2074542E+03  0.7818608E-02  0.1143598E+00
         -2   -1    0    0    0  501 -0.00000000000E+00  0.00000000000E+00  0.12276541874E+02  0.12276542139E+02  0.25500000000E-02 0. -1.
          2   -1    0    0  501    0  0.00000000000E+00 -0.00000000000E+00 -0.87641257820E+03  0.87641257820E+03  0.25500000000E-02 0.  1.
    5000001    1    1    2    0    0  0.62041900409E+02 -0.31210747024E+02 -0.42072796135E+03  0.43331781130E+03  0.77000000000E+02 0.  0.
   -5000001    1    1    2    0    0 -0.62041900409E+02  0.31210747024E+02 -0.44340807498E+03  0.45537130903E+03  0.77000000000E+02 0.  0.
<mgrwt>
<rscale>  0 0.20745424E+03</rscale>
<asrwt>0</asrwt>
<pdfrwt beam="1">  1        2 0.13483266E+00 0.20745424E+03</pdfrwt>
<pdfrwt beam="2">  1       -2 0.18886995E-02 0.20745424E+03</pdfrwt>
<totfact> 0.25911885E+04</totfact>
</mgrwt>
</event>
<event>
 4    1  0.1195463E-003  0.2832712E+03  0.7818608E-02  0.1093916E+00
         -2   -1    0    0    0  501 -0.00000000000E+00  0.00000000000E+00  0.27554987573E+02  0.27554987691E+02  0.25500000000E-02 0. -1.
          2   -1    0    0  501    0  0.00000000000E+00 -0.00000000000E+00 -0.72802205323E+03  0.72802205323E+03  0.25500000000E-02 0.  1.
    5000001    1    1    2    0    0  0.84055255283E+01 -0.66992739766E+02 -0.89258193714E+02  0.13584809600E+03  0.77000000000E+02 0.  0.
   -5000001    1    1    2    0    0 -0.84055255283E+01  0.66992739766E+02 -0.61120887194E+03  0.61972894493E+03  0.77000000000E+02 0.  0.
<mgrwt>
<rscale>  0 0.28327117E+03</rscale>
<asrwt>0</asrwt>
<pdfrwt beam="1">  1        2 0.11200338E+00 0.28327117E+03</pdfrwt>
<pdfrwt beam="2">  1       -2 0.42392294E-02 0.28327117E+03</pdfrwt>
<totfact> 0.10034061E+04</totfact>
</mgrwt>
</event>
<event>
 4    1  0.1195463E-003  0.2487823E+03  0.7818608E-02  0.1114077E+00
          2   -1    0    0  501    0  0.00000000000E+00  0.00000000000E+00  0.12626338993E+04  0.12626338993E+04  0.25500000000E-02 0.  1.
         -2   -1    0    0    0  501 -0.00000000000E+00 -0.00000000000E+00 -0.12254665314E+02  0.12254665579E+02  0.25500000000E-02 0. -1.
    5000001    1    1    2    0    0  0.75430125873E+02 -0.59369424232E+02  0.53213717126E+03  0.54618074065E+03  0.77000000000E+02 0.  0.
   -5000001    1    1    2    0    0 -0.75430125873E+02  0.59369424232E+02  0.71824206271E+03  0.72870782421E+03  0.77000000000E+02 0.  0.
<mgrwt>
<rscale>  0 0.24878228E+03</rscale>
<asrwt>0</asrwt>
<pdfrwt beam="1">  1        2 0.19425137E+00 0.24878228E+03</pdfrwt>
<pdfrwt beam="2">  1       -2 0.18853332E-02 0.24878228E+03</pdfrwt>
<totfact> 0.15448653E+04</totfact>
</mgrwt>
</event>
<event>
 4    1  0.1195463E-003  0.2444882E+03  0.7818608E-02  0.1116838E+00
         -2   -1    0    0    0  501 -0.00000000000E+00  0.00000000000E+00  0.36079215901E+03  0.36079215902E+03  0.25500000000E-02 0. -1.
          2   -1    0    0  501    0  0.00000000000E+00 -0.00000000000E+00 -0.41418931973E+02  0.41418932051E+02  0.25500000000E-02 0.  1.
    5000001    1    1    2    0    0 -0.74335290055E+02 -0.24449373873E+02  0.71230263985E+02  0.13086732876E+03  0.77000000000E+02 0.  0.
   -5000001    1    1    2    0    0  0.74335290055E+02  0.24449373873E+02  0.24814296305E+03  0.27134376230E+03  0.77000000000E+02 0.  0.
<mgrwt>
<rscale>  0 0.24448825E+03</rscale>
<asrwt>0</asrwt>
<pdfrwt beam="1">  1        2 0.63721431E-02 0.24448825E+03</pdfrwt>
<pdfrwt beam="2">  1       -2 0.55506488E-01 0.24448825E+03</pdfrwt>
<totfact> 0.35117249E+03</totfact>
</mgrwt>
</event>
<event>
 4    1  0.1195463E-003  0.3779830E+03  0.7818608E-02  0.1051682E+00
          2   -1    0    0  501    0  0.00000000000E+00  0.00000000000E+00  0.85717238957E+03  0.85717238958E+03  0.25500000000E-02 0.  1.
         -2   -1    0    0    0  501 -0.00000000000E+00 -0.00000000000E+00 -0.41669311507E+02  0.41669311585E+02  0.25500000000E-02 0. -1.
    5000001    1    1    2    0    0 -0.18931627072E+02 -0.16819760401E+03  0.32746319357E+03  0.37657666370E+03  0.77000000000E+02 0.  0.
   -5000001    1    1    2    0    0  0.18931627072E+02  0.16819760401E+03  0.48803988449E+03  0.52226503746E+03  0.77000000000E+02 0.  0.
<mgrwt>
<rscale>  0 0.37798298E+03</rscale>
<asrwt>0</asrwt>
<pdfrwt beam="1">  1        2 0.13187267E+00 0.37798298E+03</pdfrwt>
<pdfrwt beam="2">  1       -2 0.64106638E-02 0.37798298E+03</pdfrwt>
<totfact> 0.43529026E+03</totfact>
</mgrwt>
</event>
<event>
 4    1  0.1195463E-003  0.2971647E+03  0.7818608E-02  0.1086667E+00
          2   -1    0    0  501    0  0.00000000000E+00  0.00000000000E+00  0.74646095046E+03  0.74646095047E+03  0.25500000000E-02 0.  1.
         -2   -1    0    0    0  501 -0.00000000000E+00 -0.00000000000E+00 -0.29575181791E+02  0.29575181901E+02  0.25500000000E-02 0. -1.
    5000001    1    1    2    0    0  0.96472655436E+02  0.53161296600E+01  0.14289814295E+03  0.18890239209E+03  0.77000000000E+02 0.  0.
   -5000001    1    1    2    0    0 -0.96472655436E+02 -0.53161296600E+01  0.57398762572E+03  0.58713374027E+03  0.77000000000E+02 0.  0.
<mgrwt>
<rscale>  0 0.29716472E+03</rscale>
<asrwt>0</asrwt>
<pdfrwt beam="1">  1        2 0.11484014E+00 0.29716472E+03</pdfrwt>
<pdfrwt beam="2">  1       -2 0.45500283E-02 0.29716472E+03</pdfrwt>
<totfact> 0.87536505E+03</totfact>
</mgrwt>
</event>
<event>
 4    1  0.1195463E-003  0.3185147E+03  0.7818608E-02  0.1076335E+00
         -2   -1    0    0    0  501 -0.00000000000E+00  0.00000000000E+00  0.29639580407E+02  0.29639580517E+02  0.25500000000E-02 0. -1.
          2   -1    0    0  501    0  0.00000000000E+00 -0.00000000000E+00 -0.85571064889E+03  0.85571064889E+03  0.25500000000E-02 0.  1.
    5000001    1    1    2    0    0 -0.40004333357E+02  0.11728544394E+03 -0.23553800078E+03  0.27706203612E+03  0.77000000000E+02 0.  0.
   -5000001    1    1    2    0    0  0.40004333357E+02 -0.11728544394E+03 -0.59053306770E+03  0.60828819329E+03  0.77000000000E+02 0.  0.
<mgrwt>
<rscale>  0 0.31851471E+03</rscale>
<asrwt>0</asrwt>
<pdfrwt beam="1">  1        2 0.13164777E+00 0.31851471E+03</pdfrwt>
<pdfrwt beam="2">  1       -2 0.45599361E-02 0.31851471E+03</pdfrwt>
<totfact> 0.73394711E+03</totfact>
</mgrwt>
</event>
<event>
 4    1  0.1195463E-003  0.1798465E+03  0.7818608E-02  0.1167952E+00
          2   -1    0    0  501    0  0.00000000000E+00  0.00000000000E+00  0.19956331329E+04  0.19956331329E+04  0.25500000000E-02 0.  1.
         -2   -1    0    0    0  501 -0.00000000000E+00 -0.00000000000E+00 -0.40519406154E+01  0.40519414178E+01  0.25500000000E-02 0. -1.
    5000001    1    1    2    0    0 -0.15902848852E+02 -0.40707906360E+02  0.11705912639E+04  0.11739348114E+04  0.77000000000E+02 0.  0.
   -5000001    1    1    2    0    0  0.15902848852E+02  0.40707906360E+02  0.82098992836E+03  0.82575026292E+03  0.77000000000E+02 0.  0.
<mgrwt>
<rscale>  0 0.17984647E+03</rscale>
<asrwt>0</asrwt>
<pdfrwt beam="1">  1        2 0.30702155E+00 0.17984647E+03</pdfrwt>
<pdfrwt beam="2">  1       -2 0.62337338E-03 0.17984647E+03</pdfrwt>
<totfact> 0.30954426E+04</totfact>
</mgrwt>
</event>
<event>
 4    1  0.1195463E-003  0.2191031E+03  0.7818608E-02  0.1134553E+00
         -2   -1    0    0    0  501 -0.00000000000E+00  0.00000000000E+00  0.58893667301E+03  0.58893667302E+03  0.25500000000E-02 0. -1.
          2   -1    0    0  501    0  0.00000000000E+00 -0.00000000000E+00 -0.20378330783E+02  0.20378330942E+02  0.25500000000E-02 0.  1.
    5000001    1    1    2    0    0  0.69746301558E+02 -0.17022987344E+02  0.20001050805E+03  0.22602551185E+03  0.77000000000E+02 0.  0.
   -5000001    1    1    2    0    0 -0.69746301558E+02  0.17022987344E+02  0.36854783418E+03  0.38328949211E+03  0.77000000000E+02 0.  0.
<mgrwt>
<rscale>  0 0.21910314E+03</rscale>
<asrwt>0</asrwt>
<pdfrwt beam="1">  1        2 0.31351275E-02 0.21910314E+03</pdfrwt>
<pdfrwt beam="2">  1       -2 0.90605650E-01 0.21910314E+03</pdfrwt>
<totfact> 0.31303919E+03</totfact>
</mgrwt>
</event>
<event>
 4    1  0.1195463E-003  0.1678336E+03  0.7818608E-02  0.1180126E+00
         -2   -1    0    0    0  501 -0.00000000000E+00  0.00000000000E+00  0.46837960456E+01  0.46837967397E+01  0.25500000000E-02 0. -1.
          2   -1    0    0  501    0  0.00000000000E+00 -0.00000000000E+00 -0.15034869871E+04  0.15034869871E+04  0.25500000000E-02 0.  1.
    5000001    1    1    2    0    0  0.43808541225E+00 -0.33218923214E+02 -0.72194149370E+03  0.72679585105E+03  0.77000000000E+02 0.  0.
   -5000001    1    1    2    0    0 -0.43808541225E+00  0.33218923214E+02 -0.77686169734E+03  0.78137493278E+03  0.77000000000E+02 0.  0.
<mgrwt>
<rscale>  0 0.16783357E+03</rscale>
<asrwt>0</asrwt>
<pdfrwt beam="1">  1        2 0.23130531E+00 0.16783357E+03</pdfrwt>
<pdfrwt beam="2">  1       -2 0.72058526E-03 0.16783357E+03</pdfrwt>
<totfact> 0.45078260E+04</totfact>
</mgrwt>
</event>
<event>
 4    1  0.1195463E-003  0.3496545E+03  0.7818608E-02  0.1062757E+00
         -2   -1    0    0    0  501 -0.00000000000E+00  0.00000000000E+00  0.59844583550E+03  0.59844583551E+03  0.25500000000E-02 0. -1.
          2   -1    0    0  501    0  0.00000000000E+00 -0.00000000000E+00 -0.51073230356E+02  0.51073230420E+02  0.25500000000E-02 0.  1.
    5000001    1    1    2    0    0  0.11767033656E+03 -0.99402958576E+02  0.32967093773E+03  0.37193975785E+03  0.77000000000E+02 0.  0.
   -5000001    1    1    2    0    0 -0.11767033656E+03  0.99402958576E+02  0.21770166741E+03  0.27757930808E+03  0.77000000000E+02 0.  0.
<mgrwt>
<rscale>  0 0.34965447E+03</rscale>
<asrwt>0</asrwt>
<pdfrwt beam="1">  1        2 0.78574199E-02 0.34965447E+03</pdfrwt>
<pdfrwt beam="2">  1       -2 0.92068592E-01 0.34965447E+03</pdfrwt>
<totfact> 0.90819159E+02</totfact>
</mgrwt>
</event>
<event>
 4    1  0.1195463E-003  0.1834786E+03  0.7818608E-02  0.1164478E+00
         -2   -1    0    0    0  501 -0.00000000000E+00  0.00000000000E+00  0.59494076456E+03  0.59494076457E+03  0.25500000000E-02 0. -1.
          2   -1    0    0  501    0  0.00000000000E+00 -0.00000000000E+00 -0.14146106939E+02  0.14146107169E+02  0.25500000000E-02 0.  1.
    5000001    1    1    2    0    0  0.11782765120E+02  0.43976760858E+02  0.22282717811E+03  0.24011193297E+03  0.77000000000E+02 0.  0.
   -5000001    1    1    2    0    0 -0.11782765120E+02 -0.43976760858E+02  0.35796747952E+03  0.36897493877E+03  0.77000000000E+02 0.  0.
<mgrwt>
<rscale>  0 0.18347856E+03</rscale>
<asrwt>0</asrwt>
<pdfrwt beam="1">  1        2 0.21763242E-02 0.18347856E+03</pdfrwt>
<pdfrwt beam="2">  1       -2 0.91529346E-01 0.18347856E+03</pdfrwt>
<totfact> 0.49733469E+03</totfact>
</mgrwt>
</event>
<event>
 4    1  0.1195463E-003  0.1846325E+03  0.7818608E-02  0.1163393E+00
         -2   -1    0    0    0  501 -0.00000000000E+00  0.00000000000E+00  0.10494099209E+02  0.10494099519E+02  0.25500000000E-02 0. -1.
          2   -1    0    0  501    0  0.00000000000E+00 -0.00000000000E+00 -0.81210326669E+03  0.81210326669E+03  0.25500000000E-02 0.  1.
    5000001    1    1    2    0    0  0.13414304504E+02 -0.31296822399E+02 -0.23209796019E+03  0.24689653254E+03  0.77000000000E+02 0.  0.
   -5000001    1    1    2    0    0 -0.13414304504E+02  0.31296822399E+02 -0.56951120729E+03  0.57570083367E+03  0.77000000000E+02 0.  0.
<mgrwt>
<rscale>  0 0.18463253E+03</rscale>
<asrwt>0</asrwt>
<pdfrwt beam="1">  1        2 0.12493891E+00 0.18463253E+03</pdfrwt>
<pdfrwt beam="2">  1       -2 0.16144775E-02 0.18463253E+03</pdfrwt>
<totfact> 0.35625702E+04</totfact>
</mgrwt>
</event>
<event>
 4    1  0.1195463E-003  0.5802805E+03  0.7818608E-02  0.9947184E-01
         -2   -1    0    0    0  501 -0.00000000000E+00  0.00000000000E+00  0.15047778715E+03  0.15047778717E+03  0.25500000000E-02 0. -1.
          2   -1    0    0  501    0  0.00000000000E+00 -0.00000000000E+00 -0.55942721716E+03  0.55942721716E+03  0.25500000000E-02 0.  1.
    5000001    1    1    2    0    0  0.24176917384E+03 -0.52509992226E+02 -0.44764785034E+02  0.26294965047E+03  0.77000000000E+02 0.  0.
   -5000001    1    1    2    0    0 -0.24176917384E+03  0.52509992226E+02 -0.36418464498E+03  0.44695535386E+03  0.77000000000E+02 0.  0.
<mgrwt>
<rscale>  0 0.58028052E+03</rscale>
<asrwt>0</asrwt>
<pdfrwt beam="1">  1        2 0.86065725E-01 0.58028052E+03</pdfrwt>
<pdfrwt beam="2">  1       -2 0.23150429E-01 0.58028052E+03</pdfrwt>
<totfact> 0.89177662E+02</totfact>
</mgrwt>
</event>
<event>
 4    1  0.1195463E-003  0.2246462E+03  0.7818608E-02  0.1130466E+00
          2   -1    0    0  501    0  0.00000000000E+00  0.00000000000E+00  0.80772854198E+03  0.80772854198E+03  0.25500000000E-02 0.  1.
         -2   -1    0    0    0  501 -0.00000000000E+00 -0.00000000000E+00 -0.15619695033E+02  0.15619695241E+02  0.25500000000E-02 0. -1.
    5000001    1    1    2    0    0  0.71695309195E+02  0.26004338658E+02  0.28788580637E+03  0.30760962355E+03  0.77000000000E+02 0.  0.
   -5000001    1    1    2    0    0 -0.71695309195E+02 -0.26004338658E+02  0.50422304057E+03  0.51573861367E+03  0.77000000000E+02 0.  0.
<mgrwt>
<rscale>  0 0.22464615E+03</rscale>
<asrwt>0</asrwt>
<pdfrwt beam="1">  1        2 0.12426597E+00 0.22464615E+03</pdfrwt>
<pdfrwt beam="2">  1       -2 0.24030292E-02 0.22464615E+03</pdfrwt>
<totfact> 0.20317827E+04</totfact>
</mgrwt>
</event>
<event>
 4    1  0.1195463E-003  0.1671777E+03  0.7818608E-02  0.1180823E+00
          2   -1    0    0  501    0  0.00000000000E+00  0.00000000000E+00  0.13640774502E+03  0.13640774504E+03  0.25500000000E-02 0.  1.
         -2   -1    0    0    0  501 -0.00000000000E+00 -0.00000000000E+00 -0.51222142603E+02  0.51222142666E+02  0.25500000000E-02 0. -1.
    5000001    1    1    2    0    0  0.27671140149E+02  0.33280280613E+01  0.23767971808E+02  0.85268307429E+02  0.77000000000E+02 0.  0.
   -5000001    1    1    2    0    0 -0.27671140149E+02 -0.33280280613E+01  0.61417630610E+02  0.10236158028E+03  0.77000000000E+02 0.  0.
<mgrwt>
<rscale>  0 0.16717771E+03</rscale>
<asrwt>0</asrwt>
<pdfrwt beam="1">  1        2 0.20985806E-01 0.16717771E+03</pdfrwt>
<pdfrwt beam="2">  1       -2 0.78803298E-02 0.16717771E+03</pdfrwt>
<totfact> 0.24021522E+04</totfact>
</mgrwt>
</event>
<event>
 4    1  0.1195463E-003  0.2195881E+03  0.7818608E-02  0.1134191E+00
          2   -1    0    0  501    0  0.00000000000E+00  0.00000000000E+00  0.35912818125E+04  0.35912818125E+04  0.25500000000E-02 0.  1.
         -2   -1    0    0    0  501 -0.00000000000E+00 -0.00000000000E+00 -0.33566653737E+01  0.33566663423E+01  0.25500000000E-02 0. -1.
    5000001    1    1    2    0    0 -0.74403981238E+02  0.22626015427E+02  0.19383931486E+04  0.19414800766E+04  0.77000000000E+02 0.  0.
   -5000001    1    1    2    0    0  0.74403981238E+02 -0.22626015427E+02  0.16495319985E+04  0.16531584023E+04  0.77000000000E+02 0.  0.
<mgrwt>
<rscale>  0 0.21958810E+03</rscale>
<asrwt>0</asrwt>
<pdfrwt beam="1">  1        2 0.55250349E+00 0.21958810E+03</pdfrwt>
<pdfrwt beam="2">  1       -2 0.51641144E-03 0.21958810E+03</pdfrwt>
<totfact> 0.49109215E+03</totfact>
</mgrwt>
</event>
<event>
 4    1  0.1195463E-003  0.3873175E+03  0.7818608E-02  0.1048262E+00
          2   -1    0    0  501    0  0.00000000000E+00  0.00000000000E+00  0.14686744770E+04  0.14686744770E+04  0.25500000000E-02 0.  1.
         -2   -1    0    0    0  501 -0.00000000000E+00 -0.00000000000E+00 -0.25535755564E+02  0.25535755692E+02  0.25500000000E-02 0. -1.
    5000001    1    1    2    0    0  0.94057940400E+02  0.15045763017E+03  0.75823265950E+03  0.78251527817E+03  0.77000000000E+02 0.  0.
   -5000001    1    1    2    0    0 -0.94057940400E+02 -0.15045763017E+03  0.68490606194E+03  0.71169495454E+03  0.77000000000E+02 0.  0.
<mgrwt>
<rscale>  0 0.38731751E+03</rscale>
<asrwt>0</asrwt>
<pdfrwt beam="1">  1        2 0.22594995E+00 0.38731751E+03</pdfrwt>
<pdfrwt beam="2">  1       -2 0.39285772E-02 0.38731751E+03</pdfrwt>
<totfact> 0.40138261E+03</totfact>
</mgrwt>
</event>
<event>
 4    1  0.1195463E-003  0.1811603E+03  0.7818608E-02  0.1166685E+00
          2   -1    0    0  501    0  0.00000000000E+00  0.00000000000E+00  0.85603366215E+02  0.85603366253E+02  0.25500000000E-02 0.  1.
         -2   -1    0    0    0  501 -0.00000000000E+00 -0.00000000000E+00 -0.95846290060E+02  0.95846290093E+02  0.25500000000E-02 0. -1.
    5000001    1    1    2    0    0  0.45686756774E+02  0.60947942500E+01  0.72001702856E+01  0.90029265873E+02  0.77000000000E+02 0.  0.
   -5000001    1    1    2    0    0 -0.45686756774E+02 -0.60947942500E+01 -0.17443094130E+02  0.91420390473E+02  0.77000000000E+02 0.  0.
<mgrwt>
<rscale>  0 0.18116032E+03</rscale>
<asrwt>0</asrwt>
<pdfrwt beam="1">  1        2 0.13169749E-01 0.18116032E+03</pdfrwt>
<pdfrwt beam="2">  1       -2 0.14745583E-01 0.18116032E+03</pdfrwt>
<totfact> 0.15347579E+04</totfact>
</mgrwt>
</event>
<event>
 4    1  0.1195463E-003  0.2198688E+03  0.7818608E-02  0.1133981E+00
          2   -1    0    0  501    0  0.00000000000E+00  0.00000000000E+00  0.70210053391E+02  0.70210053437E+02  0.25500000000E-02 0.  1.
         -2   -1    0    0    0  501 -0.00000000000E+00 -0.00000000000E+00 -0.17213445110E+03  0.17213445112E+03  0.25500000000E-02 0. -1.
    5000001    1    1    2    0    0  0.64181674854E+02 -0.40549346093E+02 -0.29110577322E+02  0.11198197430E+03  0.77000000000E+02 0.  0.
   -5000001    1    1    2    0    0 -0.64181674854E+02  0.40549346093E+02 -0.72813820385E+02  0.13036253026E+03  0.77000000000E+02 0.  0.
<mgrwt>
<rscale>  0 0.21986877E+03</rscale>
<asrwt>0</asrwt>
<pdfrwt beam="1">  1        2 0.10801547E-01 0.21986877E+03</pdfrwt>
<pdfrwt beam="2">  1       -2 0.26482223E-01 0.21986877E+03</pdfrwt>
<totfact> 0.72981435E+03</totfact>
</mgrwt>
</event>
<event>
 4    1  0.1195463E-003  0.2524875E+03  0.7818608E-02  0.1111743E+00
          2   -1    0    0  501    0  0.00000000000E+00  0.00000000000E+00  0.94210056755E+03  0.94210056755E+03  0.25500000000E-02 0.  1.
         -2   -1    0    0    0  501 -0.00000000000E+00 -0.00000000000E+00 -0.16916972534E+02  0.16916972726E+02  0.25500000000E-02 0. -1.
    5000001    1    1    2    0    0  0.49154807439E+02  0.77419626853E+02  0.61445143149E+03  0.62601082689E+03  0.77000000000E+02 0.  0.
   -5000001    1    1    2    0    0 -0.49154807439E+02 -0.77419626853E+02  0.31073216352E+03  0.33300671339E+03  0.77000000000E+02 0.  0.
<mgrwt>
<rscale>  0 0.25248754E+03</rscale>
<asrwt>0</asrwt>
<pdfrwt beam="1">  1        2 0.14493851E+00 0.25248754E+03</pdfrwt>
<pdfrwt beam="2">  1       -2 0.26026119E-02 0.25248754E+03</pdfrwt>
<totfact> 0.14835808E+04</totfact>
</mgrwt>
</event>
<event>
 4    1  0.1195463E-003  0.1973476E+03  0.7818608E-02  0.1151996E+00
          2   -1    0    0  501    0  0.00000000000E+00  0.00000000000E+00  0.16842305285E+04  0.16842305285E+04  0.25500000000E-02 0.  1.
         -2   -1    0    0    0  501 -0.00000000000E+00 -0.00000000000E+00 -0.57809894280E+01  0.57809899905E+01  0.25500000000E-02 0. -1.
    5000001    1    1    2    0    0  0.13537188026E+02 -0.60005110252E+02  0.79757819798E+03  0.80364410693E+03  0.77000000000E+02 0.  0.
   -5000001    1    1    2    0    0 -0.13537188026E+02  0.60005110252E+02  0.88087134106E+03  0.88636741153E+03  0.77000000000E+02 0.  0.
<mgrwt>
<rscale>  0 0.19734761E+03</rscale>
<asrwt>0</asrwt>
<pdfrwt beam="1">  1        2 0.25911228E+00 0.19734761E+03</pdfrwt>
<pdfrwt beam="2">  1       -2 0.88938340E-03 0.19734761E+03</pdfrwt>
<totfact> 0.27087489E+04</totfact>
</mgrwt>
</event>
<event>
 4    1  0.1195463E-003  0.1830667E+03  0.7818608E-02  0.1164868E+00
          2   -1    0    0  501    0  0.00000000000E+00  0.00000000000E+00  0.12234241636E+04  0.12234241636E+04  0.25500000000E-02 0.  1.
         -2   -1    0    0    0  501 -0.00000000000E+00 -0.00000000000E+00 -0.68482822366E+01  0.68482827113E+01  0.25500000000E-02 0. -1.
    5000001    1    1    2    0    0 -0.24140281615E+01  0.41870615386E+02  0.78486549888E+03  0.78974795175E+03  0.77000000000E+02 0.  0.
   -5000001    1    1    2    0    0  0.24140281615E+01 -0.41870615386E+02  0.43171038248E+03  0.44052449456E+03  0.77000000000E+02 0.  0.
<mgrwt>
<rscale>  0 0.18306670E+03</rscale>
<asrwt>0</asrwt>
<pdfrwt beam="1">  1        2 0.18821880E+00 0.18306670E+03</pdfrwt>
<pdfrwt beam="2">  1       -2 0.10535836E-02 0.18306670E+03</pdfrwt>
<totfact> 0.37221244E+04</totfact>
</mgrwt>
</event>
<event>
 4    1  0.1195463E-003  0.2006801E+03  0.7818608E-02  0.1149166E+00
         -2   -1    0    0    0  501 -0.00000000000E+00  0.00000000000E+00  0.53138121315E+03  0.53138121316E+03  0.25500000000E-02 0. -1.
          2   -1    0    0  501    0  0.00000000000E+00 -0.00000000000E+00 -0.18947084924E+02  0.18947085096E+02  0.25500000000E-02 0.  1.
    5000001    1    1    2    0    0 -0.14530393200E+01  0.42009202103E+02  0.12265075653E+03  0.15079486882E+03  0.77000000000E+02 0.  0.
   -5000001    1    1    2    0    0  0.14530393200E+01 -0.42009202103E+02  0.38978337169E+03  0.39953342943E+03  0.77000000000E+02 0.  0.
<mgrwt>
<rscale>  0 0.20068009E+03</rscale>
<asrwt>0</asrwt>
<pdfrwt beam="1">  1        2 0.29149361E-02 0.20068009E+03</pdfrwt>
<pdfrwt beam="2">  1       -2 0.81750957E-01 0.20068009E+03</pdfrwt>
<totfact> 0.43253000E+03</totfact>
</mgrwt>
</event>
<event>
 4    1  0.1195463E-003  0.2179921E+03  0.7818608E-02  0.1135389E+00
         -2   -1    0    0    0  501 -0.00000000000E+00  0.00000000000E+00  0.45813030759E+03  0.45813030759E+03  0.25500000000E-02 0. -1.
          2   -1    0    0  501    0  0.00000000000E+00 -0.00000000000E+00 -0.25931779590E+02  0.25931779715E+02  0.25500000000E-02 0.  1.
    5000001    1    1    2    0    0  0.40558298064E+02 -0.50680656172E+02  0.12353592318E+03  0.15938515855E+03  0.77000000000E+02 0.  0.
   -5000001    1    1    2    0    0 -0.40558298064E+02  0.50680656172E+02  0.30866260482E+03  0.32467692875E+03  0.77000000000E+02 0.  0.
<mgrwt>
<rscale>  0 0.21799206E+03</rscale>
<asrwt>0</asrwt>
<pdfrwt beam="1">  1        2 0.39895047E-02 0.21799206E+03</pdfrwt>
<pdfrwt beam="2">  1       -2 0.70481583E-01 0.21799206E+03</pdfrwt>
<totfact> 0.39320261E+03</totfact>
</mgrwt>
</event>
<event>
 4    1  0.1195463E-003  0.2137836E+03  0.7818608E-02  0.1138604E+00
         -2   -1    0    0    0  501 -0.00000000000E+00  0.00000000000E+00  0.10579357616E+02  0.10579357924E+02  0.25500000000E-02 0. -1.
          2   -1    0    0  501    0  0.00000000000E+00 -0.00000000000E+00 -0.10800140355E+04  0.10800140355E+04  0.25500000000E-02 0.  1.
    5000001    1    1    2    0    0  0.95043754151E+00  0.69027138380E+02 -0.39677159552E+03  0.41002725296E+03  0.77000000000E+02 0.  0.
   -5000001    1    1    2    0    0 -0.95043754151E+00 -0.69027138380E+02 -0.67266308237E+03  0.68056614047E+03  0.77000000000E+02 0.  0.
<mgrwt>
<rscale>  0 0.21378358E+03</rscale>
<asrwt>0</asrwt>
<pdfrwt beam="1">  1        2 0.16615592E+00 0.21378358E+03</pdfrwt>
<pdfrwt beam="2">  1       -2 0.16275944E-02 0.21378358E+03</pdfrwt>
<totfact> 0.24172207E+04</totfact>
</mgrwt>
</event>
<event>
 4    1  0.1195463E-003  0.4284763E+03  0.7818608E-02  0.1034342E+00
         -2   -1    0    0    0  501 -0.00000000000E+00  0.00000000000E+00  0.90078492847E+02  0.90078492883E+02  0.25500000000E-02 0. -1.
          2   -1    0    0  501    0  0.00000000000E+00 -0.00000000000E+00 -0.50953322971E+03  0.50953322972E+03  0.25500000000E-02 0.  1.
    5000001    1    1    2    0    0  0.24044247292E+02 -0.13854385209E+03 -0.10852025752E+02  0.16068382384E+03  0.77000000000E+02 0.  0.
   -5000001    1    1    2    0    0 -0.24044247292E+02  0.13854385209E+03 -0.40860271111E+03  0.43892789876E+03  0.77000000000E+02 0.  0.
<mgrwt>
<rscale>  0 0.42847630E+03</rscale>
<asrwt>0</asrwt>
<pdfrwt beam="1">  1        2 0.78389726E-01 0.42847630E+03</pdfrwt>
<pdfrwt beam="2">  1       -2 0.13858230E-01 0.42847630E+03</pdfrwt>
<totfact> 0.23934272E+03</totfact>
</mgrwt>
</event>
<event>
 4    1  0.1195463E-003  0.2578491E+03  0.7818608E-02  0.1108442E+00
         -2   -1    0    0    0  501 -0.00000000000E+00  0.00000000000E+00  0.15141612198E+02  0.15141612412E+02  0.25500000000E-02 0. -1.
          2   -1    0    0  501    0  0.00000000000E+00 -0.00000000000E+00 -0.10977391527E+04  0.10977391527E+04  0.25500000000E-02 0.  1.
    5000001    1    1    2    0    0  0.52416831843E+02 -0.45958953960E+02 -0.87092457891E+03  0.87709655789E+03  0.77000000000E+02 0.  0.
   -5000001    1    1    2    0    0 -0.52416831843E+02  0.45958953960E+02 -0.21167296161E+03  0.23578420725E+03  0.77000000000E+02 0.  0.
<mgrwt>
<rscale>  0 0.25784911E+03</rscale>
<asrwt>0</asrwt>
<pdfrwt beam="1">  1        2 0.16888288E+00 0.25784911E+03</pdfrwt>
<pdfrwt beam="2">  1       -2 0.23294797E-02 0.25784911E+03</pdfrwt>
<totfact> 0.14074471E+04</totfact>
</mgrwt>
</event>
<event>
 4    1  0.1195463E-003  0.1957025E+03  0.7818608E-02  0.1153416E+00
         -2   -1    0    0    0  501 -0.00000000000E+00  0.00000000000E+00  0.37436057906E+03  0.37436057907E+03  0.25500000000E-02 0. -1.
          2   -1    0    0  501    0  0.00000000000E+00 -0.00000000000E+00 -0.25576600052E+02  0.25576600179E+02  0.25500000000E-02 0.  1.
    5000001    1    1    2    0    0 -0.25159802002E+02  0.38049090874E+02  0.93543966785E+02  0.12946127867E+03  0.77000000000E+02 0.  0.
   -5000001    1    1    2    0    0  0.25159802002E+02 -0.38049090874E+02  0.25524001222E+03  0.27047590057E+03  0.77000000000E+02 0.  0.
<mgrwt>
<rscale>  0 0.19570254E+03</rscale>
<asrwt>0</asrwt>
<pdfrwt beam="1">  1        2 0.39348618E-02 0.19570254E+03</pdfrwt>
<pdfrwt beam="2">  1       -2 0.57593932E-01 0.19570254E+03</pdfrwt>
<totfact> 0.60707503E+03</totfact>
</mgrwt>
</event>
<event>
 4    1  0.1195463E-003  0.1991094E+03  0.7818608E-02  0.1150493E+00
          2   -1    0    0  501    0  0.00000000000E+00  0.00000000000E+00  0.64584035478E+03  0.64584035479E+03  0.25500000000E-02 0.  1.
         -2   -1    0    0    0  501 -0.00000000000E+00 -0.00000000000E+00 -0.15346104985E+02  0.15346105197E+02  0.25500000000E-02 0. -1.
    5000001    1    1    2    0    0 -0.45152710689E+02 -0.41644797729E+02  0.36326311972E+03  0.37638032707E+03  0.77000000000E+02 0.  0.
   -5000001    1    1    2    0    0  0.45152710689E+02  0.41644797729E+02  0.26723113008E+03  0.28480613291E+03  0.77000000000E+02 0.  0.
<mgrwt>
<rscale>  0 0.19910936E+03</rscale>
<asrwt>0</asrwt>
<pdfrwt beam="1">  1        2 0.99360026E-01 0.19910936E+03</pdfrwt>
<pdfrwt beam="2">  1       -2 0.23609399E-02 0.19910936E+03</pdfrwt>
<totfact> 0.27173902E+04</totfact>
</mgrwt>
</event>
<event>
 4    1  0.1195463E-003  0.2162729E+03  0.7818608E-02  0.1136693E+00
         -2   -1    0    0    0  501 -0.00000000000E+00  0.00000000000E+00  0.21044667229E+02  0.21044667384E+02  0.25500000000E-02 0. -1.
          2   -1    0    0  501    0  0.00000000000E+00 -0.00000000000E+00 -0.55565123568E+03  0.55565123569E+03  0.25500000000E-02 0.  1.
    5000001    1    1    2    0    0  0.74692657193E+02 -0.31678677342E+01 -0.23198152001E+03  0.25560409631E+03  0.77000000000E+02 0.  0.
   -5000001    1    1    2    0    0 -0.74692657193E+02  0.31678677342E+01 -0.30262504844E+03  0.32109180676E+03  0.77000000000E+02 0.  0.
<mgrwt>
<rscale>  0 0.21627293E+03</rscale>
<asrwt>0</asrwt>
<pdfrwt beam="1">  1        2 0.85484794E-01 0.21627293E+03</pdfrwt>
<pdfrwt beam="2">  1       -2 0.32376415E-02 0.21627293E+03</pdfrwt>
<totfact> 0.20385261E+04</totfact>
</mgrwt>
</event>
<event>
 4    1  0.1195463E-003  0.2170247E+03  0.7818608E-02  0.1136121E+00
         -2   -1    0    0    0  501 -0.00000000000E+00  0.00000000000E+00  0.32050407124E+03  0.32050407125E+03  0.25500000000E-02 0. -1.
          2   -1    0    0  501    0  0.00000000000E+00 -0.00000000000E+00 -0.36738778979E+02  0.36738779067E+02  0.25500000000E-02 0.  1.
    5000001    1    1    2    0    0 -0.65812231154E+02 -0.26826692036E+02  0.18829567521E+03  0.21548824208E+03  0.77000000000E+02 0.  0.
   -5000001    1    1    2    0    0  0.65812231154E+02  0.26826692036E+02  0.95469617057E+02  0.14175460824E+03  0.77000000000E+02 0.  0.
<mgrwt>
<rscale>  0 0.21702468E+03</rscale>
<asrwt>0</asrwt>
<pdfrwt beam="1">  1        2 0.56521199E-02 0.21702468E+03</pdfrwt>
<pdfrwt beam="2">  1       -2 0.49308319E-01 0.21702468E+03</pdfrwt>
<totfact> 0.51771893E+03</totfact>
</mgrwt>
</event>
<event>
 4    1  0.1195463E-003  0.4106525E+03  0.7818608E-02  0.1040152E+00
          2   -1    0    0  501    0  0.00000000000E+00  0.00000000000E+00  0.79740128528E+03  0.79740128529E+03  0.25500000000E-02 0.  1.
         -2   -1    0    0    0  501 -0.00000000000E+00 -0.00000000000E+00 -0.52870334696E+02  0.52870334758E+02  0.25500000000E-02 0. -1.
    5000001    1    1    2    0    0  0.18462210838E+03 -0.32929195927E+02  0.43968423878E+03  0.48417030545E+03  0.77000000000E+02 0.  0.
   -5000001    1    1    2    0    0 -0.18462210838E+03  0.32929195927E+02  0.30484671180E+03  0.36610131459E+03  0.77000000000E+02 0.  0.
<mgrwt>
<rscale>  0 0.41065252E+03</rscale>
<asrwt>0</asrwt>
<pdfrwt beam="1">  1        2 0.12267712E+00 0.41065252E+03</pdfrwt>
<pdfrwt beam="2">  1       -2 0.81338979E-02 0.41065252E+03</pdfrwt>
<totfact> 0.32980296E+03</totfact>
</mgrwt>
</event>
<event>
 4    1  0.1195463E-003  0.3553298E+03  0.7818608E-02  0.1060448E+00
          2   -1    0    0  501    0  0.00000000000E+00  0.00000000000E+00  0.39561181727E+03  0.39561181728E+03  0.25500000000E-02 0. -1.
         -2   -1    0    0    0  501 -0.00000000000E+00 -0.00000000000E+00 -0.79787363596E+02  0.79787363637E+02  0.25500000000E-02 0.  1.
    5000001    1    1    2    0    0 -0.11779450458E+03  0.10511241426E+03  0.12222089828E+03  0.21398858128E+03  0.77000000000E+02 0.  0.
   -5000001    1    1    2    0    0  0.11779450458E+03 -0.10511241426E+03  0.19360355540E+03  0.26141059964E+03  0.77000000000E+02 0.  0.
<mgrwt>
<rscale>  0 0.35532984E+03</rscale>
<asrwt>0</asrwt>
<pdfrwt beam="1">  1        2 0.60863357E-01 0.35532984E+03</pdfrwt>
<pdfrwt beam="2">  1       -2 0.12274979E-01 0.35532984E+03</pdfrwt>
<totfact> 0.38651193E+03</totfact>
</mgrwt>
</event>
<event>
 4    1  0.1195463E-003  0.1667127E+03  0.7818608E-02  0.1181320E+00
         -2   -1    0    0    0  501 -0.00000000000E+00  0.00000000000E+00  0.17177674752E+02  0.17177674942E+02  0.25500000000E-02 0. -1.
          2   -1    0    0  501    0  0.00000000000E+00 -0.00000000000E+00 -0.40449465741E+03  0.40449465742E+03  0.25500000000E-02 0.  1.
    5000001    1    1    2    0    0  0.18939160393E+02  0.19697382330E+02 -0.23541927947E+03  0.24919453408E+03  0.77000000000E+02 0.  0.
   -5000001    1    1    2    0    0 -0.18939160393E+02 -0.19697382330E+02 -0.15189770318E+03  0.17247779828E+03  0.77000000000E+02 0.  0.
<mgrwt>
<rscale>  0 0.16671266E+03</rscale>
<asrwt>0</asrwt>
<pdfrwt beam="1">  1        2 0.62229940E-01 0.16671266E+03</pdfrwt>
<pdfrwt beam="2">  1       -2 0.26427195E-02 0.16671266E+03</pdfrwt>
<totfact> 0.38234711E+04</totfact>
</mgrwt>
</event>
<event>
 4    1  0.1195463E-003  0.2668566E+03  0.7818608E-02  0.1103092E+00
         -2   -1    0    0    0  501 -0.00000000000E+00  0.00000000000E+00  0.72290757991E+02  0.72290758036E+02  0.25500000000E-02 0. -1.
          2   -1    0    0  501    0  0.00000000000E+00 -0.00000000000E+00 -0.24627085320E+03  0.24627085321E+03  0.25500000000E-02 0.  1.
    5000001    1    1    2    0    0  0.94248988722E+02  0.38903085959E+02 -0.41099723218E+02  0.13421814043E+03  0.77000000000E+02 0.  0.
   -5000001    1    1    2    0    0 -0.94248988722E+02 -0.38903085959E+02 -0.13288037199E+03  0.18434347082E+03  0.77000000000E+02 0.  0.
<mgrwt>
<rscale>  0 0.26685657E+03</rscale>
<asrwt>0</asrwt>
<pdfrwt beam="1">  1        2 0.37887823E-01 0.26685657E+03</pdfrwt>
<pdfrwt beam="2">  1       -2 0.11121655E-01 0.26685657E+03</pdfrwt>
<totfact> 0.75101788E+03</totfact>
</mgrwt>
</event>
<event>
 4    1  0.1195463E-003  0.1663470E+03  0.7818608E-02  0.1181712E+00
          2   -1    0    0  501    0  0.00000000000E+00  0.00000000000E+00  0.14319087574E+04  0.14319087574E+04  0.25500000000E-02 0.  1.
         -2   -1    0    0    0  501 -0.00000000000E+00 -0.00000000000E+00 -0.48311926720E+01  0.48311933450E+01  0.25500000000E-02 0. -1.
    5000001    1    1    2    0    0  0.16099926743E+02 -0.20006178862E+02  0.55678893136E+03  0.56267430093E+03  0.77000000000E+02 0.  0.
   -5000001    1    1    2    0    0 -0.16099926743E+02  0.20006178862E+02  0.87028863338E+03  0.87406564984E+03  0.77000000000E+02 0.  0.
<mgrwt>
<rscale>  0 0.16634696E+03</rscale>
<asrwt>0</asrwt>
<pdfrwt beam="1">  1        2 0.22029393E+00 0.16634696E+03</pdfrwt>
<pdfrwt beam="2">  1       -2 0.74325954E-03 0.16634696E+03</pdfrwt>
<totfact> 0.47011981E+04</totfact>
</mgrwt>
</event>
<event>
 4    1  0.1195463E-003  0.1850214E+03  0.7818608E-02  0.1163030E+00
         -2   -1    0    0    0  501 -0.00000000000E+00  0.00000000000E+00  0.18687711368E+03  0.18687711370E+03  0.25500000000E-02 0. -1.
          2   -1    0    0  501    0  0.00000000000E+00 -0.00000000000E+00 -0.45796048660E+02  0.45796048731E+02  0.25500000000E-02 0.  1.
    5000001    1    1    2    0    0 -0.21868135840E+02  0.21777859385E+02  0.12203463213E+03  0.14755996057E+03  0.77000000000E+02 0.  0.
   -5000001    1    1    2    0    0  0.21868135840E+02 -0.21777859385E+02  0.19046432890E+02  0.85113201857E+02  0.77000000000E+02 0.  0.
<mgrwt>
<rscale>  0 0.18502144E+03</rscale>
<asrwt>0</asrwt>
<pdfrwt beam="1">  1        2 0.70455461E-02 0.18502144E+03</pdfrwt>
<pdfrwt beam="2">  1       -2 0.28750325E-01 0.18502144E+03</pdfrwt>
<totfact> 0.10649546E+04</totfact>
</mgrwt>
</event>
<event>
 4    1  0.1195463E-003  0.3522559E+03  0.7818608E-02  0.1061693E+00
         -2   -1    0    0    0  501 -0.00000000000E+00  0.00000000000E+00  0.14570608084E+02  0.14570608307E+02  0.25500000000E-02 0. -1.
          2   -1    0    0  501    0  0.00000000000E+00 -0.00000000000E+00 -0.21290161863E+04  0.21290161863E+04  0.25500000000E-02 0.  1.
    5000001    1    1    2    0    0 -0.10486904482E+03  0.16672306741E+02 -0.34193138308E+03  0.36622609561E+03  0.77000000000E+02 0.  0.
   -5000001    1    1    2    0    0  0.10486904482E+03 -0.16672306741E+02 -0.17725141951E+04  0.17773606990E+04  0.77000000000E+02 0.  0.
<mgrwt>
<rscale>  0 0.35225593E+03</rscale>
<asrwt>0</asrwt>
<pdfrwt beam="1">  1        2 0.32754070E+00 0.35225593E+03</pdfrwt>
<pdfrwt beam="2">  1       -2 0.22416337E-02 0.35225593E+03</pdfrwt>
<totfact> 0.41397280E+03</totfact>
</mgrwt>
</event>
<event>
 4    1  0.1195463E-003  0.2231622E+03  0.7818608E-02  0.1131547E+00
         -2   -1    0    0    0  501 -0.00000000000E+00  0.00000000000E+00  0.15139071769E+03  0.15139071771E+03  0.25500000000E-02 0. -1.
          2   -1    0    0  501    0  0.00000000000E+00 -0.00000000000E+00 -0.82239778727E+02  0.82239778767E+02  0.25500000000E-02 0.  1.
    5000001    1    1    2    0    0 -0.54706112858E+01 -0.80117258265E+02  0.25652974455E+02  0.11417433056E+03  0.77000000000E+02 0.  0.
   -5000001    1    1    2    0    0  0.54706112858E+01  0.80117258265E+02  0.43497964506E+02  0.11945616592E+03  0.77000000000E+02 0.  0.
<mgrwt>
<rscale>  0 0.22316218E+03</rscale>
<asrwt>0</asrwt>
<pdfrwt beam="1">  1        2 0.12652274E-01 0.22316218E+03</pdfrwt>
<pdfrwt beam="2">  1       -2 0.23290879E-01 0.22316218E+03</pdfrwt>
<totfact> 0.75511188E+03</totfact>
</mgrwt>
</event>
<event>
 4    1  0.1195463E-003  0.3407336E+03  0.7818608E-02  0.1066484E+00
          2   -1    0    0  501    0  0.00000000000E+00  0.00000000000E+00  0.23112702631E+03  0.23112702633E+03  0.25500000000E-02 0.  1.
         -2   -1    0    0    0  501 -0.00000000000E+00 -0.00000000000E+00 -0.12557964632E+03  0.12557964635E+03  0.25500000000E-02 0. -1.
    5000001    1    1    2    0    0 -0.13413611784E+03  0.63652633272E+02  0.86723787346E+02  0.18839896794E+03  0.77000000000E+02 0.  0.
   -5000001    1    1    2    0    0  0.13413611784E+03 -0.63652633272E+02  0.18823592646E+02  0.16830770473E+03  0.77000000000E+02 0.  0.
<mgrwt>
<rscale>  0 0.34073362E+03</rscale>
<asrwt>0</asrwt>
<pdfrwt beam="1">  1        2 0.35558004E-01 0.34073362E+03</pdfrwt>
<pdfrwt beam="2">  1       -2 0.19319946E-01 0.34073362E+03</pdfrwt>
<totfact> 0.32525737E+03</totfact>
</mgrwt>
</event>
<event>
 4    1  0.1195463E-003  0.1938622E+03  0.7818608E-02  0.1155023E+00
          2   -1    0    0  501    0  0.00000000000E+00  0.00000000000E+00  0.85613523176E+03  0.85613523176E+03  0.25500000000E-02 0.  1.
         -2   -1    0    0    0  501 -0.00000000000E+00 -0.00000000000E+00 -0.10974482076E+02  0.10974482372E+02  0.25500000000E-02 0. -1.
    5000001    1    1    2    0    0  0.33986751864E+02 -0.20917249277E+02  0.22895296576E+03  0.24482869757E+03  0.77000000000E+02 0.  0.
   -5000001    1    1    2    0    0 -0.33986751864E+02  0.20917249277E+02  0.61620778392E+03  0.62228101657E+03  0.77000000000E+02 0.  0.
<mgrwt>
<rscale>  0 0.19386223E+03</rscale>
<asrwt>0</asrwt>
<pdfrwt beam="1">  1        2 0.13171302E+00 0.19386223E+03</pdfrwt>
<pdfrwt beam="2">  1       -2 0.16883831E-02 0.19386223E+03</pdfrwt>
<totfact> 0.31315843E+04</totfact>
</mgrwt>
</event>
<event>
 4    1  0.1195463E-003  0.7815310E+03  0.7818608E-02  0.9587142E-01
         -2   -1    0    0    0  501 -0.00000000000E+00  0.00000000000E+00  0.82036042661E+03  0.82036042661E+03  0.25500000000E-02 0. -1.
          2   -1    0    0  501    0  0.00000000000E+00 -0.00000000000E+00 -0.18613486821E+03  0.18613486822E+03  0.25500000000E-02 0.  1.
    5000001    1    1    2    0    0 -0.34917839373E+03  0.72128661212E+02  0.49759845879E+03  0.61697756897E+03  0.77000000000E+02 0.  0.
   -5000001    1    1    2    0    0  0.34917839373E+03 -0.72128661212E+02  0.13662709961E+03  0.38951772587E+03  0.77000000000E+02 0.  0.
<mgrwt>
<rscale>  0 0.78153101E+03</rscale>
<asrwt>0</asrwt>
<pdfrwt beam="1">  1        2 0.28636133E-01 0.78153101E+03</pdfrwt>
<pdfrwt beam="2">  1       -2 0.12620930E+00 0.78153101E+03</pdfrwt>
<totfact> 0.88526216E+01</totfact>
</mgrwt>
</event>
<event>
 4    1  0.1195463E-003  0.2311843E+03  0.7818608E-02  0.1125809E+00
          2   -1    0    0  501    0  0.00000000000E+00  0.00000000000E+00  0.10623241808E+04  0.10623241808E+04  0.25500000000E-02 0.  1.
         -2   -1    0    0    0  501 -0.00000000000E+00 -0.00000000000E+00 -0.12577653856E+02  0.12577654114E+02  0.25500000000E-02 0. -1.
    5000001    1    1    2    0    0 -0.40340875447E+02  0.40481734227E+02  0.22475642840E+03  0.24435754366E+03  0.77000000000E+02 0.  0.
   -5000001    1    1    2    0    0  0.40340875447E+02 -0.40481734227E+02  0.82499009853E+03  0.83054429123E+03  0.77000000000E+02 0.  0.
<mgrwt>
<rscale>  0 0.23118431E+03</rscale>
<asrwt>0</asrwt>
<pdfrwt beam="1">  1        2 0.16343451E+00 0.23118431E+03</pdfrwt>
<pdfrwt beam="2">  1       -2 0.19350234E-02 0.23118431E+03</pdfrwt>
<totfact> 0.19309406E+04</totfact>
</mgrwt>
</event>
<event>
 4    1  0.1195463E-003  0.3927312E+03  0.7818608E-02  0.1046326E+00
         -2   -1    0    0    0  501 -0.00000000000E+00  0.00000000000E+00  0.47080890353E+02  0.47080890422E+02  0.25500000000E-02 0. -1.
          2   -1    0    0  501    0  0.00000000000E+00 -0.00000000000E+00 -0.81900422996E+03  0.81900422997E+03  0.25500000000E-02 0.  1.
    5000001    1    1    2    0    0 -0.17722395205E+02  0.17880074596E+03 -0.42702139111E+03  0.46963822088E+03  0.77000000000E+02 0.  0.
   -5000001    1    1    2    0    0  0.17722395205E+02 -0.17880074596E+03 -0.34490194851E+03  0.39644689951E+03  0.77000000000E+02 0.  0.
<mgrwt>
<rscale>  0 0.39273120E+03</rscale>
<asrwt>0</asrwt>
<pdfrwt beam="1">  1        2 0.12600064E+00 0.39273120E+03</pdfrwt>
<pdfrwt beam="2">  1       -2 0.72432145E-02 0.39273120E+03</pdfrwt>
<totfact> 0.38217450E+03</totfact>
</mgrwt>
</event>
<event>
 4    1  0.1195463E-003  0.2362251E+03  0.7818608E-02  0.1122333E+00
          2   -1    0    0  501    0  0.00000000000E+00  0.00000000000E+00  0.67801124085E+03  0.67801124085E+03  0.25500000000E-02 0.  1.
         -2   -1    0    0    0  501 -0.00000000000E+00 -0.00000000000E+00 -0.20575734224E+02  0.20575734382E+02  0.25500000000E-02 0. -1.
    5000001    1    1    2    0    0  0.10870603484E+02  0.86717445261E+02  0.27080508800E+03  0.29479226757E+03  0.77000000000E+02 0.  0.
   -5000001    1    1    2    0    0 -0.10870603484E+02 -0.86717445261E+02  0.38663041862E+03  0.40379470766E+03  0.77000000000E+02 0.  0.
<mgrwt>
<rscale>  0 0.23622514E+03</rscale>
<asrwt>0</asrwt>
<pdfrwt beam="1">  1        2 0.10430943E+00 0.23622514E+03</pdfrwt>
<pdfrwt beam="2">  1       -2 0.31654973E-02 0.23622514E+03</pdfrwt>
<totfact> 0.16810667E+04</totfact>
</mgrwt>
</event>
<event>
 4    1  0.1195463E-003  0.2008561E+03  0.7818608E-02  0.1149019E+00
         -2   -1    0    0    0  501 -0.00000000000E+00  0.00000000000E+00  0.12492979370E+03  0.12492979373E+03  0.25500000000E-02 0. -1.
          2   -1    0    0  501    0  0.00000000000E+00 -0.00000000000E+00 -0.80731673898E+02  0.80731673938E+02  0.25500000000E-02 0.  1.
    5000001    1    1    2    0    0  0.45843730644E+02 -0.32229191901E+02 -0.10545075470E+02  0.95815275747E+02  0.77000000000E+02 0.  0.
   -5000001    1    1    2    0    0 -0.45843730644E+02  0.32229191901E+02  0.54743195271E+02  0.10984619192E+03  0.77000000000E+02 0.  0.
<mgrwt>
<rscale>  0 0.20085608E+03</rscale>
<asrwt>0</asrwt>
<pdfrwt beam="1">  1        2 0.12420258E-01 0.20085608E+03</pdfrwt>
<pdfrwt beam="2">  1       -2 0.19219968E-01 0.20085608E+03</pdfrwt>
<totfact> 0.10671490E+04</totfact>
</mgrwt>
</event>
<event>
 4    1  0.1195463E-003  0.2446586E+03  0.7818608E-02  0.1116728E+00
          2   -1    0    0  501    0  0.00000000000E+00  0.00000000000E+00  0.91019889647E+03  0.91019889647E+03  0.25500000000E-02 0.  1.
         -2   -1    0    0    0  501 -0.00000000000E+00 -0.00000000000E+00 -0.16440866850E+02  0.16440867048E+02  0.25500000000E-02 0. -1.
    5000001    1    1    2    0    0  0.72503412455E+02  0.51295332317E+02  0.57517921856E+03  0.58706736359E+03  0.77000000000E+02 0.  0.
   -5000001    1    1    2    0    0 -0.72503412455E+02 -0.51295332317E+02  0.31857881106E+03  0.33957239992E+03  0.77000000000E+02 0.  0.
<mgrwt>
<rscale>  0 0.24465861E+03</rscale>
<asrwt>0</asrwt>
<pdfrwt beam="1">  1        2 0.14003060E+00 0.24465861E+03</pdfrwt>
<pdfrwt beam="2">  1       -2 0.25293642E-02 0.24465861E+03</pdfrwt>
<totfact> 0.16191496E+04</totfact>
</mgrwt>
</event>
<event>
 4    1  0.1195463E-003  0.3909797E+03  0.7818608E-02  0.1046949E+00
         -2   -1    0    0    0  501 -0.00000000000E+00  0.00000000000E+00  0.61837375239E+02  0.61837375291E+02  0.25500000000E-02 0. -1.
          2   -1    0    0  501    0  0.00000000000E+00 -0.00000000000E+00 -0.61801278707E+03  0.61801278708E+03  0.25500000000E-02 0.  1.
    5000001    1    1    2    0    0  0.14209050164E+03 -0.67042824983E+02 -0.42970432660E+03  0.46396040708E+03  0.77000000000E+02 0.  0.
   -5000001    1    1    2    0    0 -0.14209050164E+03  0.67042824983E+02 -0.12647108523E+03  0.21588975529E+03  0.77000000000E+02 0.  0.
<mgrwt>
<rscale>  0 0.39097974E+03</rscale>
<asrwt>0</asrwt>
<pdfrwt beam="1">  1        2 0.95078886E-01 0.39097974E+03</pdfrwt>
<pdfrwt beam="2">  1       -2 0.95134428E-02 0.39097974E+03</pdfrwt>
<totfact> 0.35212191E+03</totfact>
</mgrwt>
</event>
<event>
 4    1  0.1195463E-003  0.2434921E+03  0.7818608E-02  0.1117488E+00
         -2   -1    0    0    0  501 -0.00000000000E+00  0.00000000000E+00  0.96797658532E+01  0.96797661890E+01  0.25500000000E-02 0. -1.
          2   -1    0    0  501    0  0.00000000000E+00 -0.00000000000E+00 -0.15312456214E+04  0.15312456214E+04  0.25500000000E-02 0.  1.
    5000001    1    1    2    0    0 -0.37855531700E+02  0.11619670954E+02 -0.13024117839E+04  0.13052867551E+04  0.77000000000E+02 0.  0.
   -5000001    1    1    2    0    0  0.37855531700E+02 -0.11619670954E+02 -0.21915407167E+03  0.23563863258E+03  0.77000000000E+02 0.  0.
<mgrwt>
<rscale>  0 0.24349209E+03</rscale>
<asrwt>0</asrwt>
<pdfrwt beam="1">  1        2 0.23557606E+00 0.24349209E+03</pdfrwt>
<pdfrwt beam="2">  1       -2 0.14891960E-02 0.24349209E+03</pdfrwt>
<totfact> 0.15585602E+04</totfact>
</mgrwt>
</event>
<event>
 4    1  0.1195463E-003  0.1671200E+03  0.7818608E-02  0.1180885E+00
         -2   -1    0    0    0  501 -0.00000000000E+00  0.00000000000E+00  0.58632228337E+02  0.58632228392E+02  0.25500000000E-02 0. -1.
          2   -1    0    0  501    0  0.00000000000E+00 -0.00000000000E+00 -0.11908587147E+03  0.11908587149E+03  0.25500000000E-02 0.  1.
    5000001    1    1    2    0    0 -0.31475027723E+02 -0.52426803585E+01 -0.23925960841E+02  0.86715711781E+02  0.77000000000E+02 0.  0.
   -5000001    1    1    2    0    0  0.31475027723E+02  0.52426803585E+01 -0.36527682289E+02  0.91002388105E+02  0.77000000000E+02 0.  0.
<mgrwt>
<rscale>  0 0.16711996E+03</rscale>
<asrwt>0</asrwt>
<pdfrwt beam="1">  1        2 0.18320903E-01 0.16711996E+03</pdfrwt>
<pdfrwt beam="2">  1       -2 0.90203429E-02 0.16711996E+03</pdfrwt>
<totfact> 0.22719867E+04</totfact>
</mgrwt>
</event>
<event>
 4    1  0.1195463E-003  0.2760137E+03  0.7818608E-02  0.1097886E+00
          2   -1    0    0  501    0  0.00000000000E+00  0.00000000000E+00  0.57198797759E+02  0.57198797816E+02  0.25500000000E-02 0.  1.
         -2   -1    0    0    0  501 -0.00000000000E+00 -0.00000000000E+00 -0.33297706979E+03  0.33297706980E+03  0.25500000000E-02 0. -1.
    5000001    1    1    2    0    0  0.52426847337E+01  0.11028186879E+03 -0.18093611502E+03  0.22551375578E+03  0.77000000000E+02 0.  0.
   -5000001    1    1    2    0    0 -0.52426847337E+01 -0.11028186879E+03 -0.94842157003E+02  0.16466211183E+03  0.77000000000E+02 0.  0.
<mgrwt>
<rscale>  0 0.27601368E+03</rscale>
<asrwt>0</asrwt>
<pdfrwt beam="1">  1        2 0.87998152E-02 0.27601368E+03</pdfrwt>
<pdfrwt beam="2">  1       -2 0.51227241E-01 0.27601368E+03</pdfrwt>
<totfact> 0.27453730E+03</totfact>
</mgrwt>
</event>
<event>
 4    1  0.1195463E-003  0.1997573E+03  0.7818608E-02  0.1149944E+00
          2   -1    0    0  501    0  0.00000000000E+00  0.00000000000E+00  0.14489112319E+03  0.14489112322E+03  0.25500000000E-02 0.  1.
         -2   -1    0    0    0  501 -0.00000000000E+00 -0.00000000000E+00 -0.68849903807E+02  0.68849903854E+02  0.25500000000E-02 0. -1.
    5000001    1    1    2    0    0  0.56586023303E+02  0.22218791079E+02  0.58069614986E+02  0.11400321441E+03  0.77000000000E+02 0.  0.
   -5000001    1    1    2    0    0 -0.56586023303E+02 -0.22218791079E+02  0.17971604400E+02  0.99737812664E+02  0.77000000000E+02 0.  0.
<mgrwt>
<rscale>  0 0.19975725E+03</rscale>
<asrwt>0</asrwt>
<pdfrwt beam="1">  1        2 0.22290942E-01 0.19975725E+03</pdfrwt>
<pdfrwt beam="2">  1       -2 0.10592293E-01 0.19975725E+03</pdfrwt>
<totfact> 0.14317515E+04</totfact>
</mgrwt>
</event>
<event>
 4    1  0.1195463E-003  0.2631853E+03  0.7818608E-02  0.1105244E+00
          2   -1    0    0  501    0  0.00000000000E+00  0.00000000000E+00  0.13752249043E+04  0.13752249043E+04  0.25500000000E-02 0.  1.
         -2   -1    0    0    0  501 -0.00000000000E+00 -0.00000000000E+00 -0.12591852633E+02  0.12591852891E+02  0.25500000000E-02 0. -1.
    5000001    1    1    2    0    0  0.91017053989E+02  0.55610606973E+02  0.66383875417E+03  0.67674776339E+03  0.77000000000E+02 0.  0.
   -5000001    1    1    2    0    0 -0.91017053989E+02 -0.55610606973E+02  0.69879429749E+03  0.71106899379E+03  0.77000000000E+02 0.  0.
<mgrwt>
<rscale>  0 0.26318533E+03</rscale>
<asrwt>0</asrwt>
<pdfrwt beam="1">  1        2 0.21157307E+00 0.26318533E+03</pdfrwt>
<pdfrwt beam="2">  1       -2 0.19372081E-02 0.26318533E+03</pdfrwt>
<totfact> 0.12894891E+04</totfact>
</mgrwt>
</event>
<event>
 4    1  0.1195463E-003  0.1799198E+03  0.7818608E-02  0.1167881E+00
         -2   -1    0    0    0  501 -0.00000000000E+00  0.00000000000E+00  0.24056239071E+02  0.24056239207E+02  0.25500000000E-02 0. -1.
          2   -1    0    0  501    0  0.00000000000E+00 -0.00000000000E+00 -0.33641109628E+03  0.33641109629E+03  0.25500000000E-02 0.  1.
    5000001    1    1    2    0    0 -0.12875321073E+02 -0.43520578554E+02 -0.13574860827E+03  0.16253153324E+03  0.77000000000E+02 0.  0.
   -5000001    1    1    2    0    0  0.12875321073E+02  0.43520578554E+02 -0.17660624894E+03  0.19793580226E+03  0.77000000000E+02 0.  0.
<mgrwt>
<rscale>  0 0.17991982E+03</rscale>
<asrwt>0</asrwt>
<pdfrwt beam="1">  1        2 0.51755550E-01 0.17991982E+03</pdfrwt>
<pdfrwt beam="2">  1       -2 0.37009601E-02 0.17991982E+03</pdfrwt>
<totfact> 0.28504372E+04</totfact>
</mgrwt>
</event>
<event>
 4    1  0.1195463E-003  0.2456534E+03  0.7818608E-02  0.1116083E+00
          2   -1    0    0  501    0  0.00000000000E+00  0.00000000000E+00  0.28683869007E+03  0.28683869008E+03  0.25500000000E-02 0.  1.
         -2   -1    0    0    0  501 -0.00000000000E+00 -0.00000000000E+00 -0.52595419955E+02  0.52595420017E+02  0.25500000000E-02 0. -1.
    5000001    1    1    2    0    0  0.85090255842E+02  0.43730503623E+02  0.11412834906E+03  0.16765139023E+03  0.77000000000E+02 0.  0.
   -5000001    1    1    2    0    0 -0.85090255842E+02 -0.43730503623E+02  0.12011492105E+03  0.17178271987E+03  0.77000000000E+02 0.  0.
<mgrwt>
<rscale>  0 0.24565343E+03</rscale>
<asrwt>0</asrwt>
<pdfrwt beam="1">  1        2 0.44129029E-01 0.24565343E+03</pdfrwt>
<pdfrwt beam="2">  1       -2 0.80916031E-02 0.24565343E+03</pdfrwt>
<totfact> 0.10500275E+04</totfact>
</mgrwt>
</event>
<event>
 4    1  0.1195463E-003  0.3953280E+03  0.7818608E-02  0.1045410E+00
         -2   -1    0    0    0  501 -0.00000000000E+00  0.00000000000E+00  0.14592461638E+03  0.14592461641E+03  0.25500000000E-02 0. -1.
          2   -1    0    0  501    0  0.00000000000E+00 -0.00000000000E+00 -0.26774824208E+03  0.26774824209E+03  0.25500000000E-02 0.  1.
    5000001    1    1    2    0    0 -0.16942452049E+03 -0.59688075720E+02 -0.91859999320E+02  0.21595044339E+03  0.77000000000E+02 0.  0.
   -5000001    1    1    2    0    0  0.16942452049E+03  0.59688075720E+02 -0.29963626372E+02  0.19772241510E+03  0.77000000000E+02 0.  0.
<mgrwt>
<rscale>  0 0.39532801E+03</rscale>
<asrwt>0</asrwt>
<pdfrwt beam="1">  1        2 0.41192037E-01 0.39532801E+03</pdfrwt>
<pdfrwt beam="2">  1       -2 0.22449941E-01 0.39532801E+03</pdfrwt>
<totfact> 0.21411400E+03</totfact>
</mgrwt>
</event>
<event>
 4    1  0.1195463E-003  0.2098360E+03  0.7818608E-02  0.1141696E+00
          2   -1    0    0  501    0  0.00000000000E+00  0.00000000000E+00  0.38236599740E+03  0.38236599741E+03  0.25500000000E-02 0.  1.
         -2   -1    0    0    0  501 -0.00000000000E+00 -0.00000000000E+00 -0.28788622234E+02  0.28788622347E+02  0.25500000000E-02 0. -1.
    5000001    1    1    2    0    0  0.66541510578E+02 -0.16553232997E+02  0.13874343591E+03  0.17285983675E+03  0.77000000000E+02 0.  0.
   -5000001    1    1    2    0    0 -0.66541510578E+02  0.16553232997E+02  0.21483393926E+03  0.23829478301E+03  0.77000000000E+02 0.  0.
<mgrwt>
<rscale>  0 0.20983603E+03</rscale>
<asrwt>0</asrwt>
<pdfrwt beam="1">  1        2 0.58825542E-01 0.20983603E+03</pdfrwt>
<pdfrwt beam="2">  1       -2 0.44290185E-02 0.20983603E+03</pdfrwt>
<totfact> 0.19217516E+04</totfact>
</mgrwt>
</event>
<event>
 4    1  0.1195463E-003  0.2215491E+03  0.7818608E-02  0.1132733E+00
          2   -1    0    0  501    0  0.00000000000E+00  0.00000000000E+00  0.86801546555E+03  0.86801546555E+03  0.25500000000E-02 0. -1.
         -2   -1    0    0    0  501 -0.00000000000E+00 -0.00000000000E+00 -0.14136845404E+02  0.14136845634E+02  0.25500000000E-02 0.  1.
    5000001    1    1    2    0    0 -0.77423910952E+02  0.14966562296E+02  0.38268267401E+03  0.39823798031E+03  0.77000000000E+02 0.  0.
   -5000001    1    1    2    0    0  0.77423910952E+02 -0.14966562296E+02  0.47119594614E+03  0.48391433088E+03  0.77000000000E+02 0.  0.
<mgrwt>
<rscale>  0 0.22154910E+03</rscale>
<asrwt>0</asrwt>
<pdfrwt beam="1">  1        2 0.13354081E+00 0.22154910E+03</pdfrwt>
<pdfrwt beam="2">  1       -2 0.21748997E-02 0.22154910E+03</pdfrwt>
<totfact> 0.21426442E+04</totfact>
</mgrwt>
</event>
<event>
 4    1  0.1195463E-003  0.2871074E+03  0.7818608E-02  0.1091869E+00
         -2   -1    0    0    0  501 -0.00000000000E+00  0.00000000000E+00  0.14762343167E+02  0.14762343387E+02  0.25500000000E-02 0. -1.
          2   -1    0    0  501    0  0.00000000000E+00 -0.00000000000E+00 -0.13959615102E+04  0.13959615103E+04  0.25500000000E-02 0.  1.
    5000001    1    1    2    0    0 -0.94501358642E+02 -0.75497432794E+02 -0.72474588505E+03  0.73879358893E+03  0.77000000000E+02 0.  0.
   -5000001    1    1    2    0    0  0.94501358642E+02  0.75497432794E+02 -0.65645328203E+03  0.67193026471E+03  0.77000000000E+02 0.  0.
<mgrwt>
<rscale>  0 0.28710739E+03</rscale>
<asrwt>0</asrwt>
<pdfrwt beam="1">  1        2 0.21476320E+00 0.28710739E+03</pdfrwt>
<pdfrwt beam="2">  1       -2 0.22711308E-02 0.28710739E+03</pdfrwt>
<totfact> 0.99604071E+03</totfact>
</mgrwt>
</event>
<event>
 4    1  0.1195463E-003  0.2198463E+03  0.7818608E-02  0.1133998E+00
          2   -1    0    0  501    0  0.00000000000E+00  0.00000000000E+00  0.78897767611E+02  0.78897767652E+02  0.25500000000E-02 0.  1.
         -2   -1    0    0    0  501 -0.00000000000E+00 -0.00000000000E+00 -0.15314877909E+03  0.15314877911E+03  0.25500000000E-02 0. -1.
    5000001    1    1    2    0    0  0.45037003672E+02  0.63179695079E+02 -0.49347896289E+02  0.11993423380E+03  0.77000000000E+02 0.  0.
   -5000001    1    1    2    0    0 -0.45037003672E+02 -0.63179695079E+02 -0.24903115185E+02  0.11211231295E+03  0.77000000000E+02 0.  0.
<mgrwt>
<rscale>  0 0.21984628E+03</rscale>
<asrwt>0</asrwt>
<pdfrwt beam="1">  1        2 0.12138118E-01 0.21984628E+03</pdfrwt>
<pdfrwt beam="2">  1       -2 0.23561351E-01 0.21984628E+03</pdfrwt>
<totfact> 0.77747922E+03</totfact>
</mgrwt>
</event>
<event>
 4    1  0.1195463E-003  0.2028536E+03  0.7818608E-02  0.1147353E+00
          2   -1    0    0  501    0  0.00000000000E+00  0.00000000000E+00  0.36590367189E+03  0.36590367190E+03  0.25500000000E-02 0.  1.
         -2   -1    0    0    0  501 -0.00000000000E+00 -0.00000000000E+00 -0.28115047929E+02  0.28115048045E+02  0.25500000000E-02 0. -1.
    5000001    1    1    2    0    0  0.59299879742E+02  0.28206121105E+02  0.18211652264E+03  0.20834463954E+03  0.77000000000E+02 0.  0.
   -5000001    1    1    2    0    0 -0.59299879742E+02 -0.28206121105E+02  0.15567210132E+03  0.18567408040E+03  0.77000000000E+02 0.  0.
<mgrwt>
<rscale>  0 0.20285363E+03</rscale>
<asrwt>0</asrwt>
<pdfrwt beam="1">  1        2 0.56292870E-01 0.20285363E+03</pdfrwt>
<pdfrwt beam="2">  1       -2 0.43253922E-02 0.20285363E+03</pdfrwt>
<totfact> 0.20829901E+04</totfact>
</mgrwt>
</event>
<event>
 4    1  0.1195463E-003  0.4201266E+03  0.7818608E-02  0.1037025E+00
         -2   -1    0    0    0  501 -0.00000000000E+00  0.00000000000E+00  0.18283925598E+02  0.18283925776E+02  0.25500000000E-02 0. -1.
          2   -1    0    0  501    0  0.00000000000E+00 -0.00000000000E+00 -0.24134085068E+04  0.24134085068E+04  0.25500000000E-02 0.  1.
    5000001    1    1    2    0    0  0.80406141692E+02  0.13300371328E+03 -0.18834450590E+04  0.18914146625E+04  0.77000000000E+02 0.  0.
   -5000001    1    1    2    0    0 -0.80406141692E+02 -0.13300371328E+03 -0.51167952226E+03  0.54027777011E+03  0.77000000000E+02 0.  0.
<mgrwt>
<rscale>  0 0.42012656E+03</rscale>
<asrwt>0</asrwt>
<pdfrwt beam="1">  1        2 0.37129337E+00 0.42012656E+03</pdfrwt>
<pdfrwt beam="2">  1       -2 0.28129135E-02 0.42012656E+03</pdfrwt>
<totfact> 0.20598235E+03</totfact>
</mgrwt>
</event>
<event>
 4    1  0.1195463E-003  0.2183944E+03  0.7818608E-02  0.1135086E+00
          2   -1    0    0  501    0  0.00000000000E+00  0.00000000000E+00  0.17913589877E+03  0.17913589879E+03  0.25500000000E-02 0.  1.
         -2   -1    0    0    0  501 -0.00000000000E+00 -0.00000000000E+00 -0.66564122806E+02  0.66564122855E+02  0.25500000000E-02 0. -1.
    5000001    1    1    2    0    0  0.31775203688E+02  0.60445381742E+02  0.97341225340E+02  0.14166023399E+03  0.77000000000E+02 0.  0.
   -5000001    1    1    2    0    0 -0.31775203688E+02 -0.60445381742E+02  0.15230550628E+02  0.10403978766E+03  0.77000000000E+02 0.  0.
<mgrwt>
<rscale>  0 0.21839436E+03</rscale>
<asrwt>0</asrwt>
<pdfrwt beam="1">  1        2 0.27559368E-01 0.21839436E+03</pdfrwt>
<pdfrwt beam="2">  1       -2 0.10240634E-01 0.21839436E+03</pdfrwt>
<totfact> 0.11997280E+04</totfact>
</mgrwt>
</event>
<event>
 4    1  0.1195463E-003  0.2476922E+03  0.7818608E-02  0.1114772E+00
         -2   -1    0    0    0  501 -0.00000000000E+00  0.00000000000E+00  0.16295241966E+02  0.16295242166E+02  0.25500000000E-02 0. -1.
          2   -1    0    0  501    0  0.00000000000E+00 -0.00000000000E+00 -0.94124723619E+03  0.94124723619E+03  0.25500000000E-02 0.  1.
    5000001    1    1    2    0    0 -0.19686983230E+02  0.49157979054E+02 -0.77665311433E+03  0.78225516566E+03  0.77000000000E+02 0.  0.
   -5000001    1    1    2    0    0  0.19686983230E+02 -0.49157979054E+02 -0.14829887989E+03  0.17528731269E+03  0.77000000000E+02 0.  0.
<mgrwt>
<rscale>  0 0.24769216E+03</rscale>
<asrwt>0</asrwt>
<pdfrwt beam="1">  1        2 0.14480722E+00 0.24769216E+03</pdfrwt>
<pdfrwt beam="2">  1       -2 0.25069611E-02 0.24769216E+03</pdfrwt>
<totfact> 0.15686849E+04</totfact>
</mgrwt>
</event>
<event>
 4    1  0.1195463E-003  0.4200416E+03  0.7818608E-02  0.1037053E+00
          2   -1    0    0  501    0  0.00000000000E+00  0.00000000000E+00  0.95178505749E+03  0.95178505750E+03  0.25500000000E-02 0.  1.
         -2   -1    0    0    0  501 -0.00000000000E+00 -0.00000000000E+00 -0.46343180202E+02  0.46343180272E+02  0.25500000000E-02 0. -1.
    5000001    1    1    2    0    0  0.94375165189E+02 -0.16367173855E+03  0.57116831174E+03  0.60651244846E+03  0.77000000000E+02 0.  0.
   -5000001    1    1    2    0    0 -0.94375165189E+02  0.16367173855E+03  0.33427356555E+03  0.39161578931E+03  0.77000000000E+02 0.  0.
<mgrwt>
<rscale>  0 0.42004165E+03</rscale>
<asrwt>0</asrwt>
<pdfrwt beam="1">  1        2 0.14642846E+00 0.42004165E+03</pdfrwt>
<pdfrwt beam="2">  1       -2 0.71297205E-02 0.42004165E+03</pdfrwt>
<totfact> 0.31996887E+03</totfact>
</mgrwt>
</event>
<event>
 4    1  0.1195463E-003  0.2190374E+03  0.7818608E-02  0.1134603E+00
         -2   -1    0    0    0  501 -0.00000000000E+00  0.00000000000E+00  0.15106646324E+03  0.15106646326E+03  0.25500000000E-02 0. -1.
          2   -1    0    0  501    0  0.00000000000E+00 -0.00000000000E+00 -0.79397814748E+02  0.79397814789E+02  0.25500000000E-02 0.  1.
    5000001    1    1    2    0    0  0.18086922151E+02 -0.75253408213E+02  0.26714088050E+02  0.11239597280E+03  0.77000000000E+02 0.  0.
   -5000001    1    1    2    0    0 -0.18086922151E+02  0.75253408213E+02  0.44954560440E+02  0.11806830525E+03  0.77000000000E+02 0.  0.
<mgrwt>
<rscale>  0 0.21903741E+03</rscale>
<asrwt>0</asrwt>
<pdfrwt beam="1">  1        2 0.12215048E-01 0.21903741E+03</pdfrwt>
<pdfrwt beam="2">  1       -2 0.23240994E-01 0.21903741E+03</pdfrwt>
<totfact> 0.79001036E+03</totfact>
</mgrwt>
</event>
<event>
 4    1  0.1195463E-003  0.2134617E+03  0.7818608E-02  0.1138854E+00
          2   -1    0    0  501    0  0.00000000000E+00  0.00000000000E+00  0.10054107020E+03  0.10054107023E+03  0.25500000000E-02 0.  1.
         -2   -1    0    0    0  501 -0.00000000000E+00 -0.00000000000E+00 -0.11330166221E+03  0.11330166224E+03  0.25500000000E-02 0. -1.
    5000001    1    1    2    0    0  0.31501248974E+02 -0.66807415452E+02 -0.37467372776E+01  0.10676421445E+03  0.77000000000E+02 0.  0.
   -5000001    1    1    2    0    0 -0.31501248974E+02  0.66807415452E+02 -0.90138547324E+01  0.10707851803E+03  0.77000000000E+02 0.  0.
<mgrwt>
<rscale>  0 0.21346166E+03</rscale>
<asrwt>0</asrwt>
<pdfrwt beam="1">  1        2 0.15467857E-01 0.21346166E+03</pdfrwt>
<pdfrwt beam="2">  1       -2 0.17431025E-01 0.21346166E+03</pdfrwt>
<totfact> 0.97231692E+03</totfact>
</mgrwt>
</event>
<event>
 4    1  0.1195463E-003  0.5243158E+03  0.7818608E-02  0.1007620E+00
         -2   -1    0    0    0  501 -0.00000000000E+00  0.00000000000E+00  0.11283400260E+04  0.11283400260E+04  0.25500000000E-02 0. -1.
          2   -1    0    0  501    0  0.00000000000E+00 -0.00000000000E+00 -0.60909632808E+02  0.60909632862E+02  0.25500000000E-02 0.  1.
    5000001    1    1    2    0    0 -0.22581814811E+03  0.10864151071E+03  0.53594084249E+03  0.59662249414E+03  0.77000000000E+02 0.  0.
   -5000001    1    1    2    0    0  0.22581814811E+03 -0.10864151071E+03  0.53148955071E+03  0.59262716473E+03  0.77000000000E+02 0.  0.
<mgrwt>
<rscale>  0 0.52431585E+03</rscale>
<asrwt>0</asrwt>
<pdfrwt beam="1">  1        2 0.93707135E-02 0.52431585E+03</pdfrwt>
<pdfrwt beam="2">  1       -2 0.17359076E+00 0.52431585E+03</pdfrwt>
<totfact> 0.14839096E+02</totfact>
</mgrwt>
</event>
<event>
 4    1  0.1195463E-003  0.2977616E+03  0.7818608E-02  0.1086365E+00
         -2   -1    0    0    0  501 -0.00000000000E+00  0.00000000000E+00  0.37469811750E+02  0.37469811837E+02  0.25500000000E-02 0. -1.
          2   -1    0    0  501    0  0.00000000000E+00 -0.00000000000E+00 -0.59155602497E+03  0.59155602498E+03  0.25500000000E-02 0.  1.
    5000001    1    1    2    0    0 -0.11680805064E+03 -0.21397253361E+02 -0.37464335001E+03  0.40048545897E+03  0.77000000000E+02 0.  0.
   -5000001    1    1    2    0    0  0.11680805064E+03  0.21397253361E+02 -0.17944286322E+03  0.22854037784E+03  0.77000000000E+02 0.  0.
<mgrwt>
<rscale>  0 0.29776160E+03</rscale>
<asrwt>0</asrwt>
<pdfrwt beam="1">  1        2 0.91008613E-01 0.29776160E+03</pdfrwt>
<pdfrwt beam="2">  1       -2 0.57645869E-02 0.29776160E+03</pdfrwt>
<totfact> 0.80669701E+03</totfact>
</mgrwt>
</event>
<event>
 4    1  0.1195463E-003  0.2256406E+03  0.7818608E-02  0.1129746E+00
          2   -1    0    0  501    0  0.00000000000E+00  0.00000000000E+00  0.66598338637E+02  0.66598338686E+02  0.25500000000E-02 0.  1.
         -2   -1    0    0    0  501 -0.00000000000E+00 -0.00000000000E+00 -0.19112222929E+03  0.19112222931E+03  0.25500000000E-02 0. -1.
    5000001    1    1    2    0    0  0.55717230660E+02  0.60428490965E+02 -0.69787350635E+02  0.13249636456E+03  0.77000000000E+02 0.  0.
   -5000001    1    1    2    0    0 -0.55717230660E+02 -0.60428490965E+02 -0.54736540020E+02  0.12522420344E+03  0.77000000000E+02 0.  0.
<mgrwt>
<rscale>  0 0.22564063E+03</rscale>
<asrwt>0</asrwt>
<pdfrwt beam="1">  1        2 0.10245898E-01 0.22564063E+03</pdfrwt>
<pdfrwt beam="2">  1       -2 0.29403420E-01 0.22564063E+03</pdfrwt>
<totfact> 0.64673713E+03</totfact>
</mgrwt>
</event>
<event>
 4    1  0.1195463E-003  0.3716702E+03  0.7818608E-02  0.1054056E+00
          2   -1    0    0  501    0  0.00000000000E+00  0.00000000000E+00  0.80682098941E+03  0.80682098942E+03  0.25500000000E-02 0.  1.
         -2   -1    0    0    0  501 -0.00000000000E+00 -0.00000000000E+00 -0.42803409506E+02  0.42803409582E+02  0.25500000000E-02 0. -1.
    5000001    1    1    2    0    0  0.62000259602E+02  0.55227343654E+02  0.45175432588E+02  0.12191764182E+03  0.77000000000E+02 0.  0.
   -5000001    1    1    2    0    0 -0.62000259602E+02 -0.55227343654E+02  0.71884214732E+03  0.72770675718E+03  0.77000000000E+02 0.  0.
<mgrwt>
<rscale>  0 0.37167023E+03</rscale>
<asrwt>0</asrwt>
<pdfrwt beam="1">  1        2 0.12412631E+00 0.37167023E+03</pdfrwt>
<pdfrwt beam="2">  1       -2 0.65851398E-02 0.37167023E+03</pdfrwt>
<totfact> 0.45186159E+03</totfact>
</mgrwt>
</event>
<event>
 4    1  0.1195463E-003  0.1869201E+03  0.7818608E-02  0.1161269E+00
         -2   -1    0    0    0  501 -0.00000000000E+00  0.00000000000E+00  0.67059799275E+01  0.67059804124E+01  0.25500000000E-02 0. -1.
          2   -1    0    0  501    0  0.00000000000E+00 -0.00000000000E+00 -0.13025367340E+04  0.13025367340E+04  0.25500000000E-02 0.  1.
    5000001    1    1    2    0    0  0.15525386021E+02 -0.40204969215E+02 -0.86360975984E+03  0.86810615391E+03  0.77000000000E+02 0.  0.
   -5000001    1    1    2    0    0 -0.15525386021E+02  0.40204969215E+02 -0.43222099420E+03  0.44113656047E+03  0.77000000000E+02 0.  0.
<mgrwt>
<rscale>  0 0.18692015E+03</rscale>
<asrwt>0</asrwt>
<pdfrwt beam="1">  1        2 0.20039007E+00 0.18692015E+03</pdfrwt>
<pdfrwt beam="2">  1       -2 0.10316903E-02 0.18692015E+03</pdfrwt>
<totfact> 0.34750947E+04</totfact>
</mgrwt>
</event>
<event>
 4    1  0.1195463E-003  0.1837727E+03  0.7818608E-02  0.1164201E+00
         -2   -1    0    0    0  501 -0.00000000000E+00  0.00000000000E+00  0.32453007052E+03  0.32453007053E+03  0.25500000000E-02 0. -1.
          2   -1    0    0  501    0  0.00000000000E+00 -0.00000000000E+00 -0.26016397887E+02  0.26016398012E+02  0.25500000000E-02 0.  1.
    5000001    1    1    2    0    0 -0.49965482835E+02 -0.24461855375E+00  0.15723514772E+03  0.18206729798E+03  0.77000000000E+02 0.  0.
   -5000001    1    1    2    0    0  0.49965482835E+02  0.24461855375E+00  0.14127852491E+03  0.16847917056E+03  0.77000000000E+02 0.  0.
<mgrwt>
<rscale>  0 0.18377272E+03</rscale>
<asrwt>0</asrwt>
<pdfrwt beam="1">  1        2 0.40025228E-02 0.18377272E+03</pdfrwt>
<pdfrwt beam="2">  1       -2 0.49927702E-01 0.18377272E+03</pdfrwt>
<totfact> 0.78783596E+03</totfact>
</mgrwt>
</event>
<event>
 4    1  0.1195463E-003  0.2836064E+03  0.7818608E-02  0.1093735E+00
          2   -1    0    0  501    0  0.00000000000E+00  0.00000000000E+00  0.17542440770E+04  0.17542440770E+04  0.25500000000E-02 0.  1.
         -2   -1    0    0    0  501 -0.00000000000E+00 -0.00000000000E+00 -0.11462573627E+02  0.11462573910E+02  0.25500000000E-02 0. -1.
    5000001    1    1    2    0    0 -0.54768704001E+02 -0.86940367284E+02  0.12460285267E+04  0.12526269707E+04  0.77000000000E+02 0.  0.
   -5000001    1    1    2    0    0  0.54768704001E+02  0.86940367284E+02  0.49675297665E+03  0.51307968018E+03  0.77000000000E+02 0.  0.
<mgrwt>
<rscale>  0 0.28360643E+03</rscale>
<asrwt>0</asrwt>
<pdfrwt beam="1">  1        2 0.26988392E+00 0.28360643E+03</pdfrwt>
<pdfrwt beam="2">  1       -2 0.17634715E-02 0.28360643E+03</pdfrwt>
<totfact> 0.93124952E+03</totfact>
</mgrwt>
</event>
<event>
 4    1  0.1195463E-003  0.2048369E+03  0.7818608E-02  0.1145721E+00
          2   -1    0    0  501    0  0.00000000000E+00  0.00000000000E+00  0.56271756447E+03  0.56271756447E+03  0.25500000000E-02 0.  1.
         -2   -1    0    0    0  501 -0.00000000000E+00 -0.00000000000E+00 -0.18640855487E+02  0.18640855661E+02  0.25500000000E-02 0. -1.
    5000001    1    1    2    0    0 -0.35793043147E+02 -0.15789412941E+02  0.42826803063E+03  0.43689009322E+03  0.77000000000E+02 0.  0.
   -5000001    1    1    2    0    0  0.35793043147E+02  0.15789412941E+02  0.11580867836E+03  0.14446832691E+03  0.77000000000E+02 0.  0.
<mgrwt>
<rscale>  0 0.20483688E+03</rscale>
<asrwt>0</asrwt>
<pdfrwt beam="1">  1        2 0.86571920E-01 0.20483688E+03</pdfrwt>
<pdfrwt beam="2">  1       -2 0.28678244E-02 0.20483688E+03</pdfrwt>
<totfact> 0.23965676E+04</totfact>
</mgrwt>
</event>
<event>
 4    1  0.1195463E-003  0.3608593E+03  0.7818608E-02  0.1058244E+00
          2   -1    0    0  501    0  0.00000000000E+00  0.00000000000E+00  0.11614997913E+04  0.11614997913E+04  0.25500000000E-02 0.  1.
         -2   -1    0    0    0  501 -0.00000000000E+00 -0.00000000000E+00 -0.28028289224E+02  0.28028289340E+02  0.25500000000E-02 0. -1.
    5000001    1    1    2    0    0 -0.90580838832E+01 -0.16234286336E+03  0.61200521644E+03  0.63790017959E+03  0.77000000000E+02 0.  0.
   -5000001    1    1    2    0    0  0.90580838832E+01  0.16234286336E+03  0.52146628565E+03  0.55162790107E+03  0.77000000000E+02 0.  0.
<mgrwt>
<rscale>  0 0.36085926E+03</rscale>
<asrwt>0</asrwt>
<pdfrwt beam="1">  1        2 0.17869227E+00 0.36085926E+03</pdfrwt>
<pdfrwt beam="2">  1       -2 0.43120447E-02 0.36085926E+03</pdfrwt>
<totfact> 0.51786510E+03</totfact>
</mgrwt>
</event>
<event>
 4    1  0.1195463E-003  0.5942148E+03  0.7818608E-02  0.9917482E-01
          2   -1    0    0  501    0  0.00000000000E+00  0.00000000000E+00  0.12004807289E+04  0.12004807289E+04  0.25500000000E-02 0.  1.
         -2   -1    0    0    0  501 -0.00000000000E+00 -0.00000000000E+00 -0.73531215795E+02  0.73531215839E+02  0.25500000000E-02 0. -1.
    5000001    1    1    2    0    0 -0.23208423620E+03 -0.16872629645E+03  0.55600081710E+03  0.63039476871E+03  0.77000000000E+02 0.  0.
   -5000001    1    1    2    0    0  0.23208423620E+03  0.16872629645E+03  0.57094869597E+03  0.64361717600E+03  0.77000000000E+02 0.  0.
<mgrwt>
<rscale>  0 0.59421480E+03</rscale>
<asrwt>0</asrwt>
<pdfrwt beam="1">  1        2 0.18468934E+00 0.59421480E+03</pdfrwt>
<pdfrwt beam="2">  1       -2 0.11312495E-01 0.59421480E+03</pdfrwt>
<totfact> 0.10743426E+03</totfact>
</mgrwt>
</event>
<event>
 4    1  0.1195463E-003  0.2605440E+03  0.7818608E-02  0.1106817E+00
         -2   -1    0    0    0  501 -0.00000000000E+00  0.00000000000E+00  0.92675504695E+02  0.92675504730E+02  0.25500000000E-02 0. -1.
          2   -1    0    0  501    0  0.00000000000E+00 -0.00000000000E+00 -0.18312053052E+03  0.18312053054E+03  0.25500000000E-02 0.  1.
    5000001    1    1    2    0    0  0.60682228862E+02 -0.73650306765E+02  0.13422367551E+01  0.12262749360E+03  0.77000000000E+02 0.  0.
   -5000001    1    1    2    0    0 -0.60682228862E+02  0.73650306765E+02 -0.91787262585E+02  0.15316854168E+03  0.77000000000E+02 0.  0.
<mgrwt>
<rscale>  0 0.26054395E+03</rscale>
<asrwt>0</asrwt>
<pdfrwt beam="1">  1        2 0.28172389E-01 0.26054395E+03</pdfrwt>
<pdfrwt beam="2">  1       -2 0.14257770E-01 0.26054395E+03</pdfrwt>
<totfact> 0.69275585E+03</totfact>
</mgrwt>
</event>
<event>
 4    1  0.1195463E-003  0.2628856E+03  0.7818608E-02  0.1105422E+00
         -2   -1    0    0    0  501 -0.00000000000E+00  0.00000000000E+00  0.22535077379E+02  0.22535077523E+02  0.25500000000E-02 0. -1.
          2   -1    0    0  501    0  0.00000000000E+00 -0.00000000000E+00 -0.76668081945E+03  0.76668081945E+03  0.25500000000E-02 0.  1.
    5000001    1    1    2    0    0  0.62207749758E+02 -0.82882128419E+02 -0.29798902928E+03  0.32475485049E+03  0.77000000000E+02 0.  0.
   -5000001    1    1    2    0    0 -0.62207749758E+02  0.82882128419E+02 -0.44615671279E+03  0.46446104649E+03  0.77000000000E+02 0.  0.
<mgrwt>
<rscale>  0 0.26288562E+03</rscale>
<asrwt>0</asrwt>
<pdfrwt beam="1">  1        2 0.11795088E+00 0.26288562E+03</pdfrwt>
<pdfrwt beam="2">  1       -2 0.34669356E-02 0.26288562E+03</pdfrwt>
<totfact> 0.12693106E+04</totfact>
</mgrwt>
</event>
<event>
 4    1  0.1195463E-003  0.2018973E+03  0.7818608E-02  0.1148148E+00
          2   -1    0    0  501    0  0.00000000000E+00  0.00000000000E+00  0.14251770833E+04  0.14251770833E+04  0.25500000000E-02 0.  1.
         -2   -1    0    0    0  501 -0.00000000000E+00 -0.00000000000E+00 -0.71504279854E+01  0.71504284401E+01  0.25500000000E-02 0. -1.
    5000001    1    1    2    0    0 -0.10053750756E+01  0.61463943575E+02  0.55313160074E+03  0.56183840637E+03  0.77000000000E+02 0.  0.
   -5000001    1    1    2    0    0  0.10053750756E+01 -0.61463943575E+02  0.86489505459E+03  0.87048910539E+03  0.77000000000E+02 0.  0.
<mgrwt>
<rscale>  0 0.20189727E+03</rscale>
<asrwt>0</asrwt>
<pdfrwt beam="1">  1        2 0.21925805E+00 0.20189727E+03</pdfrwt>
<pdfrwt beam="2">  1       -2 0.11000657E-02 0.20189727E+03</pdfrwt>
<totfact> 0.27325371E+04</totfact>
</mgrwt>
</event>
<event>
 4    1  0.1195463E-003  0.3541169E+03  0.7818608E-02  0.1060938E+00
         -2   -1    0    0    0  501 -0.00000000000E+00  0.00000000000E+00  0.17002265723E+02  0.17002265914E+02  0.25500000000E-02 0. -1.
          2   -1    0    0  501    0  0.00000000000E+00 -0.00000000000E+00 -0.18438535131E+04  0.18438535131E+04  0.25500000000E-02 0.  1.
    5000001    1    1    2    0    0 -0.69128715552E+02  0.14367291797E+03 -0.91326881396E+03  0.93027394526E+03  0.77000000000E+02 0.  0.
   -5000001    1    1    2    0    0  0.69128715552E+02 -0.14367291797E+03 -0.91358243341E+03  0.93058183375E+03  0.77000000000E+02 0.  0.
<mgrwt>
<rscale>  0 0.35411686E+03</rscale>
<asrwt>0</asrwt>
<pdfrwt beam="1">  1        2 0.28366961E+00 0.35411686E+03</pdfrwt>
<pdfrwt beam="2">  1       -2 0.26157347E-02 0.35411686E+03</pdfrwt>
<totfact> 0.46626763E+03</totfact>
</mgrwt>
</event>
<event>
 4    1  0.1195463E-003  0.2745804E+03  0.7818608E-02  0.1098686E+00
          2   -1    0    0  501    0  0.00000000000E+00  0.00000000000E+00  0.19877753078E+03  0.19877753079E+03  0.25500000000E-02 0.  1.
         -2   -1    0    0    0  501 -0.00000000000E+00 -0.00000000000E+00 -0.94822579395E+02  0.94822579429E+02  0.25500000000E-02 0. -1.
    5000001    1    1    2    0    0 -0.28026962961E+02 -0.81913430718E+02 -0.26773807083E+02  0.11891659905E+03  0.77000000000E+02 0.  0.
   -5000001    1    1    2    0    0  0.28026962961E+02  0.81913430718E+02  0.13072875847E+03  0.17468351117E+03  0.77000000000E+02 0.  0.
<mgrwt>
<rscale>  0 0.27458039E+03</rscale>
<asrwt>0</asrwt>
<pdfrwt beam="1">  1        2 0.30581159E-01 0.27458039E+03</pdfrwt>
<pdfrwt beam="2">  1       -2 0.14588089E-01 0.27458039E+03</pdfrwt>
<totfact> 0.61087118E+03</totfact>
</mgrwt>
</event>
<event>
 4    1  0.1195463E-003  0.2249225E+03  0.7818608E-02  0.1130265E+00
         -2   -1    0    0    0  501 -0.00000000000E+00  0.00000000000E+00  0.10623679939E+02  0.10623680245E+02  0.25500000000E-02 0. -1.
          2   -1    0    0  501    0  0.00000000000E+00 -0.00000000000E+00 -0.11905040267E+04  0.11905040267E+04  0.25500000000E-02 0.  1.
    5000001    1    1    2    0    0  0.34457796290E+02 -0.68444945727E+02 -0.74530959174E+03  0.75318486300E+03  0.77000000000E+02 0.  0.
   -5000001    1    1    2    0    0 -0.34457796290E+02  0.68444945727E+02 -0.43457075505E+03  0.44794284397E+03  0.77000000000E+02 0.  0.
<mgrwt>
<rscale>  0 0.22492251E+03</rscale>
<asrwt>0</asrwt>
<pdfrwt beam="1">  1        2 0.18315436E+00 0.22492251E+03</pdfrwt>
<pdfrwt beam="2">  1       -2 0.16344133E-02 0.22492251E+03</pdfrwt>
<totfact> 0.20807212E+04</totfact>
</mgrwt>
</event>
