<event>
 4    1  0.1399921E-004  0.2949294E+03  0.7818608E-02  0.1087803E+00
         -2   -1    0    0    0  501 -0.00000000000E+00  0.00000000000E+00  0.32892760401E+03  0.32892760402E+03  0.25500000000E-02 0. -1.
          2   -1    0    0  501    0  0.00000000000E+00 -0.00000000000E+00 -0.66111307386E+02  0.66111307435E+02  0.25500000000E-02 0.  1.
    5000001    1    1    2    0    0 -0.49563857846E+02  0.10291242884E+02  0.20543360985E+03  0.24676801604E+03  0.12700000000E+03 0.  0.
   -5000001    1    1    2    0    0  0.49563857846E+02 -0.10291242884E+02  0.57382686770E+02  0.14827089541E+03  0.12700000000E+03 0.  0.
<mgrwt>
<rscale>  0 0.29492937E+03</rscale>
<asrwt>0</asrwt>
<pdfrwt beam="1">  1        2 0.94444723E-02 0.29492937E+03</pdfrwt>
<pdfrwt beam="2">  1       -2 0.46989659E-01 0.29492937E+03</pdfrwt>
<totfact> 0.29918159E+03</totfact>
</mgrwt>
</event>
<event>
 4    1  0.1399921E-004  0.8291879E+03  0.7818608E-02  0.9518704E-01
         -2   -1    0    0    0  501 -0.00000000000E+00  0.00000000000E+00  0.75734758425E+03  0.75734758425E+03  0.25500000000E-02 0.  1.
          2   -1    0    0  501    0  0.00000000000E+00 -0.00000000000E+00 -0.22696068331E+03  0.22696068332E+03  0.25500000000E-02 0. -1.
    5000001    1    1    2    0    0 -0.34343961200E+03 -0.29696244351E+02  0.49330497191E+03  0.61507026373E+03  0.12700000000E+03 0.  0.
   -5000001    1    1    2    0    0  0.34343961200E+03  0.29696244351E+02  0.37081929030E+02  0.36923800384E+03  0.12700000000E+03 0.  0.
<mgrwt>
<rscale>  0 0.82918786E+03</rscale>
<asrwt>0</asrwt>
<pdfrwt beam="1">  1        2 0.32422955E-01 0.82918786E+03</pdfrwt>
<pdfrwt beam="2">  1       -2 0.10819251E+00 0.82918786E+03</pdfrwt>
<totfact> 0.11217807E+02</totfact>
</mgrwt>
</event>
<event>
 4    1  0.1399921E-004  0.3557888E+03  0.7818608E-02  0.1060264E+00
          2   -1    0    0  501    0  0.00000000000E+00  0.00000000000E+00  0.61807180252E+03  0.61807180252E+03  0.25500000000E-02 0.  1.
         -2   -1    0    0    0  501 -0.00000000000E+00 -0.00000000000E+00 -0.51201845899E+02  0.51201845962E+02  0.25500000000E-02 0. -1.
    5000001    1    1    2    0    0  0.53680266838E+02  0.10831491496E+03  0.33998459816E+03  0.38253394469E+03  0.12700000000E+03 0.  0.
   -5000001    1    1    2    0    0 -0.53680266838E+02 -0.10831491496E+03  0.22688535846E+03  0.28673970380E+03  0.12700000000E+03 0.  0.
<mgrwt>
<rscale>  0 0.35578880E+03</rscale>
<asrwt>0</asrwt>
<pdfrwt beam="1">  1        2 0.88295970E-01 0.35578880E+03</pdfrwt>
<pdfrwt beam="2">  1       -2 0.73145496E-02 0.35578880E+03</pdfrwt>
<totfact> 0.58121544E+03</totfact>
</mgrwt>
</event>
<event>
 4    1  0.1399921E-004  0.3246803E+03  0.7818608E-02  0.1073515E+00
         -2   -1    0    0    0  501 -0.00000000000E+00  0.00000000000E+00  0.15395916256E+02  0.15395916467E+02  0.25500000000E-02 0. -1.
          2   -1    0    0  501    0  0.00000000000E+00 -0.00000000000E+00 -0.17117738540E+04  0.17117738540E+04  0.25500000000E-02 0.  1.
    5000001    1    1    2    0    0  0.99946308014E+00  0.52343281502E+02 -0.38797401579E+03  0.41157460438E+03  0.12700000000E+03 0.  0.
   -5000001    1    1    2    0    0 -0.99946308014E+00 -0.52343281502E+02 -0.13084039220E+04  0.13155951661E+04  0.12700000000E+03 0.  0.
<mgrwt>
<rscale>  0 0.32468032E+03</rscale>
<asrwt>0</asrwt>
<pdfrwt beam="1">  1        2 0.24453900E+00 0.32468032E+03</pdfrwt>
<pdfrwt beam="2">  1       -2 0.21994177E-02 0.32468032E+03</pdfrwt>
<totfact> 0.82376453E+03</totfact>
</mgrwt>
</event>
<event>
 4    1  0.1399921E-004  0.3014641E+03  0.7818608E-02  0.1084511E+00
          2   -1    0    0  501    0  0.00000000000E+00  0.00000000000E+00  0.19301082443E+03  0.19301082445E+03  0.25500000000E-02 0.  1.
         -2   -1    0    0    0  501 -0.00000000000E+00 -0.00000000000E+00 -0.11771439771E+03  0.11771439774E+03  0.25500000000E-02 0. -1.
    5000001    1    1    2    0    0  0.25702145412E+02  0.64584483927E+02 -0.55855283572E+01  0.14488600336E+03  0.12700000000E+03 0.  0.
   -5000001    1    1    2    0    0 -0.25702145412E+02 -0.64584483927E+02  0.80881955083E+02  0.16583921883E+03  0.12700000000E+03 0.  0.
<mgrwt>
<rscale>  0 0.30146411E+03</rscale>
<asrwt>0</asrwt>
<pdfrwt beam="1">  1        2 0.27572975E-01 0.30146411E+03</pdfrwt>
<pdfrwt beam="2">  1       -2 0.16816343E-01 0.30146411E+03</pdfrwt>
<totfact> 0.54295511E+03</totfact>
</mgrwt>
</event>
<event>
 4    1  0.1399921E-004  0.3951126E+03  0.7818608E-02  0.1045485E+00
          2   -1    0    0  501    0  0.00000000000E+00  0.00000000000E+00  0.13269295840E+04  0.13269295840E+04  0.25500000000E-02 0.  1.
         -2   -1    0    0    0  501 -0.00000000000E+00 -0.00000000000E+00 -0.29412638933E+02  0.29412639043E+02  0.25500000000E-02 0. -1.
    5000001    1    1    2    0    0 -0.34168926190E+02  0.14628212186E+03  0.71145063971E+03  0.73814428632E+03  0.12700000000E+03 0.  0.
   -5000001    1    1    2    0    0  0.34168926190E+02 -0.14628212186E+03  0.58606630540E+03  0.61819793676E+03  0.12700000000E+03 0.  0.
<mgrwt>
<rscale>  0 0.39511265E+03</rscale>
<asrwt>0</asrwt>
<pdfrwt beam="1">  1        2 0.18956144E+00 0.39511265E+03</pdfrwt>
<pdfrwt beam="2">  1       -2 0.42018039E-02 0.39511265E+03</pdfrwt>
<totfact> 0.49108633E+03</totfact>
</mgrwt>
</event>
<event>
 4    1  0.1399921E-004  0.2749314E+03  0.7818608E-02  0.1098490E+00
          2   -1    0    0  501    0  0.00000000000E+00  0.00000000000E+00  0.91326138166E+03  0.91326138166E+03  0.25500000000E-02 0.  1.
         -2   -1    0    0    0  501 -0.00000000000E+00 -0.00000000000E+00 -0.20691571228E+02  0.20691571385E+02  0.25500000000E-02 0. -1.
    5000001    1    1    2    0    0 -0.16194106560E+02  0.44323870480E+02  0.52529501487E+03  0.54248567468E+03  0.12700000000E+03 0.  0.
   -5000001    1    1    2    0    0  0.16194106560E+02 -0.44323870480E+02  0.36727479556E+03  0.39146727837E+03  0.12700000000E+03 0.  0.
<mgrwt>
<rscale>  0 0.27493136E+03</rscale>
<asrwt>0</asrwt>
<pdfrwt beam="1">  1        2 0.13046595E+00 0.27493136E+03</pdfrwt>
<pdfrwt beam="2">  1       -2 0.29559378E-02 0.27493136E+03</pdfrwt>
<totfact> 0.14193755E+04</totfact>
</mgrwt>
</event>
<event>
 4    1  0.1399921E-004  0.5834522E+03  0.7818608E-02  0.9940345E-01
          2   -1    0    0  501    0  0.00000000000E+00  0.00000000000E+00  0.34703533287E+03  0.34703533288E+03  0.25500000000E-02 0.  1.
         -2   -1    0    0    0  501 -0.00000000000E+00 -0.00000000000E+00 -0.24523187514E+03  0.24523187515E+03  0.25500000000E-02 0. -1.
    5000001    1    1    2    0    0  0.24993550500E+03  0.12927912273E+02 -0.29926890523E+02  0.28224015723E+03  0.12700000000E+03 0.  0.
   -5000001    1    1    2    0    0 -0.24993550500E+03 -0.12927912273E+02  0.13173034825E+03  0.31002705080E+03  0.12700000000E+03 0.  0.
<mgrwt>
<rscale>  0 0.58345223E+03</rscale>
<asrwt>0</asrwt>
<pdfrwt beam="1">  1        2 0.49576476E-01 0.58345223E+03</pdfrwt>
<pdfrwt beam="2">  1       -2 0.35033125E-01 0.58345223E+03</pdfrwt>
<totfact> 0.77859871E+02</totfact>
</mgrwt>
</event>
<event>
 4    1  0.1399921E-004  0.3303584E+03  0.7818608E-02  0.1070978E+00
         -2   -1    0    0    0  501 -0.00000000000E+00  0.00000000000E+00  0.36619585524E+03  0.36619585525E+03  0.25500000000E-02 0. -1.
          2   -1    0    0  501    0  0.00000000000E+00 -0.00000000000E+00 -0.74507034044E+02  0.74507034088E+02  0.25500000000E-02 0.  1.
    5000001    1    1    2    0    0  0.81282469132E+02  0.66214408188E+02  0.12876176102E+03  0.20904492039E+03  0.12700000000E+03 0.  0.
   -5000001    1    1    2    0    0 -0.81282469132E+02 -0.66214408188E+02  0.16292706018E+03  0.23165796895E+03  0.12700000000E+03 0.  0.
<mgrwt>
<rscale>  0 0.33035839E+03</rscale>
<asrwt>0</asrwt>
<pdfrwt beam="1">  1        2 0.10643862E-01 0.33035839E+03</pdfrwt>
<pdfrwt beam="2">  1       -2 0.52313694E-01 0.33035839E+03</pdfrwt>
<totfact> 0.20862121E+03</totfact>
</mgrwt>
</event>
<event>
 4    1  0.1399921E-004  0.4155277E+03  0.7818608E-02  0.1038532E+00
         -2   -1    0    0    0  501 -0.00000000000E+00  0.00000000000E+00  0.17124820361E+02  0.17124820551E+02  0.25500000000E-02 0. -1.
          2   -1    0    0  501    0  0.00000000000E+00 -0.00000000000E+00 -0.25206581503E+04  0.25206581503E+04  0.25500000000E-02 0.  1.
    5000001    1    1    2    0    0  0.13169125251E+03  0.74306346816E+02 -0.16462859450E+04  0.16580863764E+04  0.12700000000E+03 0.  0.
   -5000001    1    1    2    0    0 -0.13169125251E+03 -0.74306346816E+02 -0.85724738501E+03  0.87969659444E+03  0.12700000000E+03 0.  0.
<mgrwt>
<rscale>  0 0.41552770E+03</rscale>
<asrwt>0</asrwt>
<pdfrwt beam="1">  1        2 0.36009378E+00 0.41552770E+03</pdfrwt>
<pdfrwt beam="2">  1       -2 0.24464045E-02 0.41552770E+03</pdfrwt>
<totfact> 0.27855922E+03</totfact>
</mgrwt>
</event>
<event>
 4    1  0.1399921E-004  0.3221563E+03  0.7818608E-02  0.1074661E+00
          2   -1    0    0  501    0  0.00000000000E+00  0.00000000000E+00  0.18744810059E+04  0.18744810059E+04  0.25500000000E-02 0.  1.
         -2   -1    0    0    0  501 -0.00000000000E+00 -0.00000000000E+00 -0.13841787932E+02  0.13841788166E+02  0.25500000000E-02 0. -1.
    5000001    1    1    2    0    0  0.43952554535E+02  0.18536927523E+01  0.14507051653E+04  0.14569178905E+04  0.12700000000E+03 0.  0.
   -5000001    1    1    2    0    0 -0.43952554535E+02 -0.18536927523E+01  0.40993405266E+03  0.43140490349E+03  0.12700000000E+03 0.  0.
<mgrwt>
<rscale>  0 0.32215629E+03</rscale>
<asrwt>0</asrwt>
<pdfrwt beam="1">  1        2 0.26778326E+00 0.32215629E+03</pdfrwt>
<pdfrwt beam="2">  1       -2 0.19773964E-02 0.32215629E+03</pdfrwt>
<totfact> 0.80145033E+03</totfact>
</mgrwt>
</event>
<event>
 4    1  0.1399921E-004  0.3803642E+03  0.7818608E-02  0.1050799E+00
          2   -1    0    0  501    0  0.00000000000E+00  0.00000000000E+00  0.85669778061E+03  0.85669778061E+03  0.25500000000E-02 0.  1.
         -2   -1    0    0    0  501 -0.00000000000E+00 -0.00000000000E+00 -0.42219367531E+02  0.42219367608E+02  0.25500000000E-02 0. -1.
    5000001    1    1    2    0    0  0.28663128630E+02 -0.11120929716E+03  0.60285409589E+03  0.62669860671E+03  0.12700000000E+03 0.  0.
   -5000001    1    1    2    0    0 -0.28663128630E+02  0.11120929716E+03  0.21162431719E+03  0.27221854152E+03  0.12700000000E+03 0.  0.
<mgrwt>
<rscale>  0 0.38036424E+03</rscale>
<asrwt>0</asrwt>
<pdfrwt beam="1">  1        2 0.12238540E+00 0.38036424E+03</pdfrwt>
<pdfrwt beam="2">  1       -2 0.60313381E-02 0.38036424E+03</pdfrwt>
<totfact> 0.52793002E+03</totfact>
</mgrwt>
</event>
<event>
 4    1  0.1399921E-004  0.3049721E+03  0.7818608E-02  0.1082781E+00
         -2   -1    0    0    0  501 -0.00000000000E+00  0.00000000000E+00  0.40596889463E+02  0.40596889543E+02  0.25500000000E-02 0. -1.
          2   -1    0    0  501    0  0.00000000000E+00 -0.00000000000E+00 -0.57275331152E+03  0.57275331152E+03  0.25500000000E-02 0.  1.
    5000001    1    1    2    0    0 -0.14898438002E+02  0.38197646929E+02 -0.11771481303E+03  0.17795168134E+03  0.12700000000E+03 0.  0.
   -5000001    1    1    2    0    0  0.14898438002E+02 -0.38197646929E+02 -0.41444160903E+03  0.43539851973E+03  0.12700000000E+03 0.  0.
<mgrwt>
<rscale>  0 0.30497215E+03</rscale>
<asrwt>0</asrwt>
<pdfrwt beam="1">  1        2 0.81821897E-01 0.30497215E+03</pdfrwt>
<pdfrwt beam="2">  1       -2 0.57995560E-02 0.30497215E+03</pdfrwt>
<totfact> 0.90466549E+03</totfact>
</mgrwt>
</event>
<event>
 4    1  0.1399921E-004  0.6603217E+03  0.7818608E-02  0.9787602E-01
          2   -1    0    0  501    0  0.00000000000E+00  0.00000000000E+00  0.12171309275E+04  0.12171309275E+04  0.25500000000E-02 0.  1.
         -2   -1    0    0    0  501 -0.00000000000E+00 -0.00000000000E+00 -0.89559949056E+02  0.89559949092E+02  0.25500000000E-02 0. -1.
    5000001    1    1    2    0    0 -0.21155501066E+03 -0.13655257009E+03  0.90352387704E+03  0.94651282258E+03  0.12700000000E+03 0.  0.
   -5000001    1    1    2    0    0  0.21155501066E+03  0.13655257009E+03  0.22404710136E+03  0.36017805397E+03  0.12700000000E+03 0.  0.
<mgrwt>
<rscale>  0 0.66032169E+03</rscale>
<asrwt>0</asrwt>
<pdfrwt beam="1">  1        2 0.17387583E+00 0.66032169E+03</pdfrwt>
<pdfrwt beam="2">  1       -2 0.12794279E-01 0.66032169E+03</pdfrwt>
<totfact> 0.96352551E+02</totfact>
</mgrwt>
</event>
<event>
 4    1  0.1399921E-004  0.4271805E+03  0.7818608E-02  0.1034754E+00
          2   -1    0    0  501    0  0.00000000000E+00  0.00000000000E+00  0.10221915939E+04  0.10221915939E+04  0.25500000000E-02 0.  1.
         -2   -1    0    0    0  501 -0.00000000000E+00 -0.00000000000E+00 -0.44630365411E+02  0.44630365484E+02  0.25500000000E-02 0. -1.
    5000001    1    1    2    0    0 -0.17101453153E+03  0.48699929558E+01  0.45156266146E+03  0.49930704386E+03  0.12700000000E+03 0.  0.
   -5000001    1    1    2    0    0  0.17101453153E+03 -0.48699929558E+01  0.52599856699E+03  0.56751491549E+03  0.12700000000E+03 0.  0.
<mgrwt>
<rscale>  0 0.42718045E+03</rscale>
<asrwt>0</asrwt>
<pdfrwt beam="1">  1        2 0.14602737E+00 0.42718045E+03</pdfrwt>
<pdfrwt beam="2">  1       -2 0.63757666E-02 0.42718045E+03</pdfrwt>
<totfact> 0.38274469E+03</totfact>
</mgrwt>
</event>
<event>
 4    1  0.1399921E-004  0.3648100E+03  0.7818608E-02  0.1056695E+00
          2   -1    0    0  501    0  0.00000000000E+00  0.00000000000E+00  0.13245919401E+04  0.13245919401E+04  0.25500000000E-02 0.  1.
         -2   -1    0    0    0  501 -0.00000000000E+00 -0.00000000000E+00 -0.25118366696E+02  0.25118366825E+02  0.25500000000E-02 0. -1.
    5000001    1    1    2    0    0 -0.68799410596E+02  0.15258195018E+02  0.10579936854E+04  0.10679165743E+04  0.12700000000E+03 0.  0.
   -5000001    1    1    2    0    0  0.68799410596E+02 -0.15258195018E+02  0.24147988802E+03  0.28179373260E+03  0.12700000000E+03 0.  0.
<mgrwt>
<rscale>  0 0.36481001E+03</rscale>
<asrwt>0</asrwt>
<pdfrwt beam="1">  1        2 0.18922747E+00 0.36481001E+03</pdfrwt>
<pdfrwt beam="2">  1       -2 0.35883371E-02 0.36481001E+03</pdfrwt>
<totfact> 0.62513542E+03</totfact>
</mgrwt>
</event>
<event>
 4    1  0.1399921E-004  0.4539265E+03  0.7818608E-02  0.1026558E+00
         -2   -1    0    0    0  501 -0.00000000000E+00  0.00000000000E+00  0.25928342950E+02  0.25928343075E+02  0.25500000000E-02 0. -1.
          2   -1    0    0  501    0  0.00000000000E+00 -0.00000000000E+00 -0.19867185110E+04  0.19867185110E+04  0.25500000000E-02 0.  1.
    5000001    1    1    2    0    0  0.11189252290E+03  0.99149775949E+02 -0.14865684652E+04  0.14994550398E+04  0.12700000000E+03 0.  0.
   -5000001    1    1    2    0    0 -0.11189252290E+03 -0.99149775949E+02 -0.47422170283E+03  0.51319181422E+03  0.12700000000E+03 0.  0.
<mgrwt>
<rscale>  0 0.45392651E+03</rscale>
<asrwt>0</asrwt>
<pdfrwt beam="1">  1        2 0.28381683E+00 0.45392651E+03</pdfrwt>
<pdfrwt beam="2">  1       -2 0.37040503E-02 0.45392651E+03</pdfrwt>
<totfact> 0.27514012E+03</totfact>
</mgrwt>
</event>
<event>
 4    1  0.1399921E-004  0.2936505E+03  0.7818608E-02  0.1088458E+00
          2   -1    0    0  501    0  0.00000000000E+00  0.00000000000E+00  0.10210767198E+04  0.10210767198E+04  0.25500000000E-02 0.  1.
         -2   -1    0    0    0  501 -0.00000000000E+00 -0.00000000000E+00 -0.21112671773E+02  0.21112671927E+02  0.25500000000E-02 0. -1.
    5000001    1    1    2    0    0 -0.63648073093E+02 -0.34770261100E+02  0.54606673083E+03  0.56531223477E+03  0.12700000000E+03 0.  0.
   -5000001    1    1    2    0    0  0.63648073093E+02  0.34770261100E+02  0.45389731715E+03  0.47687715691E+03  0.12700000000E+03 0.  0.
<mgrwt>
<rscale>  0 0.29365053E+03</rscale>
<asrwt>0</asrwt>
<pdfrwt beam="1">  1        2 0.14586809E+00 0.29365053E+03</pdfrwt>
<pdfrwt beam="2">  1       -2 0.30160962E-02 0.29365053E+03</pdfrwt>
<totfact> 0.11889999E+04</totfact>
</mgrwt>
</event>
<event>
 4    1  0.1399921E-004  0.3041876E+03  0.7818608E-02  0.1083166E+00
          2   -1    0    0  501    0  0.00000000000E+00  0.00000000000E+00  0.28146730583E+04  0.28146730583E+04  0.25500000000E-02 0.  1.
         -2   -1    0    0    0  501 -0.00000000000E+00 -0.00000000000E+00 -0.82185470804E+01  0.82185474760E+01  0.25500000000E-02 0. -1.
    5000001    1    1    2    0    0  0.24778470445E+02  0.57989552516E+02  0.89267300767E+03  0.90386440323E+03  0.12700000000E+03 0.  0.
   -5000001    1    1    2    0    0 -0.24778470445E+02 -0.57989552516E+02  0.19137815036E+04  0.19190272026E+04  0.12700000000E+03 0.  0.
<mgrwt>
<rscale>  0 0.30418760E+03</rscale>
<asrwt>0</asrwt>
<pdfrwt beam="1">  1        2 0.40209613E+00 0.30418760E+03</pdfrwt>
<pdfrwt beam="2">  1       -2 0.11740782E-02 0.30418760E+03</pdfrwt>
<totfact> 0.58550494E+03</totfact>
</mgrwt>
</event>
<event>
 4    1  0.1399921E-004  0.4223507E+03  0.7818608E-02  0.1036304E+00
         -2   -1    0    0    0  501 -0.00000000000E+00  0.00000000000E+00  0.48989250658E+02  0.48989250724E+02  0.25500000000E-02 0. -1.
          2   -1    0    0  501    0  0.00000000000E+00 -0.00000000000E+00 -0.91030245688E+03  0.91030245688E+03  0.25500000000E-02 0.  1.
    5000001    1    1    2    0    0 -0.39175926714E+02  0.16369267841E+03 -0.45714339978E+03  0.50342738718E+03  0.12700000000E+03 0.  0.
   -5000001    1    1    2    0    0  0.39175926714E+02 -0.16369267841E+03 -0.40416980644E+03  0.45586432043E+03  0.12700000000E+03 0.  0.
<mgrwt>
<rscale>  0 0.42235073E+03</rscale>
<asrwt>0</asrwt>
<pdfrwt beam="1">  1        2 0.13004320E+00 0.42235073E+03</pdfrwt>
<pdfrwt beam="2">  1       -2 0.69984649E-02 0.42235073E+03</pdfrwt>
<totfact> 0.38742252E+03</totfact>
</mgrwt>
</event>
<event>
 4    1  0.1399921E-004  0.3124500E+03  0.7818608E-02  0.1079177E+00
         -2   -1    0    0    0  501 -0.00000000000E+00  0.00000000000E+00  0.19325239568E+02  0.19325239737E+02  0.25500000000E-02 0. -1.
          2   -1    0    0  501    0  0.00000000000E+00 -0.00000000000E+00 -0.12629209401E+04  0.12629209401E+04  0.25500000000E-02 0.  1.
    5000001    1    1    2    0    0  0.11241975945E+02  0.42921603084E+02 -0.94775275355E+03  0.95725280250E+03  0.12700000000E+03 0.  0.
   -5000001    1    1    2    0    0 -0.11241975945E+02 -0.42921603084E+02 -0.29584294697E+03  0.32499337733E+03  0.12700000000E+03 0.  0.
<mgrwt>
<rscale>  0 0.31244999E+03</rscale>
<asrwt>0</asrwt>
<pdfrwt beam="1">  1        2 0.18041722E+00 0.31244999E+03</pdfrwt>
<pdfrwt beam="2">  1       -2 0.27607493E-02 0.31244999E+03</pdfrwt>
<totfact> 0.99617008E+03</totfact>
</mgrwt>
</event>
<event>
 4    1  0.1399921E-004  0.4532013E+03  0.7818608E-02  0.1026772E+00
         -2   -1    0    0    0  501 -0.00000000000E+00  0.00000000000E+00  0.91325829219E+01  0.91325832779E+01  0.25500000000E-02 0. -1.
          2   -1    0    0  501    0  0.00000000000E+00 -0.00000000000E+00 -0.56224899379E+04  0.56224899379E+04  0.25500000000E-02 0.  1.
    5000001    1    1    2    0    0 -0.36117112919E+02 -0.42246258701E+02 -0.57929272674E+03  0.59564944008E+03  0.12700000000E+03 0.  0.
   -5000001    1    1    2    0    0  0.36117112919E+02  0.42246258701E+02 -0.50340646283E+04  0.50359730811E+04  0.12700000000E+03 0.  0.
<mgrwt>
<rscale>  0 0.45320131E+03</rscale>
<asrwt>0</asrwt>
<pdfrwt beam="1">  1        2 0.80321063E+00 0.45320131E+03</pdfrwt>
<pdfrwt beam="2">  1       -2 0.13046583E-02 0.45320131E+03</pdfrwt>
<totfact> 0.35230645E+01</totfact>
</mgrwt>
</event>
<event>
 4    1  0.1399921E-004  0.2901958E+03  0.7818608E-02  0.1090247E+00
         -2   -1    0    0    0  501 -0.00000000000E+00  0.00000000000E+00  0.94604031124E+02  0.94604031158E+02  0.25500000000E-02 0. -1.
          2   -1    0    0  501    0  0.00000000000E+00 -0.00000000000E+00 -0.22254234343E+03  0.22254234344E+03  0.25500000000E-02 0.  1.
    5000001    1    1    2    0    0  0.57252311752E+02  0.40573228980E+02 -0.64650498151E+02  0.15884804381E+03  0.12700000000E+03 0.  0.
   -5000001    1    1    2    0    0 -0.57252311752E+02 -0.40573228980E+02 -0.63287814152E+02  0.15829833079E+03  0.12700000000E+03 0.  0.
<mgrwt>
<rscale>  0 0.29019582E+03</rscale>
<asrwt>0</asrwt>
<pdfrwt beam="1">  1        2 0.31791763E-01 0.29019582E+03</pdfrwt>
<pdfrwt beam="2">  1       -2 0.13514862E-01 0.29019582E+03</pdfrwt>
<totfact> 0.66574093E+03</totfact>
</mgrwt>
</event>
<event>
 4    1  0.1399921E-004  0.4056118E+03  0.7818608E-02  0.1041854E+00
         -2   -1    0    0    0  501 -0.00000000000E+00  0.00000000000E+00  0.26476134649E+03  0.26476134650E+03  0.25500000000E-02 0. -1.
          2   -1    0    0  501    0  0.00000000000E+00 -0.00000000000E+00 -0.15534835018E+03  0.15534835020E+03  0.25500000000E-02 0.  1.
    5000001    1    1    2    0    0 -0.72472504264E+02 -0.13949498432E+03  0.37064660807E+02  0.20546022390E+03  0.12700000000E+03 0.  0.
   -5000001    1    1    2    0    0  0.72472504264E+02  0.13949498432E+03  0.72348335503E+02  0.21464947280E+03  0.12700000000E+03 0.  0.
<mgrwt>
<rscale>  0 0.40561183E+03</rscale>
<asrwt>0</asrwt>
<pdfrwt beam="1">  1        2 0.22192622E-01 0.40561183E+03</pdfrwt>
<pdfrwt beam="2">  1       -2 0.37823049E-01 0.40561183E+03</pdfrwt>
<totfact> 0.16468811E+03</totfact>
</mgrwt>
</event>
<event>
 4    1  0.1399921E-004  0.6976409E+03  0.7818608E-02  0.9721275E-01
          2   -1    0    0  501    0  0.00000000000E+00  0.00000000000E+00  0.66901464658E+03  0.66901464659E+03  0.25500000000E-02 0.  1.
         -2   -1    0    0    0  501 -0.00000000000E+00 -0.00000000000E+00 -0.18187299411E+03  0.18187299413E+03  0.25500000000E-02 0. -1.
    5000001    1    1    2    0    0  0.14370703293E+03 -0.28765531041E+03  0.30011654465E+03  0.45781680757E+03  0.12700000000E+03 0.  0.
   -5000001    1    1    2    0    0 -0.14370703293E+03  0.28765531041E+03  0.18702510782E+03  0.39307083315E+03  0.12700000000E+03 0.  0.
<mgrwt>
<rscale>  0 0.69764087E+03</rscale>
<asrwt>0</asrwt>
<pdfrwt beam="1">  1        2 0.95573523E-01 0.69764087E+03</pdfrwt>
<pdfrwt beam="2">  1       -2 0.25981856E-01 0.69764087E+03</pdfrwt>
<totfact> 0.63830972E+02</totfact>
</mgrwt>
</event>
<event>
 4    1  0.1399921E-004  0.6230980E+03  0.7818608E-02  0.9858611E-01
         -2   -1    0    0    0  501 -0.00000000000E+00  0.00000000000E+00  0.16845382609E+03  0.16845382611E+03  0.25500000000E-02 0. -1.
          2   -1    0    0  501    0  0.00000000000E+00 -0.00000000000E+00 -0.57619818533E+03  0.57619818533E+03  0.25500000000E-02 0.  1.
    5000001    1    1    2    0    0  0.21596574564E+03  0.16465630015E+03 -0.30514340813E+03  0.42777844732E+03  0.12700000000E+03 0.  0.
   -5000001    1    1    2    0    0 -0.21596574564E+03 -0.16465630015E+03 -0.10260095111E+03  0.31687356412E+03  0.12700000000E+03 0.  0.
<mgrwt>
<rscale>  0 0.62309803E+03</rscale>
<asrwt>0</asrwt>
<pdfrwt beam="1">  1        2 0.82314026E-01 0.62309803E+03</pdfrwt>
<pdfrwt beam="2">  1       -2 0.24064833E-01 0.62309803E+03</pdfrwt>
<totfact> 0.87656828E+02</totfact>
</mgrwt>
</event>
<event>
 4    1  0.1399921E-004  0.3335656E+03  0.7818608E-02  0.1069570E+00
         -2   -1    0    0    0  501 -0.00000000000E+00  0.00000000000E+00  0.42450046220E+02  0.42450046297E+02  0.25500000000E-02 0. -1.
          2   -1    0    0  501    0  0.00000000000E+00 -0.00000000000E+00 -0.65527620467E+03  0.65527620467E+03  0.25500000000E-02 0.  1.
    5000001    1    1    2    0    0  0.10301948899E+03  0.30145344361E+02 -0.33334258181E+03  0.37251581678E+03  0.12700000000E+03 0.  0.
   -5000001    1    1    2    0    0 -0.10301948899E+03 -0.30145344361E+02 -0.27948357663E+03  0.32521043419E+03  0.12700000000E+03 0.  0.
<mgrwt>
<rscale>  0 0.33356562E+03</rscale>
<asrwt>0</asrwt>
<pdfrwt beam="1">  1        2 0.93610880E-01 0.33356562E+03</pdfrwt>
<pdfrwt beam="2">  1       -2 0.60642927E-02 0.33356562E+03</pdfrwt>
<totfact> 0.72512547E+03</totfact>
</mgrwt>
</event>
<event>
 4    1  0.1399921E-004  0.8960806E+03  0.7818608E-02  0.9430494E-01
         -2   -1    0    0    0  501 -0.00000000000E+00  0.00000000000E+00  0.13008879283E+03  0.13008879286E+03  0.25500000000E-02 0. -1.
          2   -1    0    0  501    0  0.00000000000E+00 -0.00000000000E+00 -0.15431007288E+04  0.15431007288E+04  0.25500000000E-02 0.  1.
    5000001    1    1    2    0    0  0.40303105905E+03 -0.13568022695E+03 -0.59188851046E+03  0.73980008607E+03  0.12700000000E+03 0.  0.
   -5000001    1    1    2    0    0 -0.40303105905E+03  0.13568022695E+03 -0.82112342553E+03  0.93338943560E+03  0.12700000000E+03 0.  0.
<mgrwt>
<rscale>  0 0.89608060E+03</rscale>
<asrwt>0</asrwt>
<pdfrwt beam="1">  1        2 0.22044295E+00 0.89608060E+03</pdfrwt>
<pdfrwt beam="2">  1       -2 0.18584114E-01 0.89608060E+03</pdfrwt>
<totfact> 0.33742213E+02</totfact>
</mgrwt>
</event>
<event>
 4    1  0.1399921E-004  0.3317111E+03  0.7818608E-02  0.1070382E+00
         -2   -1    0    0    0  501 -0.00000000000E+00  0.00000000000E+00  0.10177445451E+03  0.10177445454E+03  0.25500000000E-02 0. -1.
          2   -1    0    0  501    0  0.00000000000E+00 -0.00000000000E+00 -0.27028463301E+03  0.27028463302E+03  0.25500000000E-02 0.  1.
    5000001    1    1    2    0    0  0.10074296856E+03 -0.32101019972E+02 -0.10009558467E+03  0.19320390076E+03  0.12700000000E+03 0.  0.
   -5000001    1    1    2    0    0 -0.10074296856E+03  0.32101019972E+02 -0.68414593823E+02  0.17885518680E+03  0.12700000000E+03 0.  0.
<mgrwt>
<rscale>  0 0.33171115E+03</rscale>
<asrwt>0</asrwt>
<pdfrwt beam="1">  1        2 0.38612090E-01 0.33171115E+03</pdfrwt>
<pdfrwt beam="2">  1       -2 0.14539208E-01 0.33171115E+03</pdfrwt>
<totfact> 0.47966466E+03</totfact>
</mgrwt>
</event>
<event>
 4    1  0.1399921E-004  0.3767389E+03  0.7818608E-02  0.1052146E+00
          2   -1    0    0  501    0  0.00000000000E+00  0.00000000000E+00  0.23742459802E+03  0.23742459803E+03  0.25500000000E-02 0.  1.
         -2   -1    0    0    0  501 -0.00000000000E+00 -0.00000000000E+00 -0.14944976474E+03  0.14944976476E+03  0.25500000000E-02 0. -1.
    5000001    1    1    2    0    0 -0.10365032167E+03 -0.91834017578E+02  0.57656201695E+02  0.19654544910E+03  0.12700000000E+03 0.  0.
   -5000001    1    1    2    0    0  0.10365032167E+03  0.91834017578E+02  0.30318631584E+02  0.19032891370E+03  0.12700000000E+03 0.  0.
<mgrwt>
<rscale>  0 0.37673890E+03</rscale>
<asrwt>0</asrwt>
<pdfrwt beam="1">  1        2 0.33917799E-01 0.37673890E+03</pdfrwt>
<pdfrwt beam="2">  1       -2 0.21349967E-01 0.37673890E+03</pdfrwt>
<totfact> 0.28911929E+03</totfact>
</mgrwt>
</event>
<event>
 4    1  0.1399921E-004  0.8716554E+03  0.7818608E-02  0.9461724E-01
         -2   -1    0    0    0  501 -0.00000000000E+00  0.00000000000E+00  0.80165178623E+02  0.80165178664E+02  0.25500000000E-02 0. -1.
          2   -1    0    0  501    0  0.00000000000E+00 -0.00000000000E+00 -0.23694300503E+04  0.23694300503E+04  0.25500000000E-02 0.  1.
    5000001    1    1    2    0    0  0.30473662241E+03 -0.25784562289E+03 -0.80660349207E+03  0.90889326530E+03  0.12700000000E+03 0.  0.
   -5000001    1    1    2    0    0 -0.30473662241E+03  0.25784562289E+03 -0.14826613796E+04  0.15407019636E+04  0.12700000000E+03 0.  0.
<mgrwt>
<rscale>  0 0.87165540E+03</rscale>
<asrwt>0</asrwt>
<pdfrwt beam="1">  1        2 0.33848996E+00 0.87165540E+03</pdfrwt>
<pdfrwt beam="2">  1       -2 0.11452170E-01 0.87165540E+03</pdfrwt>
<totfact> 0.28920218E+02</totfact>
</mgrwt>
</event>
<event>
 4    1  0.1399921E-004  0.3748854E+03  0.7818608E-02  0.1052840E+00
          2   -1    0    0  501    0  0.00000000000E+00  0.00000000000E+00  0.16993383763E+04  0.16993383763E+04  0.25500000000E-02 0.  1.
         -2   -1    0    0    0  501 -0.00000000000E+00 -0.00000000000E+00 -0.20675554689E+02  0.20675554846E+02  0.25500000000E-02 0. -1.
    5000001    1    1    2    0    0 -0.46382389938E+01  0.13173894965E+03  0.65414578947E+03  0.67927341917E+03  0.12700000000E+03 0.  0.
   -5000001    1    1    2    0    0  0.46382389938E+01 -0.13173894965E+03  0.10245170321E+04  0.10407405119E+04  0.12700000000E+03 0.  0.
<mgrwt>
<rscale>  0 0.37488539E+03</rscale>
<asrwt>0</asrwt>
<pdfrwt beam="1">  1        2 0.24276273E+00 0.37488539E+03</pdfrwt>
<pdfrwt beam="2">  1       -2 0.29536494E-02 0.37488539E+03</pdfrwt>
<totfact> 0.53892991E+03</totfact>
</mgrwt>
</event>
<event>
 4    1  0.1399921E-004  0.5677744E+03  0.7818608E-02  0.9974616E-01
         -2   -1    0    0    0  501 -0.00000000000E+00  0.00000000000E+00  0.47697979572E+02  0.47697979640E+02  0.25500000000E-02 0. -1.
          2   -1    0    0  501    0  0.00000000000E+00 -0.00000000000E+00 -0.16896298449E+04  0.16896298449E+04  0.25500000000E-02 0.  1.
    5000001    1    1    2    0    0  0.23276791018E+03  0.10083465417E+03 -0.85369424109E+03  0.89959512269E+03  0.12700000000E+03 0.  0.
   -5000001    1    1    2    0    0 -0.23276791018E+03 -0.10083465417E+03 -0.78823762421E+03  0.83773270182E+03  0.12700000000E+03 0.  0.
<mgrwt>
<rscale>  0 0.56777436E+03</rscale>
<asrwt>0</asrwt>
<pdfrwt beam="1">  1        2 0.24137565E+00 0.56777436E+03</pdfrwt>
<pdfrwt beam="2">  1       -2 0.68139981E-02 0.56777436E+03</pdfrwt>
<totfact> 0.15043233E+03</totfact>
</mgrwt>
</event>
<event>
 4    1  0.1399921E-004  0.3803186E+03  0.7818608E-02  0.1050816E+00
          2   -1    0    0  501    0  0.00000000000E+00  0.00000000000E+00  0.28601882132E+04  0.28601882133E+04  0.25500000000E-02 0.  1.
         -2   -1    0    0    0  501 -0.00000000000E+00 -0.00000000000E+00 -0.12642717472E+02  0.12642717729E+02  0.25500000000E-02 0. -1.
    5000001    1    1    2    0    0 -0.12832635939E+03  0.42375321369E+02  0.17414103160E+04  0.17512573230E+04  0.12700000000E+03 0.  0.
   -5000001    1    1    2    0    0  0.12832635939E+03 -0.42375321369E+02  0.11061351797E+04  0.11215736080E+04  0.12700000000E+03 0.  0.
<mgrwt>
<rscale>  0 0.38031856E+03</rscale>
<asrwt>0</asrwt>
<pdfrwt beam="1">  1        2 0.40859852E+00 0.38031856E+03</pdfrwt>
<pdfrwt beam="2">  1       -2 0.18061016E-02 0.38031856E+03</pdfrwt>
<totfact> 0.29304840E+03</totfact>
</mgrwt>
</event>
<event>
 4    1  0.1399921E-004  0.2695068E+03  0.7818608E-02  0.1101562E+00
          2   -1    0    0  501    0  0.00000000000E+00  0.00000000000E+00  0.35246768864E+04  0.35246768864E+04  0.25500000000E-02 0.  1.
         -2   -1    0    0    0  501 -0.00000000000E+00 -0.00000000000E+00 -0.51518119032E+01  0.51518125343E+01  0.25500000000E-02 0. -1.
    5000001    1    1    2    0    0  0.17316602483E+02  0.21850684252E+02  0.22232235892E+04  0.22270225515E+04  0.12700000000E+03 0.  0.
   -5000001    1    1    2    0    0 -0.17316602483E+02 -0.21850684252E+02  0.12963014853E+04  0.13028061475E+04  0.12700000000E+03 0.  0.
<mgrwt>
<rscale>  0 0.26950676E+03</rscale>
<asrwt>0</asrwt>
<pdfrwt beam="1">  1        2 0.50352649E+00 0.26950676E+03</pdfrwt>
<pdfrwt beam="2">  1       -2 0.73597139E-03 0.26950676E+03</pdfrwt>
<totfact> 0.47266554E+03</totfact>
</mgrwt>
</event>
<event>
 4    1  0.1399921E-004  0.3966594E+03  0.7818608E-02  0.1044943E+00
         -2   -1    0    0    0  501 -0.00000000000E+00  0.00000000000E+00  0.50637722706E+02  0.50637722770E+02  0.25500000000E-02 0. -1.
          2   -1    0    0  501    0  0.00000000000E+00 -0.00000000000E+00 -0.77678580719E+03  0.77678580719E+03  0.25500000000E-02 0.  1.
    5000001    1    1    2    0    0  0.54300138771E+02 -0.13537363731E+03 -0.27140625348E+03  0.33326398122E+03  0.12700000000E+03 0.  0.
   -5000001    1    1    2    0    0 -0.54300138771E+02  0.13537363731E+03 -0.45474183100E+03  0.49415954875E+03  0.12700000000E+03 0.  0.
<mgrwt>
<rscale>  0 0.39665937E+03</rscale>
<asrwt>0</asrwt>
<pdfrwt beam="1">  1        2 0.11096939E+00 0.39665937E+03</pdfrwt>
<pdfrwt beam="2">  1       -2 0.72339609E-02 0.39665937E+03</pdfrwt>
<totfact> 0.45051341E+03</totfact>
</mgrwt>
</event>
<event>
 4    1  0.1399921E-004  0.5392666E+03  0.7818608E-02  0.1004009E+00
         -2   -1    0    0    0  501 -0.00000000000E+00  0.00000000000E+00  0.32151204405E+02  0.32151204506E+02  0.25500000000E-02 0.  1.
          2   -1    0    0  501    0  0.00000000000E+00 -0.00000000000E+00 -0.22612567314E+04  0.22612567314E+04  0.25500000000E-02 0. -1.
    5000001    1    1    2    0    0 -0.22560066649E+03  0.74238571380E+02 -0.10597421996E+04  0.10934301788E+04  0.12700000000E+03 0.  0.
   -5000001    1    1    2    0    0  0.22560066649E+03 -0.74238571380E+02 -0.11693633274E+04  0.11999777571E+04  0.12700000000E+03 0.  0.
<mgrwt>
<rscale>  0 0.53926664E+03</rscale>
<asrwt>0</asrwt>
<pdfrwt beam="1">  1        2 0.32303658E+00 0.53926664E+03</pdfrwt>
<pdfrwt beam="2">  1       -2 0.45930306E-02 0.53926664E+03</pdfrwt>
<totfact> 0.14375014E+03</totfact>
</mgrwt>
</event>
<event>
 4    1  0.1399921E-004  0.4682225E+03  0.7818608E-02  0.1022423E+00
         -2   -1    0    0    0  501 -0.00000000000E+00  0.00000000000E+00  0.18170468434E+03  0.18170468436E+03  0.25500000000E-02 0. -1.
          2   -1    0    0  501    0  0.00000000000E+00 -0.00000000000E+00 -0.30163269798E+03  0.30163269800E+03  0.25500000000E-02 0.  1.
    5000001    1    1    2    0    0 -0.17803611155E+03 -0.12617508985E+02 -0.14523205110E+03  0.26282581155E+03  0.12700000000E+03 0.  0.
   -5000001    1    1    2    0    0  0.17803611155E+03  0.12617508985E+02  0.25304037460E+02  0.22051157081E+03  0.12700000000E+03 0.  0.
<mgrwt>
<rscale>  0 0.46822249E+03</rscale>
<asrwt>0</asrwt>
<pdfrwt beam="1">  1        2 0.43090385E-01 0.46822249E+03</pdfrwt>
<pdfrwt beam="2">  1       -2 0.25957812E-01 0.46822249E+03</pdfrwt>
<totfact> 0.15789833E+03</totfact>
</mgrwt>
</event>
<event>
 4    1  0.1399921E-004  0.3377820E+03  0.7818608E-02  0.1067745E+00
          2   -1    0    0  501    0  0.00000000000E+00  0.00000000000E+00  0.72232002781E+03  0.72232002782E+03  0.25500000000E-02 0.  1.
         -2   -1    0    0    0  501 -0.00000000000E+00 -0.00000000000E+00 -0.39489665595E+02  0.39489665677E+02  0.25500000000E-02 0. -1.
    5000001    1    1    2    0    0  0.10250078758E+03  0.42743984168E+02  0.35913304888E+03  0.39678584455E+03  0.12700000000E+03 0.  0.
   -5000001    1    1    2    0    0 -0.10250078758E+03 -0.42743984168E+02  0.32369731334E+03  0.36502384895E+03  0.12700000000E+03 0.  0.
<mgrwt>
<rscale>  0 0.33778204E+03</rscale>
<asrwt>0</asrwt>
<pdfrwt beam="1">  1        2 0.10318857E+00 0.33778204E+03</pdfrwt>
<pdfrwt beam="2">  1       -2 0.56413809E-02 0.33778204E+03</pdfrwt>
<totfact> 0.72200559E+03</totfact>
</mgrwt>
</event>
<event>
 4    1  0.1399921E-004  0.1249569E+04  0.7818608E-02  0.9070542E-01
         -2   -1    0    0    0  501 -0.00000000000E+00  0.00000000000E+00  0.28353154898E+03  0.28353154899E+03  0.25500000000E-02 0. -1.
          2   -1    0    0  501    0  0.00000000000E+00 -0.00000000000E+00 -0.13767629869E+04  0.13767629869E+04  0.25500000000E-02 0.  1.
    5000001    1    1    2    0    0  0.39396125761E+03  0.24740284363E+03 -0.10744485334E+04  0.11777021230E+04  0.12700000000E+03 0.  0.
   -5000001    1    1    2    0    0 -0.39396125761E+03 -0.24740284363E+03 -0.18782904555E+02  0.48259241295E+03  0.12700000000E+03 0.  0.
<mgrwt>
<rscale>  0 0.12495691E+04</rscale>
<asrwt>0</asrwt>
<pdfrwt beam="1">  1        2 0.19668042E+00 0.12495691E+04</pdfrwt>
<pdfrwt beam="2">  1       -2 0.40504508E-01 0.12495691E+04</pdfrwt>
<totfact> 0.96637474E+01</totfact>
</mgrwt>
</event>
<event>
 4    1  0.1399921E-004  0.4321912E+03  0.7818608E-02  0.1033170E+00
          2   -1    0    0  501    0  0.00000000000E+00  0.00000000000E+00  0.15952029937E+04  0.15952029937E+04  0.25500000000E-02 0.  1.
         -2   -1    0    0    0  501 -0.00000000000E+00 -0.00000000000E+00 -0.29273578746E+02  0.29273578857E+02  0.25500000000E-02 0. -1.
    5000001    1    1    2    0    0 -0.44867485847E+02 -0.15923561636E+03  0.57036623130E+03  0.60730199293E+03  0.12700000000E+03 0.  0.
   -5000001    1    1    2    0    0  0.44867485847E+02  0.15923561636E+03  0.99556318368E+03  0.10171745797E+04  0.12700000000E+03 0.  0.
<mgrwt>
<rscale>  0 0.43219116E+03</rscale>
<asrwt>0</asrwt>
<pdfrwt beam="1">  1        2 0.22788614E+00 0.43219116E+03</pdfrwt>
<pdfrwt beam="2">  1       -2 0.41819398E-02 0.43219116E+03</pdfrwt>
<totfact> 0.35927228E+03</totfact>
</mgrwt>
</event>
<event>
 4    1  0.1399921E-004  0.4212562E+03  0.7818608E-02  0.1036658E+00
          2   -1    0    0  501    0  0.00000000000E+00  0.00000000000E+00  0.70102800782E+03  0.70102800782E+03  0.25500000000E-02 0.  1.
         -2   -1    0    0    0  501 -0.00000000000E+00 -0.00000000000E+00 -0.63284483652E+02  0.63284483703E+02  0.25500000000E-02 0. -1.
    5000001    1    1    2    0    0  0.10104628114E+03  0.11615094113E+03  0.44103935064E+03  0.48409307046E+03  0.12700000000E+03 0.  0.
   -5000001    1    1    2    0    0 -0.10104628114E+03 -0.11615094113E+03  0.19670417353E+03  0.28021942106E+03  0.12700000000E+03 0.  0.
<mgrwt>
<rscale>  0 0.42125620E+03</rscale>
<asrwt>0</asrwt>
<pdfrwt beam="1">  1        2 0.10014686E+00 0.42125620E+03</pdfrwt>
<pdfrwt beam="2">  1       -2 0.90406407E-02 0.42125620E+03</pdfrwt>
<totfact> 0.35951174E+03</totfact>
</mgrwt>
</event>
<event>
 4    1  0.1399921E-004  0.5975891E+03  0.7818608E-02  0.9910421E-01
          2   -1    0    0  501    0  0.00000000000E+00  0.00000000000E+00  0.72736971133E+03  0.72736971134E+03  0.25500000000E-02 0.  1.
         -2   -1    0    0    0  501 -0.00000000000E+00 -0.00000000000E+00 -0.12274112836E+03  0.12274112839E+03  0.25500000000E-02 0. -1.
    5000001    1    1    2    0    0  0.25186918433E+03  0.52428175313E+02  0.18361401155E+03  0.34063162628E+03  0.12700000000E+03 0.  0.
   -5000001    1    1    2    0    0 -0.25186918433E+03 -0.52428175313E+02  0.42101457142E+03  0.50947921345E+03  0.12700000000E+03 0.  0.
<mgrwt>
<rscale>  0 0.59758909E+03</rscale>
<asrwt>0</asrwt>
<pdfrwt beam="1">  1        2 0.10390995E+00 0.59758909E+03</pdfrwt>
<pdfrwt beam="2">  1       -2 0.17534448E-01 0.59758909E+03</pdfrwt>
<totfact> 0.11533866E+03</totfact>
</mgrwt>
</event>
<event>
 4    1  0.1399921E-004  0.4817532E+03  0.7818608E-02  0.1018654E+00
          2   -1    0    0  501    0  0.00000000000E+00  0.00000000000E+00  0.15017390361E+03  0.15017390363E+03  0.25500000000E-02 0.  1.
         -2   -1    0    0    0  501 -0.00000000000E+00 -0.00000000000E+00 -0.38636234857E+03  0.38636234857E+03  0.25500000000E-02 0. -1.
    5000001    1    1    2    0    0 -0.19613563934E+03 -0.88160744206E+01 -0.53675309662E+02  0.23991029794E+03  0.12700000000E+03 0.  0.
   -5000001    1    1    2    0    0  0.19613563934E+03  0.88160744206E+01 -0.18251313530E+03  0.29662595427E+03  0.12700000000E+03 0.  0.
<mgrwt>
<rscale>  0 0.48175322E+03</rscale>
<asrwt>0</asrwt>
<pdfrwt beam="1">  1        2 0.21453415E-01 0.48175322E+03</pdfrwt>
<pdfrwt beam="2">  1       -2 0.55194621E-01 0.48175322E+03</pdfrwt>
<totfact> 0.81099662E+02</totfact>
</mgrwt>
</event>
<event>
 4    1  0.1399921E-004  0.3433659E+03  0.7818608E-02  0.1065371E+00
         -2   -1    0    0    0  501 -0.00000000000E+00  0.00000000000E+00  0.10490380717E+03  0.10490380720E+03  0.25500000000E-02 0. -1.
          2   -1    0    0  501    0  0.00000000000E+00 -0.00000000000E+00 -0.28097201003E+03  0.28097201004E+03  0.25500000000E-02 0.  1.
    5000001    1    1    2    0    0 -0.58655269297E+02 -0.27286517315E+02 -0.19559706928E+03  0.24201695840E+03  0.12700000000E+03 0.  0.
   -5000001    1    1    2    0    0  0.58655269297E+02  0.27286517315E+02  0.19528866410E+02  0.14385885884E+03  0.12700000000E+03 0.  0.
<mgrwt>
<rscale>  0 0.34336589E+03</rscale>
<asrwt>0</asrwt>
<pdfrwt beam="1">  1        2 0.40138858E-01 0.34336589E+03</pdfrwt>
<pdfrwt beam="2">  1       -2 0.14986258E-01 0.34336589E+03</pdfrwt>
<totfact> 0.43776906E+03</totfact>
</mgrwt>
</event>
<event>
 4    1  0.1399921E-004  0.4480505E+03  0.7818608E-02  0.1028305E+00
          2   -1    0    0  501    0  0.00000000000E+00  0.00000000000E+00  0.20527269250E+04  0.20527269250E+04  0.25500000000E-02 0.  1.
         -2   -1    0    0    0  501 -0.00000000000E+00 -0.00000000000E+00 -0.24449092889E+02  0.24449093022E+02  0.25500000000E-02 0. -1.
    5000001    1    1    2    0    0 -0.54645148494E+01 -0.15542266999E+03  0.55350672811E+03  0.58879942709E+03  0.12700000000E+03 0.  0.
   -5000001    1    1    2    0    0  0.54645148494E+01  0.15542266999E+03  0.14747711040E+04  0.14883765909E+04  0.12700000000E+03 0.  0.
<mgrwt>
<rscale>  0 0.44805049E+03</rscale>
<asrwt>0</asrwt>
<pdfrwt beam="1">  1        2 0.29324661E+00 0.44805049E+03</pdfrwt>
<pdfrwt beam="2">  1       -2 0.34927287E-02 0.44805049E+03</pdfrwt>
<totfact> 0.27899388E+03</totfact>
</mgrwt>
</event>
<event>
 4    1  0.1399921E-004  0.3477430E+03  0.7818608E-02  0.1063545E+00
         -2   -1    0    0    0  501 -0.00000000000E+00  0.00000000000E+00  0.13102140065E+03  0.13102140067E+03  0.25500000000E-02 0. -1.
          2   -1    0    0  501    0  0.00000000000E+00 -0.00000000000E+00 -0.23073552419E+03  0.23073552421E+03  0.25500000000E-02 0.  1.
    5000001    1    1    2    0    0  0.49468148880E+02  0.10376933152E+03 -0.80841926585E+02  0.18941908302E+03  0.12700000000E+03 0.  0.
   -5000001    1    1    2    0    0 -0.49468148880E+02 -0.10376933152E+03 -0.18872196959E+02  0.17233784186E+03  0.12700000000E+03 0.  0.
<mgrwt>
<rscale>  0 0.34774296E+03</rscale>
<asrwt>0</asrwt>
<pdfrwt beam="1">  1        2 0.32962218E-01 0.34774296E+03</pdfrwt>
<pdfrwt beam="2">  1       -2 0.18717343E-01 0.34774296E+03</pdfrwt>
<totfact> 0.37357696E+03</totfact>
</mgrwt>
</event>
<event>
 4    1  0.1399921E-004  0.3266600E+03  0.7818608E-02  0.1072624E+00
          2   -1    0    0  501    0  0.00000000000E+00  0.00000000000E+00  0.26385643633E+04  0.26385643633E+04  0.25500000000E-02 0.  1.
         -2   -1    0    0    0  501 -0.00000000000E+00 -0.00000000000E+00 -0.10110301245E+02  0.10110301566E+02  0.25500000000E-02 0. -1.
    5000001    1    1    2    0    0 -0.32710735236E+02 -0.93691233926E+02  0.15286989803E+04  0.15371719526E+04  0.12700000000E+03 0.  0.
   -5000001    1    1    2    0    0  0.32710735236E+02  0.93691233926E+02  0.10997550817E+04  0.11115027122E+04  0.12700000000E+03 0.  0.
<mgrwt>
<rscale>  0 0.32665995E+03</rscale>
<asrwt>0</asrwt>
<pdfrwt beam="1">  1        2 0.37693843E+00 0.32665995E+03</pdfrwt>
<pdfrwt beam="2">  1       -2 0.14443262E-02 0.32665995E+03</pdfrwt>
<totfact> 0.53200351E+03</totfact>
</mgrwt>
</event>
<event>
 4    1  0.1399921E-004  0.3512705E+03  0.7818608E-02  0.1062095E+00
         -2   -1    0    0    0  501 -0.00000000000E+00  0.00000000000E+00  0.75466254193E+02  0.75466254236E+02  0.25500000000E-02 0. -1.
          2   -1    0    0  501    0  0.00000000000E+00 -0.00000000000E+00 -0.40876199381E+03  0.40876199382E+03  0.25500000000E-02 0.  1.
    5000001    1    1    2    0    0 -0.11437382463E+03 -0.39712737521E+02 -0.15594661302E+03  0.23474841723E+03  0.12700000000E+03 0.  0.
   -5000001    1    1    2    0    0  0.11437382463E+03  0.39712737521E+02 -0.17734912660E+03  0.24947983082E+03  0.12700000000E+03 0.  0.
<mgrwt>
<rscale>  0 0.35127047E+03</rscale>
<asrwt>0</asrwt>
<pdfrwt beam="1">  1        2 0.58394569E-01 0.35127047E+03</pdfrwt>
<pdfrwt beam="2">  1       -2 0.10780894E-01 0.35127047E+03</pdfrwt>
<totfact> 0.49928514E+03</totfact>
</mgrwt>
</event>
<event>
 4    1  0.1399921E-004  0.3355660E+03  0.7818608E-02  0.1068700E+00
         -2   -1    0    0    0  501 -0.00000000000E+00  0.00000000000E+00  0.41885598268E+02  0.41885598345E+02  0.25500000000E-02 0. -1.
          2   -1    0    0  501    0  0.00000000000E+00 -0.00000000000E+00 -0.67209565430E+03  0.67209565431E+03  0.25500000000E-02 0.  1.
    5000001    1    1    2    0    0 -0.97750844018E+02 -0.35747454468E+01 -0.20970104859E+03  0.26395366278E+03  0.12700000000E+03 0.  0.
   -5000001    1    1    2    0    0  0.97750844018E+02  0.35747454468E+01 -0.42050900744E+03  0.45002758988E+03  0.12700000000E+03 0.  0.
<mgrwt>
<rscale>  0 0.33556596E+03</rscale>
<asrwt>0</asrwt>
<pdfrwt beam="1">  1        2 0.96013658E-01 0.33556596E+03</pdfrwt>
<pdfrwt beam="2">  1       -2 0.59836573E-02 0.33556596E+03</pdfrwt>
<totfact> 0.71858690E+03</totfact>
</mgrwt>
</event>
<event>
 4    1  0.1399921E-004  0.5060375E+03  0.7818608E-02  0.1012215E+00
          2   -1    0    0  501    0  0.00000000000E+00  0.00000000000E+00  0.75333127773E+03  0.75333127773E+03  0.25500000000E-02 0. -1.
         -2   -1    0    0    0  501 -0.00000000000E+00 -0.00000000000E+00 -0.84980516067E+02  0.84980516105E+02  0.25500000000E-02 0.  1.
    5000001    1    1    2    0    0  0.50624755706E+02  0.20670936406E+03  0.41861188461E+03  0.48647357278E+03  0.12700000000E+03 0.  0.
   -5000001    1    1    2    0    0 -0.50624755706E+02 -0.20670936406E+03  0.24973887705E+03  0.35183822105E+03  0.12700000000E+03 0.  0.
<mgrwt>
<rscale>  0 0.50603747E+03</rscale>
<asrwt>0</asrwt>
<pdfrwt beam="1">  1        2 0.10761875E+00 0.50603747E+03</pdfrwt>
<pdfrwt beam="2">  1       -2 0.12140074E-01 0.50603747E+03</pdfrwt>
<totfact> 0.20461095E+03</totfact>
</mgrwt>
</event>
<event>
 4    1  0.1399921E-004  0.4033954E+03  0.7818608E-02  0.1042610E+00
         -2   -1    0    0    0  501 -0.00000000000E+00  0.00000000000E+00  0.21687423569E+02  0.21687423719E+02  0.25500000000E-02 0. -1.
          2   -1    0    0  501    0  0.00000000000E+00 -0.00000000000E+00 -0.18758318619E+04  0.18758318619E+04  0.25500000000E-02 0.  1.
    5000001    1    1    2    0    0 -0.50688091805E+01 -0.14852522495E+03 -0.11607331208E+04  0.11770793572E+04  0.12700000000E+03 0.  0.
   -5000001    1    1    2    0    0  0.50688091805E+01  0.14852522495E+03 -0.69341131752E+03  0.72043992847E+03  0.12700000000E+03 0.  0.
<mgrwt>
<rscale>  0 0.40339539E+03</rscale>
<asrwt>0</asrwt>
<pdfrwt beam="1">  1        2 0.26797588E+00 0.40339539E+03</pdfrwt>
<pdfrwt beam="2">  1       -2 0.30982046E-02 0.40339539E+03</pdfrwt>
<totfact> 0.40975380E+03</totfact>
</mgrwt>
</event>
<event>
 4    1  0.1399921E-004  0.2657163E+03  0.7818608E-02  0.1103757E+00
          2   -1    0    0  501    0  0.00000000000E+00  0.00000000000E+00  0.10075426627E+04  0.10075426627E+04  0.25500000000E-02 0.  1.
         -2   -1    0    0    0  501 -0.00000000000E+00 -0.00000000000E+00 -0.17519151469E+02  0.17519151654E+02  0.25500000000E-02 0. -1.
    5000001    1    1    2    0    0  0.20688580753E+02  0.24652607054E+02  0.40992067687E+03  0.43034838182E+03  0.12700000000E+03 0.  0.
   -5000001    1    1    2    0    0 -0.20688580753E+02 -0.24652607054E+02  0.58010283434E+03  0.59471343252E+03  0.12700000000E+03 0.  0.
<mgrwt>
<rscale>  0 0.26571633E+03</rscale>
<asrwt>0</asrwt>
<pdfrwt beam="1">  1        2 0.14393467E+00 0.26571633E+03</pdfrwt>
<pdfrwt beam="2">  1       -2 0.25027359E-02 0.26571633E+03</pdfrwt>
<totfact> 0.15916203E+04</totfact>
</mgrwt>
</event>
<event>
 4    1  0.1399921E-004  0.3204725E+03  0.7818608E-02  0.1075432E+00
          2   -1    0    0  501    0  0.00000000000E+00  0.00000000000E+00  0.89397280812E+03  0.89397280813E+03  0.25500000000E-02 0.  1.
         -2   -1    0    0    0  501 -0.00000000000E+00 -0.00000000000E+00 -0.28720847047E+02  0.28720847160E+02  0.25500000000E-02 0. -1.
    5000001    1    1    2    0    0 -0.94781838758E+02  0.24222295120E+01  0.36466349242E+03  0.39761530008E+03  0.12700000000E+03 0.  0.
   -5000001    1    1    2    0    0  0.94781838758E+02 -0.24222295120E+01  0.50058846866E+03  0.52507835521E+03  0.12700000000E+03 0.  0.
<mgrwt>
<rscale>  0 0.32047250E+03</rscale>
<asrwt>0</asrwt>
<pdfrwt beam="1">  1        2 0.12771042E+00 0.32047250E+03</pdfrwt>
<pdfrwt beam="2">  1       -2 0.41029776E-02 0.32047250E+03</pdfrwt>
<totfact> 0.89714603E+03</totfact>
</mgrwt>
</event>
<event>
 4    1  0.1399921E-004  0.2806255E+03  0.7818608E-02  0.1095348E+00
         -2   -1    0    0    0  501 -0.00000000000E+00  0.00000000000E+00  0.33607425042E+03  0.33607425043E+03  0.25500000000E-02 0. -1.
          2   -1    0    0  501    0  0.00000000000E+00 -0.00000000000E+00 -0.58581320514E+02  0.58581320570E+02  0.25500000000E-02 0.  1.
    5000001    1    1    2    0    0 -0.41783322002E+02 -0.39144713126E+02  0.16230086536E+03  0.21388951695E+03  0.12700000000E+03 0.  0.
   -5000001    1    1    2    0    0  0.41783322002E+02  0.39144713126E+02  0.11519206454E+03  0.18076605405E+03  0.12700000000E+03 0.  0.
<mgrwt>
<rscale>  0 0.28062554E+03</rscale>
<asrwt>0</asrwt>
<pdfrwt beam="1">  1        2 0.83687604E-02 0.28062554E+03</pdfrwt>
<pdfrwt beam="2">  1       -2 0.48010605E-01 0.28062554E+03</pdfrwt>
<totfact> 0.33342584E+03</totfact>
</mgrwt>
</event>
<event>
 4    1  0.1399921E-004  0.5119981E+03  0.7818608E-02  0.1010694E+00
          2   -1    0    0  501    0  0.00000000000E+00  0.00000000000E+00  0.10761232964E+03  0.10761232967E+03  0.25500000000E-02 0.  1.
         -2   -1    0    0    0  501 -0.00000000000E+00 -0.00000000000E+00 -0.60899639297E+03  0.60899639298E+03  0.25500000000E-02 0. -1.
    5000001    1    1    2    0    0 -0.15897191461E+03  0.84107265288E+02 -0.67878405625E+02  0.23039657042E+03  0.12700000000E+03 0.  0.
   -5000001    1    1    2    0    0  0.15897191461E+03 -0.84107265288E+02 -0.43350565771E+03  0.48621215223E+03  0.12700000000E+03 0.  0.
<mgrwt>
<rscale>  0 0.51199813E+03</rscale>
<asrwt>0</asrwt>
<pdfrwt beam="1">  1        2 0.15373190E-01 0.51199813E+03</pdfrwt>
<pdfrwt beam="2">  1       -2 0.86999482E-01 0.51199813E+03</pdfrwt>
<totfact> 0.44892880E+02</totfact>
</mgrwt>
</event>
<event>
 4    1  0.1399921E-004  0.3378093E+03  0.7818608E-02  0.1067733E+00
         -2   -1    0    0    0  501 -0.00000000000E+00  0.00000000000E+00  0.68953679190E+02  0.68953679237E+02  0.25500000000E-02 0. -1.
          2   -1    0    0  501    0  0.00000000000E+00 -0.00000000000E+00 -0.41373826194E+03  0.41373826195E+03  0.25500000000E-02 0.  1.
    5000001    1    1    2    0    0  0.79908948352E+02 -0.29495347660E+02 -0.69906382504E+02  0.16814076803E+03  0.12700000000E+03 0.  0.
   -5000001    1    1    2    0    0 -0.79908948352E+02  0.29495347660E+02 -0.27487820025E+03  0.31455117315E+03  0.12700000000E+03 0.  0.
<mgrwt>
<rscale>  0 0.33780927E+03</rscale>
<asrwt>0</asrwt>
<pdfrwt beam="1">  1        2 0.59105465E-01 0.33780927E+03</pdfrwt>
<pdfrwt beam="2">  1       -2 0.98505258E-02 0.33780927E+03</pdfrwt>
<totfact> 0.56882701E+03</totfact>
</mgrwt>
</event>
<event>
 4    1  0.1399921E-004  0.3179831E+03  0.7818608E-02  0.1076581E+00
         -2   -1    0    0    0  501 -0.00000000000E+00  0.00000000000E+00  0.21404483766E+02  0.21404483918E+02  0.25500000000E-02 0. -1.
          2   -1    0    0  501    0  0.00000000000E+00 -0.00000000000E+00 -0.11809819935E+04  0.11809819935E+04  0.25500000000E-02 0.  1.
    5000001    1    1    2    0    0 -0.68056198886E+02  0.26236353551E+02 -0.81378062089E+03  0.82685421411E+03  0.12700000000E+03 0.  0.
   -5000001    1    1    2    0    0  0.68056198886E+02 -0.26236353551E+02 -0.34579688887E+03  0.37553226333E+03  0.12700000000E+03 0.  0.
<mgrwt>
<rscale>  0 0.31798308E+03</rscale>
<asrwt>0</asrwt>
<pdfrwt beam="1">  1        2 0.16871167E+00 0.31798308E+03</pdfrwt>
<pdfrwt beam="2">  1       -2 0.30577842E-02 0.31798308E+03</pdfrwt>
<totfact> 0.94776164E+03</totfact>
</mgrwt>
</event>
<event>
 4    1  0.1399921E-004  0.2643837E+03  0.7818608E-02  0.1104538E+00
         -2   -1    0    0    0  501 -0.00000000000E+00  0.00000000000E+00  0.83775003250E+02  0.83775003289E+02  0.25500000000E-02 0. -1.
          2   -1    0    0  501    0  0.00000000000E+00 -0.00000000000E+00 -0.20859068469E+03  0.20859068470E+03  0.25500000000E-02 0.  1.
    5000001    1    1    2    0    0 -0.32658710974E+02  0.15933846008E+02 -0.56855865467E+02  0.14381261519E+03  0.12700000000E+03 0.  0.
   -5000001    1    1    2    0    0  0.32658710974E+02 -0.15933846008E+02 -0.67959815973E+02  0.14855307280E+03  0.12700000000E+03 0.  0.
<mgrwt>
<rscale>  0 0.26438370E+03</rscale>
<asrwt>0</asrwt>
<pdfrwt beam="1">  1        2 0.29798669E-01 0.26438370E+03</pdfrwt>
<pdfrwt beam="2">  1       -2 0.11967858E-01 0.26438370E+03</pdfrwt>
<totfact> 0.86744075E+03</totfact>
</mgrwt>
</event>
<event>
 4    1  0.1399921E-004  0.3930365E+03  0.7818608E-02  0.1046218E+00
         -2   -1    0    0    0  501 -0.00000000000E+00  0.00000000000E+00  0.10153412543E+03  0.10153412546E+03  0.25500000000E-02 0. -1.
          2   -1    0    0  501    0  0.00000000000E+00 -0.00000000000E+00 -0.38035909488E+03  0.38035909489E+03  0.25500000000E-02 0.  1.
    5000001    1    1    2    0    0  0.11440329496E+03  0.48276564345E+02 -0.24251741481E+03  0.30060345482E+03  0.12700000000E+03 0.  0.
   -5000001    1    1    2    0    0 -0.11440329496E+03 -0.48276564345E+02 -0.36307554632E+02  0.18128976553E+03  0.12700000000E+03 0.  0.
<mgrwt>
<rscale>  0 0.39303653E+03</rscale>
<asrwt>0</asrwt>
<pdfrwt beam="1">  1        2 0.54337013E-01 0.39303653E+03</pdfrwt>
<pdfrwt beam="2">  1       -2 0.14504875E-01 0.39303653E+03</pdfrwt>
<totfact> 0.33345577E+03</totfact>
</mgrwt>
</event>
<event>
 4    1  0.1399921E-004  0.6139565E+03  0.7818608E-02  0.9876866E-01
          2   -1    0    0  501    0  0.00000000000E+00  0.00000000000E+00  0.71636932319E+03  0.71636932319E+03  0.25500000000E-02 0.  1.
         -2   -1    0    0    0  501 -0.00000000000E+00 -0.00000000000E+00 -0.13154617506E+03  0.13154617509E+03  0.25500000000E-02 0. -1.
    5000001    1    1    2    0    0 -0.15379899772E+03  0.20743361187E+03  0.14479998714E+03  0.32214728201E+03  0.12700000000E+03 0.  0.
   -5000001    1    1    2    0    0  0.15379899772E+03 -0.20743361187E+03  0.44002316099E+03  0.52576821627E+03  0.12700000000E+03 0.  0.
<mgrwt>
<rscale>  0 0.61395649E+03</rscale>
<asrwt>0</asrwt>
<pdfrwt beam="1">  1        2 0.10233848E+00 0.61395649E+03</pdfrwt>
<pdfrwt beam="2">  1       -2 0.18792310E-01 0.61395649E+03</pdfrwt>
<totfact> 0.10429727E+03</totfact>
</mgrwt>
</event>
<event>
 4    1  0.1399921E-004  0.5845287E+03  0.7818608E-02  0.9938034E-01
         -2   -1    0    0    0  501 -0.00000000000E+00  0.00000000000E+00  0.30335141984E+02  0.30335142091E+02  0.25500000000E-02 0. -1.
          2   -1    0    0  501    0  0.00000000000E+00 -0.00000000000E+00 -0.28158247235E+04  0.28158247235E+04  0.25500000000E-02 0.  1.
    5000001    1    1    2    0    0 -0.20991878879E+03  0.12542546715E+03 -0.18671312358E+04  0.18873540997E+04  0.12700000000E+03 0.  0.
   -5000001    1    1    2    0    0  0.20991878879E+03 -0.12542546715E+03 -0.91835834572E+03  0.95880576597E+03  0.12700000000E+03 0.  0.
<mgrwt>
<rscale>  0 0.58452867E+03</rscale>
<asrwt>0</asrwt>
<pdfrwt beam="1">  1        2 0.40226051E+00 0.58452867E+03</pdfrwt>
<pdfrwt beam="2">  1       -2 0.43335935E-02 0.58452867E+03</pdfrwt>
<totfact> 0.81210668E+02</totfact>
</mgrwt>
</event>
<event>
 4    1  0.1399921E-004  0.7032333E+03  0.7818608E-02  0.9711719E-01
          2   -1    0    0  501    0  0.00000000000E+00  0.00000000000E+00  0.84278675318E+03  0.84278675318E+03  0.25500000000E-02 0.  1.
         -2   -1    0    0    0  501 -0.00000000000E+00 -0.00000000000E+00 -0.14669698642E+03  0.14669698644E+03  0.25500000000E-02 0. -1.
    5000001    1    1    2    0    0  0.36441242235E+02 -0.29202611192E+03  0.55145016877E+03  0.63783501222E+03  0.12700000000E+03 0.  0.
   -5000001    1    1    2    0    0 -0.36441242235E+02  0.29202611192E+03  0.14463959798E+03  0.35164872740E+03  0.12700000000E+03 0.  0.
<mgrwt>
<rscale>  0 0.70323332E+03</rscale>
<asrwt>0</asrwt>
<pdfrwt beam="1">  1        2 0.12039810E+00 0.70323332E+03</pdfrwt>
<pdfrwt beam="2">  1       -2 0.20956713E-01 0.70323332E+03</pdfrwt>
<totfact> 0.70022606E+02</totfact>
</mgrwt>
</event>
<event>
 4    1  0.1399921E-004  0.7370139E+03  0.7818608E-02  0.9655947E-01
          2   -1    0    0  501    0  0.00000000000E+00  0.00000000000E+00  0.42625407769E+03  0.42625407770E+03  0.25500000000E-02 0.  1.
         -2   -1    0    0    0  501 -0.00000000000E+00 -0.00000000000E+00 -0.31858313934E+03  0.31858313935E+03  0.25500000000E-02 0. -1.
    5000001    1    1    2    0    0  0.70438667443E+02 -0.31025047422E+03 -0.83442347503E+02  0.35257423045E+03  0.12700000000E+03 0.  0.
   -5000001    1    1    2    0    0 -0.70438667443E+02  0.31025047422E+03  0.19111328585E+03  0.39226298660E+03  0.12700000000E+03 0.  0.
<mgrwt>
<rscale>  0 0.73701387E+03</rscale>
<asrwt>0</asrwt>
<pdfrwt beam="1">  1        2 0.60893440E-01 0.73701387E+03</pdfrwt>
<pdfrwt beam="2">  1       -2 0.45511877E-01 0.73701387E+03</pdfrwt>
<totfact> 0.37121105E+02</totfact>
</mgrwt>
</event>
<event>
 4    1  0.1399921E-004  0.6469473E+03  0.7818608E-02  0.9812524E-01
         -2   -1    0    0    0  501 -0.00000000000E+00  0.00000000000E+00  0.97071642363E+02  0.97071642396E+02  0.25500000000E-02 0.  1.
          2   -1    0    0  501    0  0.00000000000E+00 -0.00000000000E+00 -0.10779172527E+04  0.10779172527E+04  0.25500000000E-02 0. -1.
    5000001    1    1    2    0    0  0.23774955024E+03 -0.17862181951E+03 -0.47463173738E+03  0.57431253614E+03  0.12700000000E+03 0.  0.
   -5000001    1    1    2    0    0 -0.23774955024E+03  0.17862181951E+03 -0.50621387300E+03  0.60067635900E+03  0.12700000000E+03 0.  0.
<mgrwt>
<rscale>  0 0.64694729E+03</rscale>
<asrwt>0</asrwt>
<pdfrwt beam="1">  1        2 0.15398817E+00 0.64694729E+03</pdfrwt>
<pdfrwt beam="2">  1       -2 0.13867378E-01 0.64694729E+03</pdfrwt>
<totfact> 0.10128811E+03</totfact>
</mgrwt>
</event>
<event>
 4    1  0.1399921E-004  0.3025846E+03  0.7818608E-02  0.1083956E+00
         -2   -1    0    0    0  501 -0.00000000000E+00  0.00000000000E+00  0.13936371461E+02  0.13936371694E+02  0.25500000000E-02 0. -1.
          2   -1    0    0  501    0  0.00000000000E+00 -0.00000000000E+00 -0.16424190894E+04  0.16424190894E+04  0.25500000000E-02 0.  1.
    5000001    1    1    2    0    0  0.11502228345E+02  0.79062533916E+02 -0.92055265439E+03  0.93270004558E+03  0.12700000000E+03 0.  0.
   -5000001    1    1    2    0    0 -0.11502228345E+02 -0.79062533916E+02 -0.70793006357E+03  0.72365541554E+03  0.12700000000E+03 0.  0.
<mgrwt>
<rscale>  0 0.30258462E+03</rscale>
<asrwt>0</asrwt>
<pdfrwt beam="1">  1        2 0.23463118E+00 0.30258462E+03</pdfrwt>
<pdfrwt beam="2">  1       -2 0.19909113E-02 0.30258462E+03</pdfrwt>
<totfact> 0.10321404E+04</totfact>
</mgrwt>
</event>
<event>
 4    1  0.1399921E-004  0.1102177E+04  0.7818608E-02  0.9203072E-01
         -2   -1    0    0    0  501 -0.00000000000E+00  0.00000000000E+00  0.40384693975E+03  0.40384693976E+03  0.25500000000E-02 0. -1.
          2   -1    0    0  501    0  0.00000000000E+00 -0.00000000000E+00 -0.75201419660E+03  0.75201419660E+03  0.25500000000E-02 0.  1.
    5000001    1    1    2    0    0  0.44913761994E+03 -0.28942228109E+03 -0.12625782552E+03  0.56352453092E+03  0.12700000000E+03 0.  0.
   -5000001    1    1    2    0    0 -0.44913761994E+03  0.28942228109E+03 -0.22190943133E+03  0.59233660545E+03  0.12700000000E+03 0.  0.
<mgrwt>
<rscale>  0 0.11021772E+04</rscale>
<asrwt>0</asrwt>
<pdfrwt beam="1">  1        2 0.10743060E+00 0.11021772E+04</pdfrwt>
<pdfrwt beam="2">  1       -2 0.57692420E-01 0.11021772E+04</pdfrwt>
<totfact> 0.11496289E+02</totfact>
</mgrwt>
</event>
<event>
 4    1  0.1399921E-004  0.4516089E+03  0.7818608E-02  0.1027243E+00
         -2   -1    0    0    0  501 -0.00000000000E+00  0.00000000000E+00  0.16660288783E+02  0.16660288978E+02  0.25500000000E-02 0. -1.
          2   -1    0    0  501    0  0.00000000000E+00 -0.00000000000E+00 -0.30604301846E+04  0.30604301846E+04  0.25500000000E-02 0.  1.
    5000001    1    1    2    0    0  0.17937051632E+03  0.46269491974E+02 -0.13629650047E+04  0.13813461738E+04  0.12700000000E+03 0.  0.
   -5000001    1    1    2    0    0 -0.17937051632E+03 -0.46269491974E+02 -0.16808048912E+04  0.16957442998E+04  0.12700000000E+03 0.  0.
<mgrwt>
<rscale>  0 0.45160891E+03</rscale>
<asrwt>0</asrwt>
<pdfrwt beam="1">  1        2 0.43720395E+00 0.45160891E+03</pdfrwt>
<pdfrwt beam="2">  1       -2 0.23800432E-02 0.45160891E+03</pdfrwt>
<totfact> 0.15092354E+03</totfact>
</mgrwt>
</event>
<event>
 4    1  0.1399921E-004  0.6004406E+03  0.7818608E-02  0.9904492E-01
         -2   -1    0    0    0  501 -0.00000000000E+00  0.00000000000E+00  0.38685206573E+02  0.38685206657E+02  0.25500000000E-02 0. -1.
          2   -1    0    0  501    0  0.00000000000E+00 -0.00000000000E+00 -0.23298887567E+04  0.23298887567E+04  0.25500000000E-02 0.  1.
    5000001    1    1    2    0    0  0.19439488127E+03 -0.11494704792E+03 -0.17438626263E+04  0.17630054035E+04  0.12700000000E+03 0.  0.
   -5000001    1    1    2    0    0 -0.19439488127E+03  0.11494704792E+03 -0.54734092390E+03  0.60556855983E+03  0.12700000000E+03 0.  0.
<mgrwt>
<rscale>  0 0.60044060E+03</rscale>
<asrwt>0</asrwt>
<pdfrwt beam="1">  1        2 0.33284116E+00 0.60044060E+03</pdfrwt>
<pdfrwt beam="2">  1       -2 0.55264596E-02 0.60044060E+03</pdfrwt>
<totfact> 0.99241085E+02</totfact>
</mgrwt>
</event>
<event>
 4    1  0.1399921E-004  0.3557599E+03  0.7818608E-02  0.1060275E+00
          2   -1    0    0  501    0  0.00000000000E+00  0.00000000000E+00  0.38159412031E+02  0.38159412116E+02  0.25500000000E-02 0.  1.
         -2   -1    0    0    0  501 -0.00000000000E+00 -0.00000000000E+00 -0.82918665791E+03  0.82918665792E+03  0.25500000000E-02 0. -1.
    5000001    1    1    2    0    0 -0.47510015823E+02 -0.74243049183E+02 -0.18098202070E+03  0.23801832655E+03  0.12700000000E+03 0.  0.
   -5000001    1    1    2    0    0  0.47510015823E+02  0.74243049183E+02 -0.61004522518E+03  0.62932774348E+03  0.12700000000E+03 0.  0.
<mgrwt>
<rscale>  0 0.35575989E+03</rscale>
<asrwt>0</asrwt>
<pdfrwt beam="1">  1        2 0.54513451E-02 0.35575989E+03</pdfrwt>
<pdfrwt beam="2">  1       -2 0.11845523E+00 0.35575989E+03</pdfrwt>
<totfact> 0.80859580E+02</totfact>
</mgrwt>
</event>
<event>
 4    1  0.1399921E-004  0.4922097E+03  0.7818608E-02  0.1015833E+00
          2   -1    0    0  501    0  0.00000000000E+00  0.00000000000E+00  0.14853763785E+04  0.14853763785E+04  0.25500000000E-02 0.  1.
         -2   -1    0    0    0  501 -0.00000000000E+00 -0.00000000000E+00 -0.40775931043E+02  0.40775931123E+02  0.25500000000E-02 0. -1.
    5000001    1    1    2    0    0 -0.20524035123E+03  0.19825741114E+02  0.58636940230E+03  0.63440896726E+03  0.12700000000E+03 0.  0.
   -5000001    1    1    2    0    0  0.20524035123E+03 -0.19825741114E+02  0.85823104517E+03  0.89174334238E+03  0.12700000000E+03 0.  0.
<mgrwt>
<rscale>  0 0.49220973E+03</rscale>
<asrwt>0</asrwt>
<pdfrwt beam="1">  1        2 0.21219660E+00 0.49220973E+03</pdfrwt>
<pdfrwt beam="2">  1       -2 0.58251336E-02 0.49220973E+03</pdfrwt>
<totfact> 0.24527299E+03</totfact>
</mgrwt>
</event>
<event>
 4    1  0.1399921E-004  0.4784031E+03  0.7818608E-02  0.1019575E+00
          2   -1    0    0  501    0  0.00000000000E+00  0.00000000000E+00  0.37189579173E+03  0.37189579174E+03  0.25500000000E-02 0.  1.
         -2   -1    0    0    0  501 -0.00000000000E+00 -0.00000000000E+00 -0.15385327926E+03  0.15385327928E+03  0.25500000000E-02 0. -1.
    5000001    1    1    2    0    0 -0.29558353081E+02  0.20051545825E+03  0.11217624285E+03  0.26418299471E+03  0.12700000000E+03 0.  0.
   -5000001    1    1    2    0    0  0.29558353081E+02 -0.20051545825E+03  0.10586626962E+03  0.26156607631E+03  0.12700000000E+03 0.  0.
<mgrwt>
<rscale>  0 0.47840312E+03</rscale>
<asrwt>0</asrwt>
<pdfrwt beam="1">  1        2 0.53127971E-01 0.47840312E+03</pdfrwt>
<pdfrwt beam="2">  1       -2 0.21979040E-01 0.47840312E+03</pdfrwt>
<totfact> 0.16864144E+03</totfact>
</mgrwt>
</event>
<event>
 4    1  0.1399921E-004  0.2978557E+03  0.7818608E-02  0.1086317E+00
          2   -1    0    0  501    0  0.00000000000E+00  0.00000000000E+00  0.46000842838E+03  0.46000842838E+03  0.25500000000E-02 0.  1.
         -2   -1    0    0    0  501 -0.00000000000E+00 -0.00000000000E+00 -0.48215443429E+02  0.48215443497E+02  0.25500000000E-02 0. -1.
    5000001    1    1    2    0    0 -0.37637702461E+02 -0.33757068343E+02  0.30675993441E+03  0.33583745126E+03  0.12700000000E+03 0.  0.
   -5000001    1    1    2    0    0  0.37637702461E+02  0.33757068343E+02  0.10503305054E+03  0.17238642062E+03  0.12700000000E+03 0.  0.
<mgrwt>
<rscale>  0 0.29785574E+03</rscale>
<asrwt>0</asrwt>
<pdfrwt beam="1">  1        2 0.65715488E-01 0.29785574E+03</pdfrwt>
<pdfrwt beam="2">  1       -2 0.68879207E-02 0.29785574E+03</pdfrwt>
<totfact> 0.88519995E+03</totfact>
</mgrwt>
</event>
<event>
 4    1  0.1399921E-004  0.3508939E+03  0.7818608E-02  0.1062249E+00
         -2   -1    0    0    0  501 -0.00000000000E+00  0.00000000000E+00  0.55085188697E+02  0.55085188756E+02  0.25500000000E-02 0. -1.
          2   -1    0    0  501    0  0.00000000000E+00 -0.00000000000E+00 -0.55880044659E+03  0.55880044660E+03  0.25500000000E-02 0.  1.
    5000001    1    1    2    0    0 -0.11155805516E+03 -0.46605083810E+02 -0.24144932615E+03  0.29840243063E+03  0.12700000000E+03 0.  0.
   -5000001    1    1    2    0    0  0.11155805516E+03  0.46605083810E+02 -0.26226593175E+03  0.31548320472E+03  0.12700000000E+03 0.  0.
<mgrwt>
<rscale>  0 0.35089388E+03</rscale>
<asrwt>0</asrwt>
<pdfrwt beam="1">  1        2 0.79828632E-01 0.35089388E+03</pdfrwt>
<pdfrwt beam="2">  1       -2 0.78693130E-02 0.35089388E+03</pdfrwt>
<totfact> 0.58173818E+03</totfact>
</mgrwt>
</event>
<event>
 4    1  0.1399921E-004  0.3643444E+03  0.7818608E-02  0.1056877E+00
         -2   -1    0    0    0  501 -0.00000000000E+00  0.00000000000E+00  0.14181164454E+02  0.14181164683E+02  0.25500000000E-02 0. -1.
          2   -1    0    0  501    0  0.00000000000E+00 -0.00000000000E+00 -0.23401961730E+04  0.23401961730E+04  0.25500000000E-02 0.  1.
    5000001    1    1    2    0    0 -0.11661026832E+03 -0.10697591680E+02 -0.15367585620E+04  0.15464372833E+04  0.12700000000E+03 0.  0.
   -5000001    1    1    2    0    0  0.11661026832E+03  0.10697591680E+02 -0.78925644655E+03  0.80794005444E+03  0.12700000000E+03 0.  0.
<mgrwt>
<rscale>  0 0.36434438E+03</rscale>
<asrwt>0</asrwt>
<pdfrwt beam="1">  1        2 0.33431349E+00 0.36434438E+03</pdfrwt>
<pdfrwt beam="2">  1       -2 0.20258821E-02 0.36434438E+03</pdfrwt>
<totfact> 0.45568346E+03</totfact>
</mgrwt>
</event>
<event>
 4    1  0.1399921E-004  0.2897223E+03  0.7818608E-02  0.1090494E+00
         -2   -1    0    0    0  501 -0.00000000000E+00  0.00000000000E+00  0.16728652355E+02  0.16728652549E+02  0.25500000000E-02 0. -1.
          2   -1    0    0  501    0  0.00000000000E+00 -0.00000000000E+00 -0.12544202014E+04  0.12544202014E+04  0.25500000000E-02 0.  1.
    5000001    1    1    2    0    0  0.64400976115E+02  0.17782813881E+02 -0.70571832841E+03  0.72016044966E+03  0.12700000000E+03 0.  0.
   -5000001    1    1    2    0    0 -0.64400976115E+02 -0.17782813881E+02 -0.53197322059E+03  0.55098840425E+03  0.12700000000E+03 0.  0.
<mgrwt>
<rscale>  0 0.28972235E+03</rscale>
<asrwt>0</asrwt>
<pdfrwt beam="1">  1        2 0.17920283E+00 0.28972235E+03</pdfrwt>
<pdfrwt beam="2">  1       -2 0.23898083E-02 0.28972235E+03</pdfrwt>
<totfact> 0.12446684E+04</totfact>
</mgrwt>
</event>
<event>
 4    1  0.1399921E-004  0.4227990E+03  0.7818608E-02  0.1036159E+00
          2   -1    0    0  501    0  0.00000000000E+00  0.00000000000E+00  0.12695265625E+03  0.12695265627E+03  0.25500000000E-02 0.  1.
         -2   -1    0    0    0  501 -0.00000000000E+00 -0.00000000000E+00 -0.35201893315E+03  0.35201893316E+03  0.25500000000E-02 0. -1.
    5000001    1    1    2    0    0 -0.62086243669E+02 -0.14721660328E+03 -0.17492589239E+03  0.26880382765E+03  0.12700000000E+03 0.  0.
   -5000001    1    1    2    0    0  0.62086243669E+02  0.14721660328E+03 -0.50140384518E+02  0.21016776178E+03  0.12700000000E+03 0.  0.
<mgrwt>
<rscale>  0 0.42279895E+03</rscale>
<asrwt>0</asrwt>
<pdfrwt beam="1">  1        2 0.18136094E-01 0.42279895E+03</pdfrwt>
<pdfrwt beam="2">  1       -2 0.50288419E-01 0.42279895E+03</pdfrwt>
<totfact> 0.11914001E+03</totfact>
</mgrwt>
</event>
<event>
 4    1  0.1399921E-004  0.2806734E+03  0.7818608E-02  0.1095322E+00
          2   -1    0    0  501    0  0.00000000000E+00  0.00000000000E+00  0.10807117377E+04  0.10807117377E+04  0.25500000000E-02 0.  1.
         -2   -1    0    0    0  501 -0.00000000000E+00 -0.00000000000E+00 -0.18223530321E+02  0.18223530499E+02  0.25500000000E-02 0. -1.
    5000001    1    1    2    0    0  0.99801863572E+01 -0.42280635710E+02  0.37085187248E+03  0.39439493860E+03  0.12700000000E+03 0.  0.
   -5000001    1    1    2    0    0 -0.99801863572E+01  0.42280635710E+02  0.69163633492E+03  0.70454032962E+03  0.12700000000E+03 0.  0.
<mgrwt>
<rscale>  0 0.28067336E+03</rscale>
<asrwt>0</asrwt>
<pdfrwt beam="1">  1        2 0.15438735E+00 0.28067336E+03</pdfrwt>
<pdfrwt beam="2">  1       -2 0.26033622E-02 0.28067336E+03</pdfrwt>
<totfact> 0.13650533E+04</totfact>
</mgrwt>
</event>
<event>
 4    1  0.1399921E-004  0.4026386E+03  0.7818608E-02  0.1042870E+00
         -2   -1    0    0    0  501 -0.00000000000E+00  0.00000000000E+00  0.34772309598E+02  0.34772309691E+02  0.25500000000E-02 0. -1.
          2   -1    0    0  501    0  0.00000000000E+00 -0.00000000000E+00 -0.11655669894E+04  0.11655669894E+04  0.25500000000E-02 0.  1.
    5000001    1    1    2    0    0  0.11772959752E+03 -0.10010656275E+03 -0.49748953493E+03  0.53619625083E+03  0.12700000000E+03 0.  0.
   -5000001    1    1    2    0    0 -0.11772959752E+03  0.10010656275E+03 -0.63330514483E+03  0.66414304822E+03  0.12700000000E+03 0.  0.
<mgrwt>
<rscale>  0 0.40263858E+03</rscale>
<asrwt>0</asrwt>
<pdfrwt beam="1">  1        2 0.16650955E+00 0.40263858E+03</pdfrwt>
<pdfrwt beam="2">  1       -2 0.49674735E-02 0.40263858E+03</pdfrwt>
<totfact> 0.46539167E+03</totfact>
</mgrwt>
</event>
<event>
 4    1  0.1399921E-004  0.5270875E+03  0.7818608E-02  0.1006941E+00
         -2   -1    0    0    0  501 -0.00000000000E+00  0.00000000000E+00  0.92592184597E+02  0.92592184632E+02  0.25500000000E-02 0. -1.
          2   -1    0    0  501    0  0.00000000000E+00 -0.00000000000E+00 -0.75012049250E+03  0.75012049251E+03  0.25500000000E-02 0.  1.
    5000001    1    1    2    0    0 -0.12345516172E+03  0.19388410401E+03 -0.29322622292E+03  0.39362779443E+03  0.12700000000E+03 0.  0.
   -5000001    1    1    2    0    0  0.12345516172E+03 -0.19388410401E+03 -0.36430208499E+03  0.44908488270E+03  0.12700000000E+03 0.  0.
<mgrwt>
<rscale>  0 0.52708745E+03</rscale>
<asrwt>0</asrwt>
<pdfrwt beam="1">  1        2 0.10716007E+00 0.52708745E+03</pdfrwt>
<pdfrwt beam="2">  1       -2 0.13227455E-01 0.52708745E+03</pdfrwt>
<totfact> 0.17856398E+03</totfact>
</mgrwt>
</event>
<event>
 4    1  0.1399921E-004  0.2801021E+03  0.7818608E-02  0.1095633E+00
          2   -1    0    0  501    0  0.00000000000E+00  0.00000000000E+00  0.31944062779E+03  0.31944062780E+03  0.25500000000E-02 0.  1.
         -2   -1    0    0    0  501 -0.00000000000E+00 -0.00000000000E+00 -0.61402022336E+02  0.61402022389E+02  0.25500000000E-02 0. -1.
    5000001    1    1    2    0    0  0.44044902410E+02  0.94373364878E+00  0.75585385661E+02  0.15421736150E+03  0.12700000000E+03 0.  0.
   -5000001    1    1    2    0    0 -0.44044902410E+02 -0.94373364878E+00  0.18245321979E+03  0.22662528869E+03  0.12700000000E+03 0.  0.
<mgrwt>
<rscale>  0 0.28010213E+03</rscale>
<asrwt>0</asrwt>
<pdfrwt beam="1">  1        2 0.45634375E-01 0.28010213E+03</pdfrwt>
<pdfrwt beam="2">  1       -2 0.87717175E-02 0.28010213E+03</pdfrwt>
<totfact> 0.89877602E+03</totfact>
</mgrwt>
</event>
<event>
 4    1  0.1399921E-004  0.4030799E+03  0.7818608E-02  0.1042718E+00
         -2   -1    0    0    0  501 -0.00000000000E+00  0.00000000000E+00  0.26676038484E+03  0.26676038485E+03  0.25500000000E-02 0. -1.
          2   -1    0    0  501    0  0.00000000000E+00 -0.00000000000E+00 -0.15226531228E+03  0.15226531230E+03  0.25500000000E-02 0.  1.
    5000001    1    1    2    0    0  0.15542379953E+03  0.76469603297E+01  0.74465354546E+02  0.21421746542E+03  0.12700000000E+03 0.  0.
   -5000001    1    1    2    0    0 -0.15542379953E+03 -0.76469603297E+01  0.40029718013E+02  0.20480823173E+03  0.12700000000E+03 0.  0.
<mgrwt>
<rscale>  0 0.40307991E+03</rscale>
<asrwt>0</asrwt>
<pdfrwt beam="1">  1        2 0.21752188E-01 0.40307991E+03</pdfrwt>
<pdfrwt beam="2">  1       -2 0.38108626E-01 0.40307991E+03</pdfrwt>
<totfact> 0.16610226E+03</totfact>
</mgrwt>
</event>
<event>
 4    1  0.1399921E-004  0.9235467E+03  0.7818608E-02  0.9396616E-01
          2   -1    0    0  501    0  0.00000000000E+00  0.00000000000E+00  0.16152749355E+04  0.16152749355E+04  0.25500000000E-02 0.  1.
         -2   -1    0    0    0  501 -0.00000000000E+00 -0.00000000000E+00 -0.13201136427E+03  0.13201136430E+03  0.25500000000E-02 0. -1.
    5000001    1    1    2    0    0  0.10010116444E+03  0.20932379823E+03  0.25519323130E+02  0.26573846443E+03  0.12700000000E+03 0.  0.
   -5000001    1    1    2    0    0 -0.10010116444E+03 -0.20932379823E+03  0.14577442481E+04  0.14815478354E+04  0.12700000000E+03 0.  0.
<mgrwt>
<rscale>  0 0.92354675E+03</rscale>
<asrwt>0</asrwt>
<pdfrwt beam="1">  1        2 0.23075355E+00 0.92354675E+03</pdfrwt>
<pdfrwt beam="2">  1       -2 0.18858768E-01 0.92354675E+03</pdfrwt>
<totfact> 0.30109780E+02</totfact>
</mgrwt>
</event>
<event>
 4    1  0.1399921E-004  0.3166636E+03  0.7818608E-02  0.1077195E+00
          2   -1    0    0  501    0  0.00000000000E+00  0.00000000000E+00  0.64519633865E+03  0.64519633865E+03  0.25500000000E-02 0.  1.
         -2   -1    0    0    0  501 -0.00000000000E+00 -0.00000000000E+00 -0.38854765626E+02  0.38854765710E+02  0.25500000000E-02 0. -1.
    5000001    1    1    2    0    0  0.16745709416E+02  0.76809489406E+02  0.18968744777E+03  0.24143414069E+03  0.12700000000E+03 0.  0.
   -5000001    1    1    2    0    0 -0.16745709416E+02 -0.76809489406E+02  0.41665412525E+03  0.44261696367E+03  0.12700000000E+03 0.  0.
<mgrwt>
<rscale>  0 0.31666356E+03</rscale>
<asrwt>0</asrwt>
<pdfrwt beam="1">  1        2 0.92170911E-01 0.31666356E+03</pdfrwt>
<pdfrwt beam="2">  1       -2 0.55506805E-02 0.31666356E+03</pdfrwt>
<totfact> 0.84474686E+03</totfact>
</mgrwt>
</event>
<event>
 4    1  0.1399921E-004  0.2663947E+03  0.7818608E-02  0.1103361E+00
         -2   -1    0    0    0  501 -0.00000000000E+00  0.00000000000E+00  0.13908103229E+02  0.13908103462E+02  0.25500000000E-02 0. -1.
          2   -1    0    0  501    0  0.00000000000E+00 -0.00000000000E+00 -0.12756259661E+04  0.12756259661E+04  0.25500000000E-02 0.  1.
    5000001    1    1    2    0    0  0.39476982902E+01 -0.18810038703E+02 -0.46018527297E+03  0.47777493377E+03  0.12700000000E+03 0.  0.
   -5000001    1    1    2    0    0 -0.39476982902E+01  0.18810038703E+02 -0.80153258991E+03  0.81175913581E+03  0.12700000000E+03 0.  0.
<mgrwt>
<rscale>  0 0.26639473E+03</rscale>
<asrwt>0</asrwt>
<pdfrwt beam="1">  1        2 0.18223221E+00 0.26639473E+03</pdfrwt>
<pdfrwt beam="2">  1       -2 0.19868727E-02 0.26639473E+03</pdfrwt>
<totfact> 0.15880118E+04</totfact>
</mgrwt>
</event>
<event>
 4    1  0.1399921E-004  0.3596809E+03  0.7818608E-02  0.1058710E+00
          2   -1    0    0  501    0  0.00000000000E+00  0.00000000000E+00  0.33022776086E+04  0.33022776086E+04  0.25500000000E-02 0.  1.
         -2   -1    0    0    0  501 -0.00000000000E+00 -0.00000000000E+00 -0.97940265962E+01  0.97940269282E+01  0.25500000000E-02 0. -1.
    5000001    1    1    2    0    0 -0.11027260673E+03 -0.10884307564E+02  0.22238841577E+04  0.22302619270E+04  0.12700000000E+03 0.  0.
   -5000001    1    1    2    0    0  0.11027260673E+03  0.10884307564E+02  0.10685994243E+04  0.10818097086E+04  0.12700000000E+03 0.  0.
<mgrwt>
<rscale>  0 0.35968094E+03</rscale>
<asrwt>0</asrwt>
<pdfrwt beam="1">  1        2 0.47175442E+00 0.35968094E+03</pdfrwt>
<pdfrwt beam="2">  1       -2 0.13991453E-02 0.35968094E+03</pdfrwt>
<totfact> 0.24625951E+03</totfact>
</mgrwt>
</event>
<event>
 4    1  0.1399921E-004  0.3808144E+03  0.7818608E-02  0.1050633E+00
          2   -1    0    0  501    0  0.00000000000E+00  0.00000000000E+00  0.24837036289E+04  0.24837036289E+04  0.25500000000E-02 0.  1.
         -2   -1    0    0    0  501 -0.00000000000E+00 -0.00000000000E+00 -0.14597112923E+02  0.14597113145E+02  0.25500000000E-02 0. -1.
    5000001    1    1    2    0    0 -0.12983271436E+03  0.56623200226E+02  0.12867001425E+04  0.13006878861E+04  0.12700000000E+03 0.  0.
   -5000001    1    1    2    0    0  0.12983271436E+03 -0.56623200226E+02  0.11824063735E+04  0.11976128559E+04  0.12700000000E+03 0.  0.
<mgrwt>
<rscale>  0 0.38081440E+03</rscale>
<asrwt>0</asrwt>
<pdfrwt beam="1">  1        2 0.35481471E+00 0.38081440E+03</pdfrwt>
<pdfrwt beam="2">  1       -2 0.20853024E-02 0.38081440E+03</pdfrwt>
<totfact> 0.36968996E+03</totfact>
</mgrwt>
</event>
<event>
 4    1  0.1399921E-004  0.4219802E+03  0.7818608E-02  0.1036424E+00
         -2   -1    0    0    0  501 -0.00000000000E+00  0.00000000000E+00  0.29309810410E+03  0.29309810411E+03  0.25500000000E-02 0. -1.
          2   -1    0    0  501    0  0.00000000000E+00 -0.00000000000E+00 -0.15188369484E+03  0.15188369486E+03  0.25500000000E-02 0.  1.
    5000001    1    1    2    0    0 -0.10764055751E+03 -0.80615525908E+02  0.17764098320E+03  0.25645793330E+03  0.12700000000E+03 0.  0.
   -5000001    1    1    2    0    0  0.10764055751E+03  0.80615525908E+02 -0.36426573944E+02  0.18852386567E+03  0.12700000000E+03 0.  0.
<mgrwt>
<rscale>  0 0.42198020E+03</rscale>
<asrwt>0</asrwt>
<pdfrwt beam="1">  1        2 0.21697671E-01 0.42198020E+03</pdfrwt>
<pdfrwt beam="2">  1       -2 0.41871158E-01 0.42198020E+03</pdfrwt>
<totfact> 0.13901588E+03</totfact>
</mgrwt>
</event>
<event>
 4    1  0.1399921E-004  0.3351831E+03  0.7818608E-02  0.1068866E+00
         -2   -1    0    0    0  501 -0.00000000000E+00  0.00000000000E+00  0.20267183945E+02  0.20267184106E+02  0.25500000000E-02 0. -1.
          2   -1    0    0  501    0  0.00000000000E+00 -0.00000000000E+00 -0.13858330395E+04  0.13858330395E+04  0.25500000000E-02 0.  1.
    5000001    1    1    2    0    0 -0.51994692885E+02  0.46003708824E+02 -0.32835595048E+03  0.35884038168E+03  0.12700000000E+03 0.  0.
   -5000001    1    1    2    0    0  0.51994692885E+02 -0.46003708824E+02 -0.10372099051E+04  0.10472598419E+04  0.12700000000E+03 0.  0.
<mgrwt>
<rscale>  0 0.33518313E+03</rscale>
<asrwt>0</asrwt>
<pdfrwt beam="1">  1        2 0.19797609E+00 0.33518313E+03</pdfrwt>
<pdfrwt beam="2">  1       -2 0.28953129E-02 0.33518313E+03</pdfrwt>
<totfact> 0.80041145E+03</totfact>
</mgrwt>
</event>
<event>
 4    1  0.1399921E-004  0.2860027E+03  0.7818608E-02  0.1092455E+00
          2   -1    0    0  501    0  0.00000000000E+00  0.00000000000E+00  0.10553434682E+04  0.10553434682E+04  0.25500000000E-02 0.  1.
         -2   -1    0    0    0  501 -0.00000000000E+00 -0.00000000000E+00 -0.19377002482E+02  0.19377002649E+02  0.25500000000E-02 0. -1.
    5000001    1    1    2    0    0 -0.56148373396E+02 -0.11065268158E+02  0.63947546467E+03  0.65447150427E+03  0.12700000000E+03 0.  0.
   -5000001    1    1    2    0    0  0.56148373396E+02  0.11065268158E+02  0.39649100101E+03  0.42024896654E+03  0.12700000000E+03 0.  0.
<mgrwt>
<rscale>  0 0.28600275E+03</rscale>
<asrwt>0</asrwt>
<pdfrwt beam="1">  1        2 0.15076341E+00 0.28600275E+03</pdfrwt>
<pdfrwt beam="2">  1       -2 0.27681422E-02 0.28600275E+03</pdfrwt>
<totfact> 0.12893694E+04</totfact>
</mgrwt>
</event>
<event>
 4    1  0.1399921E-004  0.3586770E+03  0.7818608E-02  0.1059109E+00
         -2   -1    0    0    0  501 -0.00000000000E+00  0.00000000000E+00  0.17837643208E+02  0.17837643391E+02  0.25500000000E-02 0. -1.
          2   -1    0    0  501    0  0.00000000000E+00 -0.00000000000E+00 -0.18030575717E+04  0.18030575717E+04  0.25500000000E-02 0.  1.
    5000001    1    1    2    0    0  0.10654969726E+03 -0.27948743383E+02 -0.12096223897E+04  0.12212490720E+04  0.12700000000E+03 0.  0.
   -5000001    1    1    2    0    0 -0.10654969726E+03  0.27948743383E+02 -0.57559753885E+03  0.59964614313E+03  0.12700000000E+03 0.  0.
<mgrwt>
<rscale>  0 0.35867700E+03</rscale>
<asrwt>0</asrwt>
<pdfrwt beam="1">  1        2 0.25757954E+00 0.35867700E+03</pdfrwt>
<pdfrwt beam="2">  1       -2 0.25482359E-02 0.35867700E+03</pdfrwt>
<totfact> 0.59683814E+03</totfact>
</mgrwt>
</event>
<event>
 4    1  0.1399921E-004  0.3844917E+03  0.7818608E-02  0.1049286E+00
         -2   -1    0    0    0  501 -0.00000000000E+00  0.00000000000E+00  0.31887272285E+03  0.31887272286E+03  0.25500000000E-02 0. -1.
          2   -1    0    0  501    0  0.00000000000E+00 -0.00000000000E+00 -0.11590353356E+03  0.11590353359E+03  0.25500000000E-02 0.  1.
    5000001    1    1    2    0    0  0.44300575334E+02 -0.53632212167E+02  0.24447605307E+03  0.28414168241E+03  0.12700000000E+03 0.  0.
   -5000001    1    1    2    0    0 -0.44300575334E+02  0.53632212167E+02 -0.41506863782E+02  0.15063457405E+03  0.12700000000E+03 0.  0.
<mgrwt>
<rscale>  0 0.38449174E+03</rscale>
<asrwt>0</asrwt>
<pdfrwt beam="1">  1        2 0.16557648E-01 0.38449174E+03</pdfrwt>
<pdfrwt beam="2">  1       -2 0.45553246E-01 0.38449174E+03</pdfrwt>
<totfact> 0.16137481E+03</totfact>
</mgrwt>
</event>
<event>
 4    1  0.1399921E-004  0.6133057E+03  0.7818608E-02  0.9878179E-01
         -2   -1    0    0    0  501 -0.00000000000E+00  0.00000000000E+00  0.18620119613E+03  0.18620119615E+03  0.25500000000E-02 0. -1.
          2   -1    0    0  501    0  0.00000000000E+00 -0.00000000000E+00 -0.50502352496E+03  0.50502352496E+03  0.25500000000E-02 0.  1.
    5000001    1    1    2    0    0 -0.15709054851E+03  0.21376948474E+03 -0.61597000096E+02  0.30049629525E+03  0.12700000000E+03 0.  0.
   -5000001    1    1    2    0    0  0.15709054851E+03 -0.21376948474E+03 -0.25722532873E+03  0.39072842586E+03  0.12700000000E+03 0.  0.
<mgrwt>
<rscale>  0 0.61330575E+03</rscale>
<asrwt>0</asrwt>
<pdfrwt beam="1">  1        2 0.72146217E-01 0.61330575E+03</pdfrwt>
<pdfrwt beam="2">  1       -2 0.26600171E-01 0.61330575E+03</pdfrwt>
<totfact> 0.85236547E+02</totfact>
</mgrwt>
</event>
<event>
 4    1  0.1399921E-004  0.3381135E+03  0.7818608E-02  0.1067602E+00
         -2   -1    0    0    0  501 -0.00000000000E+00  0.00000000000E+00  0.12224375845E+02  0.12224376111E+02  0.25500000000E-02 0. -1.
          2   -1    0    0  501    0  0.00000000000E+00 -0.00000000000E+00 -0.23379673442E+04  0.23379673442E+04  0.25500000000E-02 0.  1.
    5000001    1    1    2    0    0 -0.84781081117E+02 -0.53342310943E+02 -0.15046660093E+04  0.15133347394E+04  0.12700000000E+03 0.  0.
   -5000001    1    1    2    0    0  0.84781081117E+02  0.53342310943E+02 -0.82107695899E+03  0.83685698088E+03  0.12700000000E+03 0.  0.
<mgrwt>
<rscale>  0 0.33811354E+03</rscale>
<asrwt>0</asrwt>
<pdfrwt beam="1">  1        2 0.33399505E+00 0.33811354E+03</pdfrwt>
<pdfrwt beam="2">  1       -2 0.17463409E-02 0.33811354E+03</pdfrwt>
<totfact> 0.56939443E+03</totfact>
</mgrwt>
</event>
<event>
 4    1  0.1399921E-004  0.3870093E+03  0.7818608E-02  0.1048373E+00
          2   -1    0    0  501    0  0.00000000000E+00  0.00000000000E+00  0.11270375463E+04  0.11270375463E+04  0.25500000000E-02 0.  1.
         -2   -1    0    0    0  501 -0.00000000000E+00 -0.00000000000E+00 -0.33223429691E+02  0.33223429788E+02  0.25500000000E-02 0. -1.
    5000001    1    1    2    0    0  0.76524696036E+02  0.12379843617E+03  0.58147810007E+03  0.61272168458E+03  0.12700000000E+03 0.  0.
   -5000001    1    1    2    0    0 -0.76524696036E+02 -0.12379843617E+03  0.51233601656E+03  0.54753929153E+03  0.12700000000E+03 0.  0.
<mgrwt>
<rscale>  0 0.38700932E+03</rscale>
<asrwt>0</asrwt>
<pdfrwt beam="1">  1        2 0.16100535E+00 0.38700932E+03</pdfrwt>
<pdfrwt beam="2">  1       -2 0.47462045E-02 0.38700932E+03</pdfrwt>
<totfact> 0.52433135E+03</totfact>
</mgrwt>
</event>
<event>
 4    1  0.1399921E-004  0.4980391E+03  0.7818608E-02  0.1014292E+00
          2   -1    0    0  501    0  0.00000000000E+00  0.00000000000E+00  0.60806246044E+03  0.60806246045E+03  0.25500000000E-02 0.  1.
         -2   -1    0    0    0  501 -0.00000000000E+00 -0.00000000000E+00 -0.10198087550E+03  0.10198087553E+03  0.25500000000E-02 0. -1.
    5000001    1    1    2    0    0 -0.75425406495E+02 -0.19151614358E+03  0.16852422398E+03  0.29478269838E+03  0.12700000000E+03 0.  0.
   -5000001    1    1    2    0    0  0.75425406495E+02  0.19151614358E+03  0.33755736096E+03  0.41526063760E+03  0.12700000000E+03 0.  0.
<mgrwt>
<rscale>  0 0.49803912E+03</rscale>
<asrwt>0</asrwt>
<pdfrwt beam="1">  1        2 0.86866064E-01 0.49803912E+03</pdfrwt>
<pdfrwt beam="2">  1       -2 0.14568697E-01 0.49803912E+03</pdfrwt>
<totfact> 0.19585059E+03</totfact>
</mgrwt>
</event>
<event>
 4    1  0.1399921E-004  0.3539314E+03  0.7818608E-02  0.1061013E+00
          2   -1    0    0  501    0  0.00000000000E+00  0.00000000000E+00  0.22231263553E+03  0.22231263554E+03  0.25500000000E-02 0.  1.
         -2   -1    0    0    0  501 -0.00000000000E+00 -0.00000000000E+00 -0.14086853322E+03  0.14086853324E+03  0.25500000000E-02 0. -1.
    5000001    1    1    2    0    0 -0.62273347922E+02  0.10634789417E+03  0.40826868023E+02  0.18161408978E+03  0.12700000000E+03 0.  0.
   -5000001    1    1    2    0    0  0.62273347922E+02 -0.10634789417E+03  0.40617234285E+02  0.18156707900E+03  0.12700000000E+03 0.  0.
<mgrwt>
<rscale>  0 0.35393138E+03</rscale>
<asrwt>0</asrwt>
<pdfrwt beam="1">  1        2 0.31758947E-01 0.35393138E+03</pdfrwt>
<pdfrwt beam="2">  1       -2 0.20124076E-01 0.35393138E+03</pdfrwt>
<totfact> 0.34385940E+03</totfact>
</mgrwt>
</event>
<event>
 4    1  0.1399921E-004  0.3400412E+03  0.7818608E-02  0.1066778E+00
         -2   -1    0    0    0  501 -0.00000000000E+00  0.00000000000E+00  0.12356266610E+02  0.12356266874E+02  0.25500000000E-02 0. -1.
          2   -1    0    0  501    0  0.00000000000E+00 -0.00000000000E+00 -0.23394608428E+04  0.23394608428E+04  0.25500000000E-02 0.  1.
    5000001    1    1    2    0    0 -0.30159417052E+02 -0.10737582010E+03 -0.10362393379E+04  0.10499333896E+04  0.12700000000E+03 0.  0.
   -5000001    1    1    2    0    0  0.30159417052E+02  0.10737582010E+03 -0.12908652383E+04  0.13018837201E+04  0.12700000000E+03 0.  0.
<mgrwt>
<rscale>  0 0.34004119E+03</rscale>
<asrwt>0</asrwt>
<pdfrwt beam="1">  1        2 0.33420841E+00 0.34004119E+03</pdfrwt>
<pdfrwt beam="2">  1       -2 0.17651825E-02 0.34004119E+03</pdfrwt>
<totfact> 0.55947338E+03</totfact>
</mgrwt>
</event>
<event>
 4    1  0.1399921E-004  0.2698198E+03  0.7818608E-02  0.1101383E+00
          2   -1    0    0  501    0  0.00000000000E+00  0.00000000000E+00  0.10258211425E+03  0.10258211428E+03  0.25500000000E-02 0.  1.
         -2   -1    0    0    0  501 -0.00000000000E+00 -0.00000000000E+00 -0.17742550519E+03  0.17742550520E+03  0.25500000000E-02 0. -1.
    5000001    1    1    2    0    0  0.23294188326E+02  0.31467781713E+02 -0.13332232945E+02  0.13356492403E+03  0.12700000000E+03 0.  0.
   -5000001    1    1    2    0    0 -0.23294188326E+02 -0.31467781713E+02 -0.61511157989E+02  0.14644269546E+03  0.12700000000E+03 0.  0.
<mgrwt>
<rscale>  0 0.26981982E+03</rscale>
<asrwt>0</asrwt>
<pdfrwt beam="1">  1        2 0.14654588E-01 0.26981982E+03</pdfrwt>
<pdfrwt beam="2">  1       -2 0.25346500E-01 0.26981982E+03</pdfrwt>
<totfact> 0.55133529E+03</totfact>
</mgrwt>
</event>
<event>
 4    1  0.1399921E-004  0.4229237E+03  0.7818608E-02  0.1036119E+00
         -2   -1    0    0    0  501 -0.00000000000E+00  0.00000000000E+00  0.18518793996E+02  0.18518794172E+02  0.25500000000E-02 0. -1.
          2   -1    0    0  501    0  0.00000000000E+00 -0.00000000000E+00 -0.24146341536E+04  0.24146341536E+04  0.25500000000E-02 0.  1.
    5000001    1    1    2    0    0 -0.15931479141E+03  0.27500189633E+02 -0.14828048171E+04  0.14969891745E+04  0.12700000000E+03 0.  0.
   -5000001    1    1    2    0    0  0.15931479141E+03 -0.27500189633E+02 -0.91331054253E+03  0.93616377322E+03  0.12700000000E+03 0.  0.
<mgrwt>
<rscale>  0 0.42292369E+03</rscale>
<asrwt>0</asrwt>
<pdfrwt beam="1">  1        2 0.34494753E+00 0.42292369E+03</pdfrwt>
<pdfrwt beam="2">  1       -2 0.26455436E-02 0.42292369E+03</pdfrwt>
<totfact> 0.28016546E+03</totfact>
</mgrwt>
</event>
<event>
 4    1  0.1399921E-004  0.3422395E+03  0.7818608E-02  0.1065846E+00
         -2   -1    0    0    0  501 -0.00000000000E+00  0.00000000000E+00  0.12079101980E+02  0.12079102250E+02  0.25500000000E-02 0. -1.
          2   -1    0    0  501    0  0.00000000000E+00 -0.00000000000E+00 -0.24241849298E+04  0.24241849298E+04  0.25500000000E-02 0.  1.
    5000001    1    1    2    0    0  0.17542397975E+01  0.11358732083E+03 -0.13181160515E+04  0.13290839259E+04  0.12700000000E+03 0.  0.
   -5000001    1    1    2    0    0 -0.17542397975E+01 -0.11358732083E+03 -0.10939897763E+04  0.11071801062E+04  0.12700000000E+03 0.  0.
<mgrwt>
<rscale>  0 0.34223955E+03</rscale>
<asrwt>0</asrwt>
<pdfrwt beam="1">  1        2 0.34631182E+00 0.34223955E+03</pdfrwt>
<pdfrwt beam="2">  1       -2 0.17255876E-02 0.34223955E+03</pdfrwt>
<totfact> 0.52489828E+03</totfact>
</mgrwt>
</event>
<event>
 4    1  0.1399921E-004  0.4553040E+03  0.7818608E-02  0.1026152E+00
         -2   -1    0    0    0  501 -0.00000000000E+00  0.00000000000E+00  0.16074126135E+02  0.16074126337E+02  0.25500000000E-02 0. -1.
          2   -1    0    0  501    0  0.00000000000E+00 -0.00000000000E+00 -0.32241530512E+04  0.32241530512E+04  0.25500000000E-02 0.  1.
    5000001    1    1    2    0    0  0.76897946018E+02 -0.91023995945E+02 -0.26474873685E+04  0.26532088174E+04  0.12700000000E+03 0.  0.
   -5000001    1    1    2    0    0 -0.76897946018E+02  0.91023995945E+02 -0.56059155653E+03  0.58701836018E+03  0.12700000000E+03 0.  0.
<mgrwt>
<rscale>  0 0.45530404E+03</rscale>
<asrwt>0</asrwt>
<pdfrwt beam="1">  1        2 0.46059288E+00 0.45530404E+03</pdfrwt>
<pdfrwt beam="2">  1       -2 0.22963058E-02 0.45530404E+03</pdfrwt>
<totfact> 0.12930914E+03</totfact>
</mgrwt>
</event>
<event>
 4    1  0.1399921E-004  0.9711997E+03  0.7818608E-02  0.9340709E-01
         -2   -1    0    0    0  501 -0.00000000000E+00  0.00000000000E+00  0.10129182640E+03  0.10129182643E+03  0.25500000000E-02 0. -1.
          2   -1    0    0  501    0  0.00000000000E+00 -0.00000000000E+00 -0.23279986359E+04  0.23279986359E+04  0.25500000000E-02 0.  1.
    5000001    1    1    2    0    0  0.30194188208E+03  0.23896664472E+03 -0.17817481063E+04  0.18273010895E+04  0.12700000000E+03 0.  0.
   -5000001    1    1    2    0    0 -0.30194188208E+03 -0.23896664472E+03 -0.44495870320E+03  0.60198937282E+03  0.12700000000E+03 0.  0.
<mgrwt>
<rscale>  0 0.97119974E+03</rscale>
<asrwt>0</asrwt>
<pdfrwt beam="1">  1        2 0.33257120E+00 0.97119974E+03</pdfrwt>
<pdfrwt beam="2">  1       -2 0.14470262E-01 0.97119974E+03</pdfrwt>
<totfact> 0.20397754E+02</totfact>
</mgrwt>
</event>
<event>
 4    1  0.1399921E-004  0.3720276E+03  0.7818608E-02  0.1053920E+00
          2   -1    0    0  501    0  0.00000000000E+00  0.00000000000E+00  0.19018563893E+04  0.19018563894E+04  0.25500000000E-02 0.  1.
         -2   -1    0    0    0  501 -0.00000000000E+00 -0.00000000000E+00 -0.18193345963E+02  0.18193346142E+02  0.25500000000E-02 0. -1.
    5000001    1    1    2    0    0  0.97871859613E+02  0.39048899103E+02  0.13848525518E+04  0.13946502457E+04  0.12700000000E+03 0.  0.
   -5000001    1    1    2    0    0 -0.97871859613E+02 -0.39048899103E+02  0.49881049157E+03  0.52539948984E+03  0.12700000000E+03 0.  0.
<mgrwt>
<rscale>  0 0.37202759E+03</rscale>
<asrwt>0</asrwt>
<pdfrwt beam="1">  1        2 0.27169370E+00 0.37202759E+03</pdfrwt>
<pdfrwt beam="2">  1       -2 0.25990501E-02 0.37202759E+03</pdfrwt>
<totfact> 0.51788306E+03</totfact>
</mgrwt>
</event>
<event>
 4    1  0.1399921E-004  0.2962812E+03  0.7818608E-02  0.1087115E+00
         -2   -1    0    0    0  501 -0.00000000000E+00  0.00000000000E+00  0.34816322713E+02  0.34816322807E+02  0.25500000000E-02 0. -1.
          2   -1    0    0  501    0  0.00000000000E+00 -0.00000000000E+00 -0.63032607842E+03  0.63032607842E+03  0.25500000000E-02 0.  1.
    5000001    1    1    2    0    0  0.60503063476E+02 -0.23810387103E+01 -0.40185823604E+03  0.42577615235E+03  0.12700000000E+03 0.  0.
   -5000001    1    1    2    0    0 -0.60503063476E+02  0.23810387103E+01 -0.19365151967E+03  0.23936624888E+03  0.12700000000E+03 0.  0.
<mgrwt>
<rscale>  0 0.29628119E+03</rscale>
<asrwt>0</asrwt>
<pdfrwt beam="1">  1        2 0.90046576E-01 0.29628119E+03</pdfrwt>
<pdfrwt beam="2">  1       -2 0.49737608E-02 0.29628119E+03</pdfrwt>
<totfact> 0.10240805E+04</totfact>
</mgrwt>
</event>
<event>
 4    1  0.1399921E-004  0.4579259E+03  0.7818608E-02  0.1025384E+00
          2   -1    0    0  501    0  0.00000000000E+00  0.00000000000E+00  0.60661319491E+03  0.60661319492E+03  0.25500000000E-02 0.  1.
         -2   -1    0    0    0  501 -0.00000000000E+00 -0.00000000000E+00 -0.86420849873E+02  0.86420849911E+02  0.25500000000E-02 0. -1.
    5000001    1    1    2    0    0 -0.50094735593E+02 -0.16233232978E+03  0.12961025311E+03  0.24857410472E+03  0.12700000000E+03 0.  0.
   -5000001    1    1    2    0    0  0.50094735593E+02  0.16233232978E+03  0.39058209193E+03  0.44445994011E+03  0.12700000000E+03 0.  0.
<mgrwt>
<rscale>  0 0.45792588E+03</rscale>
<asrwt>0</asrwt>
<pdfrwt beam="1">  1        2 0.86659028E-01 0.45792588E+03</pdfrwt>
<pdfrwt beam="2">  1       -2 0.12345836E-01 0.45792588E+03</pdfrwt>
<totfact> 0.25818671E+03</totfact>
</mgrwt>
</event>
<event>
 4    1  0.1399921E-004  0.3810611E+03  0.7818608E-02  0.1050542E+00
          2   -1    0    0  501    0  0.00000000000E+00  0.00000000000E+00  0.64194112677E+03  0.64194112678E+03  0.25500000000E-02 0.  1.
         -2   -1    0    0    0  501 -0.00000000000E+00 -0.00000000000E+00 -0.56550175955E+02  0.56550176012E+02  0.25500000000E-02 0. -1.
    5000001    1    1    2    0    0  0.13701178372E+03  0.41650792794E+01  0.36087056278E+03  0.40638176613E+03  0.12700000000E+03 0.  0.
   -5000001    1    1    2    0    0 -0.13701178372E+03 -0.41650792794E+01  0.22452038804E+03  0.29210953666E+03  0.12700000000E+03 0.  0.
<mgrwt>
<rscale>  0 0.38106106E+03</rscale>
<asrwt>0</asrwt>
<pdfrwt beam="1">  1        2 0.91705877E-01 0.38106106E+03</pdfrwt>
<pdfrwt beam="2">  1       -2 0.80785964E-02 0.38106106E+03</pdfrwt>
<totfact> 0.47644484E+03</totfact>
</mgrwt>
</event>
<event>
 4    1  0.1399921E-004  0.2723059E+03  0.7818608E-02  0.1099967E+00
          2   -1    0    0  501    0  0.00000000000E+00  0.00000000000E+00  0.12401097804E+04  0.12401097804E+04  0.25500000000E-02 0.  1.
         -2   -1    0    0    0  501 -0.00000000000E+00 -0.00000000000E+00 -0.14948374690E+02  0.14948374907E+02  0.25500000000E-02 0. -1.
    5000001    1    1    2    0    0 -0.27288301802E+01  0.34819004816E+02  0.77149543223E+03  0.78265829809E+03  0.12700000000E+03 0.  0.
   -5000001    1    1    2    0    0  0.27288301802E+01 -0.34819004816E+02  0.45366597344E+03  0.47239985719E+03  0.12700000000E+03 0.  0.
<mgrwt>
<rscale>  0 0.27230590E+03</rscale>
<asrwt>0</asrwt>
<pdfrwt beam="1">  1        2 0.17715852E+00 0.27230590E+03</pdfrwt>
<pdfrwt beam="2">  1       -2 0.21354823E-02 0.27230590E+03</pdfrwt>
<totfact> 0.14928260E+04</totfact>
</mgrwt>
</event>
<event>
 4    1  0.1399921E-004  0.4609923E+03  0.7818608E-02  0.1024494E+00
         -2   -1    0    0    0  501 -0.00000000000E+00  0.00000000000E+00  0.58549169981E+02  0.58549170036E+02  0.25500000000E-02 0. -1.
          2   -1    0    0  501    0  0.00000000000E+00 -0.00000000000E+00 -0.90741655559E+03  0.90741655559E+03  0.25500000000E-02 0.  1.
    5000001    1    1    2    0    0  0.86295158476E+02  0.16147001811E+03 -0.30082139425E+03  0.37435535573E+03  0.12700000000E+03 0.  0.
   -5000001    1    1    2    0    0 -0.86295158476E+02 -0.16147001811E+03 -0.54804599136E+03  0.59161036990E+03  0.12700000000E+03 0.  0.
<mgrwt>
<rscale>  0 0.46099235E+03</rscale>
<asrwt>0</asrwt>
<pdfrwt beam="1">  1        2 0.12963093E+00 0.46099235E+03</pdfrwt>
<pdfrwt beam="2">  1       -2 0.83641677E-02 0.46099235E+03</pdfrwt>
<totfact> 0.29388634E+03</totfact>
</mgrwt>
</event>
<event>
 4    1  0.1399921E-004  0.5118523E+03  0.7818608E-02  0.1010731E+00
         -2   -1    0    0    0  501 -0.00000000000E+00  0.00000000000E+00  0.62387197264E+02  0.62387197316E+02  0.25500000000E-02 0. -1.
          2   -1    0    0  501    0  0.00000000000E+00 -0.00000000000E+00 -0.10498659567E+04  0.10498659567E+04  0.25500000000E-02 0.  1.
    5000001    1    1    2    0    0  0.76955807529E+01 -0.21672401413E+03 -0.59887006135E+03  0.64946352526E+03  0.12700000000E+03 0.  0.
   -5000001    1    1    2    0    0 -0.76955807529E+01  0.21672401413E+03 -0.38860869811E+03  0.46278962878E+03  0.12700000000E+03 0.  0.
<mgrwt>
<rscale>  0 0.51185230E+03</rscale>
<asrwt>0</asrwt>
<pdfrwt beam="1">  1        2 0.14998084E+00 0.51185230E+03</pdfrwt>
<pdfrwt beam="2">  1       -2 0.89124574E-02 0.51185230E+03</pdfrwt>
<totfact> 0.21729994E+03</totfact>
</mgrwt>
</event>
<event>
 4    1  0.1399921E-004  0.2847489E+03  0.7818608E-02  0.1093123E+00
         -2   -1    0    0    0  501 -0.00000000000E+00  0.00000000000E+00  0.69535246955E+01  0.69535251631E+01  0.25500000000E-02 0. -1.
          2   -1    0    0  501    0  0.00000000000E+00 -0.00000000000E+00 -0.29151371860E+04  0.29151371860E+04  0.25500000000E-02 0.  1.
    5000001    1    1    2    0    0 -0.46726669751E+02  0.42634595885E+02 -0.13325018707E+04  0.13400340764E+04  0.12700000000E+03 0.  0.
   -5000001    1    1    2    0    0  0.46726669751E+02 -0.42634595885E+02 -0.15756817906E+04  0.15820566348E+04  0.12700000000E+03 0.  0.
<mgrwt>
<rscale>  0 0.28474887E+03</rscale>
<asrwt>0</asrwt>
<pdfrwt beam="1">  1        2 0.41644739E+00 0.28474887E+03</pdfrwt>
<pdfrwt beam="2">  1       -2 0.99336257E-03 0.28474887E+03</pdfrwt>
<totfact> 0.66244368E+03</totfact>
</mgrwt>
</event>
<event>
 4    1  0.1399921E-004  0.1128658E+04  0.7818608E-02  0.9177702E-01
         -2   -1    0    0    0  501 -0.00000000000E+00  0.00000000000E+00  0.13179530200E+03  0.13179530203E+03  0.25500000000E-02 0. -1.
          2   -1    0    0  501    0  0.00000000000E+00 -0.00000000000E+00 -0.24163764010E+04  0.24163764010E+04  0.25500000000E-02 0.  1.
    5000001    1    1    2    0    0  0.16534906354E+03 -0.49826884385E+03 -0.15113808542E+04  0.16049963364E+04  0.12700000000E+03 0.  0.
   -5000001    1    1    2    0    0 -0.16534906354E+03  0.49826884385E+03 -0.77320024479E+03  0.94317536657E+03  0.12700000000E+03 0.  0.
<mgrwt>
<rscale>  0 0.11286577E+04</rscale>
<asrwt>0</asrwt>
<pdfrwt beam="1">  1        2 0.34519660E+00 0.11286577E+04</pdfrwt>
<pdfrwt beam="2">  1       -2 0.18827902E-01 0.11286577E+04</pdfrwt>
<totfact> 0.11545227E+02</totfact>
</mgrwt>
</event>
<event>
 4    1  0.1399921E-004  0.4867909E+03  0.7818608E-02  0.1017285E+00
          2   -1    0    0  501    0  0.00000000000E+00  0.00000000000E+00  0.23916670609E+04  0.23916670609E+04  0.25500000000E-02 0.  1.
         -2   -1    0    0    0  501 -0.00000000000E+00 -0.00000000000E+00 -0.24769900072E+02  0.24769900203E+02  0.25500000000E-02 0. -1.
    5000001    1    1    2    0    0  0.15130973590E+03  0.10789827090E+03  0.16431409550E+04  0.16584866207E+04  0.12700000000E+03 0.  0.
   -5000001    1    1    2    0    0 -0.15130973590E+03 -0.10789827090E+03  0.72375620574E+03  0.75795034032E+03  0.12700000000E+03 0.  0.
<mgrwt>
<rscale>  0 0.48679094E+03</rscale>
<asrwt>0</asrwt>
<pdfrwt beam="1">  1        2 0.34166646E+00 0.48679094E+03</pdfrwt>
<pdfrwt beam="2">  1       -2 0.35385599E-02 0.48679094E+03</pdfrwt>
<totfact> 0.18477121E+03</totfact>
</mgrwt>
</event>
<event>
 4    1  0.1399921E-004  0.4076164E+03  0.7818608E-02  0.1041174E+00
          2   -1    0    0  501    0  0.00000000000E+00  0.00000000000E+00  0.34957138860E+03  0.34957138861E+03  0.25500000000E-02 0.  1.
         -2   -1    0    0    0  501 -0.00000000000E+00 -0.00000000000E+00 -0.11882488344E+03  0.11882488347E+03  0.25500000000E-02 0. -1.
    5000001    1    1    2    0    0  0.34834393130E+02 -0.12143610320E+03  0.36751160332E+01  0.17917217581E+03  0.12700000000E+03 0.  0.
   -5000001    1    1    2    0    0 -0.34834393130E+02  0.12143610320E+03  0.22707138913E+03  0.28922409627E+03  0.12700000000E+03 0.  0.
<mgrwt>
<rscale>  0 0.40761639E+03</rscale>
<asrwt>0</asrwt>
<pdfrwt beam="1">  1        2 0.49938770E-01 0.40761639E+03</pdfrwt>
<pdfrwt beam="2">  1       -2 0.16974983E-01 0.40761639E+03</pdfrwt>
<totfact> 0.28113998E+03</totfact>
</mgrwt>
</event>
<event>
 4    1  0.1399921E-004  0.4790961E+03  0.7818608E-02  0.1019384E+00
         -2   -1    0    0    0  501 -0.00000000000E+00  0.00000000000E+00  0.50429443516E+02  0.50429443581E+02  0.25500000000E-02 0. -1.
          2   -1    0    0  501    0  0.00000000000E+00 -0.00000000000E+00 -0.11378920174E+04  0.11378920174E+04  0.25500000000E-02 0.  1.
    5000001    1    1    2    0    0 -0.16597712389E+03  0.11537130882E+03 -0.49441573312E+03  0.54903083858E+03  0.12700000000E+03 0.  0.
   -5000001    1    1    2    0    0  0.16597712389E+03 -0.11537130882E+03 -0.59304684077E+03  0.63929062241E+03  0.12700000000E+03 0.  0.
<mgrwt>
<rscale>  0 0.47909607E+03</rscale>
<asrwt>0</asrwt>
<pdfrwt beam="1">  1        2 0.16255599E+00 0.47909607E+03</pdfrwt>
<pdfrwt beam="2">  1       -2 0.72042069E-02 0.47909607E+03</pdfrwt>
<totfact> 0.27089310E+03</totfact>
</mgrwt>
</event>
<event>
 4    1  0.1399921E-004  0.4273706E+03  0.7818608E-02  0.1034694E+00
         -2   -1    0    0    0  501 -0.00000000000E+00  0.00000000000E+00  0.62565608979E+02  0.62565609031E+02  0.25500000000E-02 0. -1.
          2   -1    0    0  501    0  0.00000000000E+00 -0.00000000000E+00 -0.72981628969E+03  0.72981628970E+03  0.25500000000E-02 0.  1.
    5000001    1    1    2    0    0  0.82424050097E+02 -0.13841536413E+03 -0.44455895738E+03  0.48960617199E+03  0.12700000000E+03 0.  0.
   -5000001    1    1    2    0    0 -0.82424050097E+02  0.13841536413E+03 -0.22269172334E+03  0.30277572674E+03  0.12700000000E+03 0.  0.
<mgrwt>
<rscale>  0 0.42737057E+03</rscale>
<asrwt>0</asrwt>
<pdfrwt beam="1">  1        2 0.10425946E+00 0.42737057E+03</pdfrwt>
<pdfrwt beam="2">  1       -2 0.89379446E-02 0.42737057E+03</pdfrwt>
<totfact> 0.34869641E+03</totfact>
</mgrwt>
</event>
<event>
 4    1  0.1399921E-004  0.6477916E+03  0.7818608E-02  0.9810932E-01
          2   -1    0    0  501    0  0.00000000000E+00  0.00000000000E+00  0.12449041856E+04  0.12449041856E+04  0.25500000000E-02 0.  1.
         -2   -1    0    0    0  501 -0.00000000000E+00 -0.00000000000E+00 -0.84270337140E+02  0.84270337178E+02  0.25500000000E-02 0. -1.
    5000001    1    1    2    0    0  0.13782389336E+03  0.13979429026E+03  0.10402329340E+04  0.10661854558E+04  0.12700000000E+03 0.  0.
   -5000001    1    1    2    0    0 -0.13782389336E+03 -0.13979429026E+03  0.12040091452E+03  0.26298906705E+03  0.12700000000E+03 0.  0.
<mgrwt>
<rscale>  0 0.64779162E+03</rscale>
<asrwt>0</asrwt>
<pdfrwt beam="1">  1        2 0.17784344E+00 0.64779162E+03</pdfrwt>
<pdfrwt beam="2">  1       -2 0.12038620E-01 0.64779162E+03</pdfrwt>
<totfact> 0.10287839E+03</totfact>
</mgrwt>
</event>
<event>
 4    1  0.1399921E-004  0.3507978E+03  0.7818608E-02  0.1062288E+00
          2   -1    0    0  501    0  0.00000000000E+00  0.00000000000E+00  0.57280739151E+03  0.57280739151E+03  0.25500000000E-02 0.  1.
         -2   -1    0    0    0  501 -0.00000000000E+00 -0.00000000000E+00 -0.53708762135E+02  0.53708762195E+02  0.25500000000E-02 0. -1.
    5000001    1    1    2    0    0 -0.10099330705E+03  0.59095490824E+01  0.14106490645E+03  0.21508807189E+03  0.12700000000E+03 0.  0.
   -5000001    1    1    2    0    0  0.10099330705E+03 -0.59095490824E+01  0.37803372292E+03  0.41142808182E+03  0.12700000000E+03 0.  0.
<mgrwt>
<rscale>  0 0.35079781E+03</rscale>
<asrwt>0</asrwt>
<pdfrwt beam="1">  1        2 0.81829624E-01 0.35079781E+03</pdfrwt>
<pdfrwt beam="2">  1       -2 0.76726807E-02 0.35079781E+03</pdfrwt>
<totfact> 0.58845850E+03</totfact>
</mgrwt>
</event>
<event>
 4    1  0.1399921E-004  0.7573828E+03  0.7818608E-02  0.9623839E-01
         -2   -1    0    0    0  501 -0.00000000000E+00  0.00000000000E+00  0.48563177438E+03  0.48563177439E+03  0.25500000000E-02 0. -1.
          2   -1    0    0  501    0  0.00000000000E+00 -0.00000000000E+00 -0.29530022543E+03  0.29530022544E+03  0.25500000000E-02 0.  1.
    5000001    1    1    2    0    0  0.21722121380E+03  0.27556513624E+03  0.28686486603E+02  0.37426342935E+03  0.12700000000E+03 0.  0.
   -5000001    1    1    2    0    0 -0.21722121380E+03 -0.27556513624E+03  0.16164506235E+03  0.40666857048E+03  0.12700000000E+03 0.  0.
<mgrwt>
<rscale>  0 0.75738279E+03</rscale>
<asrwt>0</asrwt>
<pdfrwt beam="1">  1        2 0.42185747E-01 0.75738279E+03</pdfrwt>
<pdfrwt beam="2">  1       -2 0.69375968E-01 0.75738279E+03</pdfrwt>
<totfact> 0.23200167E+02</totfact>
</mgrwt>
</event>
<event>
 4    1  0.1399921E-004  0.3596457E+03  0.7818608E-02  0.1058724E+00
         -2   -1    0    0    0  501 -0.00000000000E+00  0.00000000000E+00  0.18477658621E+02  0.18477658797E+02  0.25500000000E-02 0. -1.
          2   -1    0    0  501    0  0.00000000000E+00 -0.00000000000E+00 -0.17500193830E+04  0.17500193830E+04  0.25500000000E-02 0.  1.
    5000001    1    1    2    0    0  0.11560265187E+03 -0.37055363357E+01 -0.60420043093E+03  0.62814398418E+03  0.12700000000E+03 0.  0.
   -5000001    1    1    2    0    0 -0.11560265187E+03  0.37055363357E+01 -0.11273412934E+04  0.11403530576E+04  0.12700000000E+03 0.  0.
<mgrwt>
<rscale>  0 0.35964572E+03</rscale>
<asrwt>0</asrwt>
<pdfrwt beam="1">  1        2 0.25000266E+00 0.35964572E+03</pdfrwt>
<pdfrwt beam="2">  1       -2 0.26396666E-02 0.35964572E+03</pdfrwt>
<totfact> 0.60159228E+03</totfact>
</mgrwt>
</event>
<event>
 4    1  0.1399921E-004  0.3393636E+03  0.7818608E-02  0.1067067E+00
         -2   -1    0    0    0  501 -0.00000000000E+00  0.00000000000E+00  0.49819041299E+02  0.49819041365E+02  0.25500000000E-02 0. -1.
          2   -1    0    0  501    0  0.00000000000E+00 -0.00000000000E+00 -0.57792999885E+03  0.57792999886E+03  0.25500000000E-02 0.  1.
    5000001    1    1    2    0    0 -0.36966784066E+02  0.97202742373E+02 -0.18453627774E+03  0.24697682898E+03  0.12700000000E+03 0.  0.
   -5000001    1    1    2    0    0  0.36966784066E+02 -0.97202742373E+02 -0.34357467981E+03  0.38077221124E+03  0.12700000000E+03 0.  0.
<mgrwt>
<rscale>  0 0.33936363E+03</rscale>
<asrwt>0</asrwt>
<pdfrwt beam="1">  1        2 0.82561424E-01 0.33936363E+03</pdfrwt>
<pdfrwt beam="2">  1       -2 0.71170063E-02 0.33936363E+03</pdfrwt>
<totfact> 0.65459573E+03</totfact>
</mgrwt>
</event>
<event>
 4    1  0.1399921E-004  0.2975529E+03  0.7818608E-02  0.1086470E+00
         -2   -1    0    0    0  501 -0.00000000000E+00  0.00000000000E+00  0.13956028431E+03  0.13956028433E+03  0.25500000000E-02 0. -1.
          2   -1    0    0  501    0  0.00000000000E+00 -0.00000000000E+00 -0.15860127575E+03  0.15860127577E+03  0.25500000000E-02 0.  1.
    5000001    1    1    2    0    0  0.26718823934E+02 -0.49134090540E+02 -0.63271472794E+02  0.15251338851E+03  0.12700000000E+03 0.  0.
   -5000001    1    1    2    0    0 -0.26718823934E+02  0.49134090540E+02  0.44230481352E+02  0.14564817159E+03  0.12700000000E+03 0.  0.
<mgrwt>
<rscale>  0 0.29755295E+03</rscale>
<asrwt>0</asrwt>
<pdfrwt beam="1">  1        2 0.22657325E-01 0.29755295E+03</pdfrwt>
<pdfrwt beam="2">  1       -2 0.19937184E-01 0.29755295E+03</pdfrwt>
<totfact> 0.50681764E+03</totfact>
</mgrwt>
</event>
<event>
 4    1  0.1399921E-004  0.4628597E+03  0.7818608E-02  0.1023955E+00
         -2   -1    0    0    0  501 -0.00000000000E+00  0.00000000000E+00  0.10143937001E+03  0.10143937005E+03  0.25500000000E-02 0. -1.
          2   -1    0    0  501    0  0.00000000000E+00 -0.00000000000E+00 -0.52799789055E+03  0.52799789056E+03  0.25500000000E-02 0.  1.
    5000001    1    1    2    0    0 -0.10033919736E+03 -0.53402663748E+02 -0.42618304164E+03  0.45899976471E+03  0.12700000000E+03 0.  0.
   -5000001    1    1    2    0    0  0.10033919736E+03  0.53402663748E+02 -0.37547889789E+00  0.17043749590E+03  0.12700000000E+03 0.  0.
<mgrwt>
<rscale>  0 0.46285969E+03</rscale>
<asrwt>0</asrwt>
<pdfrwt beam="1">  1        2 0.75428269E-01 0.46285969E+03</pdfrwt>
<pdfrwt beam="2">  1       -2 0.14491339E-01 0.46285969E+03</pdfrwt>
<totfact> 0.23246144E+03</totfact>
</mgrwt>
</event>
<event>
 4    1  0.1399921E-004  0.4305795E+03  0.7818608E-02  0.1033677E+00
         -2   -1    0    0    0  501 -0.00000000000E+00  0.00000000000E+00  0.23373762802E+03  0.23373762803E+03  0.25500000000E-02 0. -1.
          2   -1    0    0  501    0  0.00000000000E+00 -0.00000000000E+00 -0.19829785842E+03  0.19829785843E+03  0.25500000000E-02 0.  1.
    5000001    1    1    2    0    0 -0.12138481907E+03  0.96720793714E+02  0.96288468724E+02  0.22246270574E+03  0.12700000000E+03 0.  0.
   -5000001    1    1    2    0    0  0.12138481907E+03 -0.96720793714E+02 -0.60848699125E+02  0.20957278073E+03  0.12700000000E+03 0.  0.
<mgrwt>
<rscale>  0 0.43057948E+03</rscale>
<asrwt>0</asrwt>
<pdfrwt beam="1">  1        2 0.28328265E-01 0.43057948E+03</pdfrwt>
<pdfrwt beam="2">  1       -2 0.33391090E-01 0.43057948E+03</pdfrwt>
<totfact> 0.15814490E+03</totfact>
</mgrwt>
</event>
<event>
 4    1  0.1399921E-004  0.3019389E+03  0.7818608E-02  0.1084275E+00
         -2   -1    0    0    0  501 -0.00000000000E+00  0.00000000000E+00  0.71719031223E+01  0.71719035756E+01  0.25500000000E-02 0. -1.
          2   -1    0    0  501    0  0.00000000000E+00 -0.00000000000E+00 -0.31779250321E+04  0.31779250321E+04  0.25500000000E-02 0.  1.
    5000001    1    1    2    0    0 -0.68988294675E+01  0.80847260420E+02 -0.16790758149E+04  0.16858257519E+04  0.12700000000E+03 0.  0.
   -5000001    1    1    2    0    0  0.68988294675E+01 -0.80847260420E+02 -0.14916773140E+04  0.14992711838E+04  0.12700000000E+03 0.  0.
<mgrwt>
<rscale>  0 0.30193888E+03</rscale>
<asrwt>0</asrwt>
<pdfrwt beam="1">  1        2 0.45398839E+00 0.30193888E+03</pdfrwt>
<pdfrwt beam="2">  1       -2 0.10245597E-02 0.30193888E+03</pdfrwt>
<totfact> 0.45772371E+03</totfact>
</mgrwt>
</event>
<event>
 4    1  0.1399921E-004  0.3584088E+03  0.7818608E-02  0.1059216E+00
          2   -1    0    0  501    0  0.00000000000E+00  0.00000000000E+00  0.57660516717E+03  0.57660516717E+03  0.25500000000E-02 0.  1.
         -2   -1    0    0    0  501 -0.00000000000E+00 -0.00000000000E+00 -0.55695346177E+02  0.55695346236E+02  0.25500000000E-02 0. -1.
    5000001    1    1    2    0    0 -0.99521572437E+02  0.69443945357E+02  0.32303310420E+03  0.36770421718E+03  0.12700000000E+03 0.  0.
   -5000001    1    1    2    0    0  0.99521572437E+02 -0.69443945357E+02  0.19787671679E+03  0.26459629622E+03  0.12700000000E+03 0.  0.
<mgrwt>
<rscale>  0 0.35840884E+03</rscale>
<asrwt>0</asrwt>
<pdfrwt beam="1">  1        2 0.82372167E-01 0.35840884E+03</pdfrwt>
<pdfrwt beam="2">  1       -2 0.79564780E-02 0.35840884E+03</pdfrwt>
<totfact> 0.55193701E+03</totfact>
</mgrwt>
</event>
<event>
 4    1  0.1399921E-004  0.5030879E+03  0.7818608E-02  0.1012976E+00
          2   -1    0    0  501    0  0.00000000000E+00  0.00000000000E+00  0.35388617554E+03  0.35388617555E+03  0.25500000000E-02 0.  1.
         -2   -1    0    0    0  501 -0.00000000000E+00 -0.00000000000E+00 -0.17879862997E+03  0.17879862999E+03  0.25500000000E-02 0. -1.
    5000001    1    1    2    0    0  0.97295516864E+02  0.36056746181E+02  0.28949706855E+03  0.33272219530E+03  0.12700000000E+03 0.  0.
   -5000001    1    1    2    0    0 -0.97295516864E+02 -0.36056746181E+02 -0.11440952298E+03  0.19996261024E+03  0.12700000000E+03 0.  0.
<mgrwt>
<rscale>  0 0.50308792E+03</rscale>
<asrwt>0</asrwt>
<pdfrwt beam="1">  1        2 0.50555167E-01 0.50308792E+03</pdfrwt>
<pdfrwt beam="2">  1       -2 0.25542662E-01 0.50308792E+03</pdfrwt>
<totfact> 0.13645526E+03</totfact>
</mgrwt>
</event>
<event>
 4    1  0.1399921E-004  0.4613017E+03  0.7818608E-02  0.1024404E+00
          2   -1    0    0  501    0  0.00000000000E+00  0.00000000000E+00  0.14901960881E+03  0.14901960884E+03  0.25500000000E-02 0.  1.
         -2   -1    0    0    0  501 -0.00000000000E+00 -0.00000000000E+00 -0.35699874784E+03  0.35699874784E+03  0.25500000000E-02 0. -1.
    5000001    1    1    2    0    0 -0.68202150342E+02 -0.16803519086E+03 -0.17493897739E+03  0.28217016938E+03  0.12700000000E+03 0.  0.
   -5000001    1    1    2    0    0  0.68202150342E+02  0.16803519086E+03 -0.33040161634E+02  0.22384818730E+03  0.12700000000E+03 0.  0.
<mgrwt>
<rscale>  0 0.46130170E+03</rscale>
<asrwt>0</asrwt>
<pdfrwt beam="1">  1        2 0.21288516E-01 0.46130170E+03</pdfrwt>
<pdfrwt beam="2">  1       -2 0.50999821E-01 0.46130170E+03</pdfrwt>
<totfact> 0.96144472E+02</totfact>
</mgrwt>
</event>
<event>
 4    1  0.1399921E-004  0.3354228E+03  0.7818608E-02  0.1068762E+00
         -2   -1    0    0    0  501 -0.00000000000E+00  0.00000000000E+00  0.19340794504E+02  0.19340794673E+02  0.25500000000E-02 0. -1.
          2   -1    0    0  501    0  0.00000000000E+00 -0.00000000000E+00 -0.14542890576E+04  0.14542890576E+04  0.25500000000E-02 0.  1.
    5000001    1    1    2    0    0 -0.88779782109E+02  0.19693437248E+02 -0.98573577579E+03  0.99803491966E+03  0.12700000000E+03 0.  0.
   -5000001    1    1    2    0    0  0.88779782109E+02 -0.19693437248E+02 -0.44921248733E+03  0.47559493264E+03  0.12700000000E+03 0.  0.
<mgrwt>
<rscale>  0 0.33542275E+03</rscale>
<asrwt>0</asrwt>
<pdfrwt beam="1">  1        2 0.20775551E+00 0.33542275E+03</pdfrwt>
<pdfrwt beam="2">  1       -2 0.27629716E-02 0.33542275E+03</pdfrwt>
<totfact> 0.79122679E+03</totfact>
</mgrwt>
</event>
<event>
 4    1  0.1399921E-004  0.6255825E+03  0.7818608E-02  0.9853707E-01
          2   -1    0    0  501    0  0.00000000000E+00  0.00000000000E+00  0.19920068617E+03  0.19920068619E+03  0.25500000000E-02 0.  1.
         -2   -1    0    0    0  501 -0.00000000000E+00 -0.00000000000E+00 -0.49115480369E+03  0.49115480370E+03  0.25500000000E-02 0. -1.
    5000001    1    1    2    0    0  0.13471512842E+03  0.22049758090E+03 -0.11082975125E+02  0.28813049360E+03  0.12700000000E+03 0.  0.
   -5000001    1    1    2    0    0 -0.13471512842E+03 -0.22049758090E+03 -0.28087114239E+03  0.40222499628E+03  0.12700000000E+03 0.  0.
<mgrwt>
<rscale>  0 0.62558253E+03</rscale>
<asrwt>0</asrwt>
<pdfrwt beam="1">  1        2 0.28457241E-01 0.62558253E+03</pdfrwt>
<pdfrwt beam="2">  1       -2 0.70164971E-01 0.62558253E+03</pdfrwt>
<totfact> 0.35282834E+02</totfact>
</mgrwt>
</event>
<event>
 4    1  0.1399921E-004  0.5867051E+03  0.7818608E-02  0.9933379E-01
          2   -1    0    0  501    0  0.00000000000E+00  0.00000000000E+00  0.37130466861E+03  0.37130466862E+03  0.25500000000E-02 0.  1.
         -2   -1    0    0    0  501 -0.00000000000E+00 -0.00000000000E+00 -0.23176579485E+03  0.23176579486E+03  0.25500000000E-02 0. -1.
    5000001    1    1    2    0    0  0.17986602789E+03 -0.11115806973E+03 -0.93464533545E+02  0.26376603930E+03  0.12700000000E+03 0.  0.
   -5000001    1    1    2    0    0 -0.17986602789E+03  0.11115806973E+03  0.23300340731E+03  0.33930442419E+03  0.12700000000E+03 0.  0.
<mgrwt>
<rscale>  0 0.58670511E+03</rscale>
<asrwt>0</asrwt>
<pdfrwt beam="1">  1        2 0.53043524E-01 0.58670511E+03</pdfrwt>
<pdfrwt beam="2">  1       -2 0.33109400E-01 0.58670511E+03</pdfrwt>
<totfact> 0.80369514E+02</totfact>
</mgrwt>
</event>
<event>
 4    1  0.1399921E-004  0.6241246E+03  0.7818608E-02  0.9856582E-01
         -2   -1    0    0    0  501 -0.00000000000E+00  0.00000000000E+00  0.30120781757E+03  0.30120781758E+03  0.25500000000E-02 0. -1.
          2   -1    0    0  501    0  0.00000000000E+00 -0.00000000000E+00 -0.32330789720E+03  0.32330789721E+03  0.25500000000E-02 0.  1.
    5000001    1    1    2    0    0  0.20758995198E+03 -0.15750805294E+03 -0.12667111043E+03  0.31634940354E+03  0.12700000000E+03 0.  0.
   -5000001    1    1    2    0    0 -0.20758995198E+03  0.15750805294E+03  0.10457103080E+03  0.30816631124E+03  0.12700000000E+03 0.  0.
<mgrwt>
<rscale>  0 0.62412456E+03</rscale>
<asrwt>0</asrwt>
<pdfrwt beam="1">  1        2 0.46186842E-01 0.62412456E+03</pdfrwt>
<pdfrwt beam="2">  1       -2 0.43029688E-01 0.62412456E+03</pdfrwt>
<totfact> 0.56571497E+02</totfact>
</mgrwt>
</event>
<event>
 4    1  0.1399921E-004  0.6045759E+03  0.7818608E-02  0.9895958E-01
         -2   -1    0    0    0  501 -0.00000000000E+00  0.00000000000E+00  0.49108390830E+02  0.49108390896E+02  0.25500000000E-02 0. -1.
          2   -1    0    0  501    0  0.00000000000E+00 -0.00000000000E+00 -0.18607409671E+04  0.18607409671E+04  0.25500000000E-02 0.  1.
    5000001    1    1    2    0    0  0.22816080677E+03 -0.14784855818E+03 -0.79050470877E+03  0.84554316537E+03  0.12700000000E+03 0.  0.
   -5000001    1    1    2    0    0 -0.22816080677E+03  0.14784855818E+03 -0.10211278675E+04  0.10643061927E+04  0.12700000000E+03 0.  0.
<mgrwt>
<rscale>  0 0.60457587E+03</rscale>
<asrwt>0</asrwt>
<pdfrwt beam="1">  1        2 0.26582009E+00 0.60457587E+03</pdfrwt>
<pdfrwt beam="2">  1       -2 0.70154856E-02 0.60457587E+03</pdfrwt>
<totfact> 0.11752998E+03</totfact>
</mgrwt>
</event>
<event>
 4    1  0.1399921E-004  0.4225966E+03  0.7818608E-02  0.1036225E+00
         -2   -1    0    0    0  501 -0.00000000000E+00  0.00000000000E+00  0.27375814479E+02  0.27375814598E+02  0.25500000000E-02 0. -1.
          2   -1    0    0  501    0  0.00000000000E+00 -0.00000000000E+00 -0.16308911483E+04  0.16308911483E+04  0.25500000000E-02 0.  1.
    5000001    1    1    2    0    0  0.25986178695E+02 -0.16066751631E+03 -0.97849613028E+03  0.10000365040E+04  0.12700000000E+03 0.  0.
   -5000001    1    1    2    0    0 -0.25986178695E+02  0.16066751631E+03 -0.62501920353E+03  0.65823045893E+03  0.12700000000E+03 0.  0.
<mgrwt>
<rscale>  0 0.42259661E+03</rscale>
<asrwt>0</asrwt>
<pdfrwt beam="1">  1        2 0.23298439E+00 0.42259661E+03</pdfrwt>
<pdfrwt beam="2">  1       -2 0.39108317E-02 0.42259661E+03</pdfrwt>
<totfact> 0.38170883E+03</totfact>
</mgrwt>
</event>
<event>
 4    1  0.1399921E-004  0.3354178E+03  0.7818608E-02  0.1068764E+00
          2   -1    0    0  501    0  0.00000000000E+00  0.00000000000E+00  0.16270044291E+04  0.16270044291E+04  0.25500000000E-02 0.  1.
         -2   -1    0    0    0  501 -0.00000000000E+00 -0.00000000000E+00 -0.17287158275E+02  0.17287158463E+02  0.25500000000E-02 0. -1.
    5000001    1    1    2    0    0  0.22523681515E+02  0.96530472438E+02  0.10333164773E+04  0.10457998808E+04  0.12700000000E+03 0.  0.
   -5000001    1    1    2    0    0 -0.22523681515E+02 -0.96530472438E+02  0.57640079352E+03  0.59849170680E+03  0.12700000000E+03 0.  0.
<mgrwt>
<rscale>  0 0.33541785E+03</rscale>
<asrwt>0</asrwt>
<pdfrwt beam="1">  1        2 0.23242909E+00 0.33541785E+03</pdfrwt>
<pdfrwt beam="2">  1       -2 0.24695953E-02 0.33541785E+03</pdfrwt>
<totfact> 0.76469811E+03</totfact>
</mgrwt>
</event>
<event>
 4    1  0.1399921E-004  0.8701480E+03  0.7818608E-02  0.9463687E-01
          2   -1    0    0  501    0  0.00000000000E+00  0.00000000000E+00  0.15596167828E+04  0.15596167828E+04  0.25500000000E-02 0.  1.
         -2   -1    0    0    0  501 -0.00000000000E+00 -0.00000000000E+00 -0.12136915347E+03  0.12136915349E+03  0.25500000000E-02 0. -1.
    5000001    1    1    2    0    0 -0.23069974184E+03 -0.31118932266E+03  0.42551474076E+03  0.58928173230E+03  0.12700000000E+03 0.  0.
   -5000001    1    1    2    0    0  0.23069974184E+03  0.31118932266E+03  0.10127328886E+04  0.10917042040E+04  0.12700000000E+03 0.  0.
<mgrwt>
<rscale>  0 0.87014796E+03</rscale>
<asrwt>0</asrwt>
<pdfrwt beam="1">  1        2 0.22280237E+00 0.87014796E+03</pdfrwt>
<pdfrwt beam="2">  1       -2 0.17338453E-01 0.87014796E+03</pdfrwt>
<totfact> 0.37346560E+02</totfact>
</mgrwt>
</event>
<event>
 4    1  0.1399921E-004  0.2753704E+03  0.7818608E-02  0.1098245E+00
         -2   -1    0    0    0  501 -0.00000000000E+00  0.00000000000E+00  0.82842674356E+01  0.82842678280E+01  0.25500000000E-02 0. -1.
          2   -1    0    0  501    0  0.00000000000E+00 -0.00000000000E+00 -0.22883393280E+04  0.22883393280E+04  0.25500000000E-02 0.  1.
    5000001    1    1    2    0    0  0.82499684497E+01  0.36514457682E+02 -0.14550644001E+04  0.14610758967E+04  0.12700000000E+03 0.  0.
   -5000001    1    1    2    0    0 -0.82499684497E+01 -0.36514457682E+02 -0.82499066051E+03  0.83554769913E+03  0.12700000000E+03 0.  0.
<mgrwt>
<rscale>  0 0.27537041E+03</rscale>
<asrwt>0</asrwt>
<pdfrwt beam="1">  1        2 0.32690521E+00 0.27537041E+03</pdfrwt>
<pdfrwt beam="2">  1       -2 0.11834683E-02 0.27537041E+03</pdfrwt>
<totfact> 0.10649406E+04</totfact>
</mgrwt>
</event>
<event>
 4    1  0.1399921E-004  0.3190571E+03  0.7818608E-02  0.1076084E+00
         -2   -1    0    0    0  501 -0.00000000000E+00  0.00000000000E+00  0.15478464261E+02  0.15478464471E+02  0.25500000000E-02 0. -1.
          2   -1    0    0  501    0  0.00000000000E+00 -0.00000000000E+00 -0.16441787698E+04  0.16441787698E+04  0.25500000000E-02 0.  1.
    5000001    1    1    2    0    0 -0.58173088419E+02  0.15361341948E+02 -0.12070838626E+04  0.12152368207E+04  0.12700000000E+03 0.  0.
   -5000001    1    1    2    0    0  0.58173088419E+02 -0.15361341948E+02 -0.42161644298E+03  0.44442041361E+03  0.12700000000E+03 0.  0.
<mgrwt>
<rscale>  0 0.31905713E+03</rscale>
<asrwt>0</asrwt>
<pdfrwt beam="1">  1        2 0.23488257E+00 0.31905713E+03</pdfrwt>
<pdfrwt beam="2">  1       -2 0.22112102E-02 0.31905713E+03</pdfrwt>
<totfact> 0.88282039E+03</totfact>
</mgrwt>
</event>
<event>
 4    1  0.1399921E-004  0.5495954E+03  0.7818608E-02  0.1001588E+00
          2   -1    0    0  501    0  0.00000000000E+00  0.00000000000E+00  0.49318323996E+03  0.49318323996E+03  0.25500000000E-02 0.  1.
         -2   -1    0    0    0  501 -0.00000000000E+00 -0.00000000000E+00 -0.15311502153E+03  0.15311502155E+03  0.25500000000E-02 0. -1.
    5000001    1    1    2    0    0 -0.11824554651E+03 -0.21302016370E+03  0.17593301037E+03  0.32625300543E+03  0.12700000000E+03 0.  0.
   -5000001    1    1    2    0    0  0.11824554651E+03  0.21302016370E+03  0.16413520806E+03  0.32004525608E+03  0.12700000000E+03 0.  0.
<mgrwt>
<rscale>  0 0.54959535E+03</rscale>
<asrwt>0</asrwt>
<pdfrwt beam="1">  1        2 0.70454749E-01 0.54959535E+03</pdfrwt>
<pdfrwt beam="2">  1       -2 0.21873574E-01 0.54959535E+03</pdfrwt>
<totfact> 0.12424536E+03</totfact>
</mgrwt>
</event>
<event>
 4    1  0.1399921E-004  0.7320025E+03  0.7818608E-02  0.9664016E-01
          2   -1    0    0  501    0  0.00000000000E+00  0.00000000000E+00  0.11645836859E+04  0.11645836859E+04  0.25500000000E-02 0. -1.
         -2   -1    0    0    0  501 -0.00000000000E+00 -0.00000000000E+00 -0.11502558332E+03  0.11502558335E+03  0.25500000000E-02 0.  1.
    5000001    1    1    2    0    0 -0.18242545045E+03  0.28357678027E+03  0.41239573385E+03  0.54762585456E+03  0.12700000000E+03 0.  0.
   -5000001    1    1    2    0    0  0.18242545045E+03 -0.28357678027E+03  0.63716236871E+03  0.73198341468E+03  0.12700000000E+03 0.  0.
<mgrwt>
<rscale>  0 0.73200251E+03</rscale>
<asrwt>0</asrwt>
<pdfrwt beam="1">  1        2 0.16636911E+00 0.73200251E+03</pdfrwt>
<pdfrwt beam="2">  1       -2 0.16432225E-01 0.73200251E+03</pdfrwt>
<totfact> 0.67539428E+02</totfact>
</mgrwt>
</event>
<event>
 4    1  0.1399921E-004  0.3656307E+03  0.7818608E-02  0.1056376E+00
          2   -1    0    0  501    0  0.00000000000E+00  0.00000000000E+00  0.23647179907E+02  0.23647180045E+02  0.25500000000E-02 0.  1.
         -2   -1    0    0    0  501 -0.00000000000E+00 -0.00000000000E+00 -0.14133381039E+04  0.14133381039E+04  0.25500000000E-02 0. -1.
    5000001    1    1    2    0    0 -0.52467857363E+02 -0.10714035249E+03 -0.91226966412E+03  0.92876093332E+03  0.12700000000E+03 0.  0.
   -5000001    1    1    2    0    0  0.52467857363E+02  0.10714035249E+03 -0.47742125983E+03  0.50822435058E+03  0.12700000000E+03 0.  0.
<mgrwt>
<rscale>  0 0.36563075E+03</rscale>
<asrwt>0</asrwt>
<pdfrwt beam="1">  1        2 0.33781695E-02 0.36563075E+03</pdfrwt>
<pdfrwt beam="2">  1       -2 0.20190539E+00 0.36563075E+03</pdfrwt>
<totfact> 0.37462918E+02</totfact>
</mgrwt>
</event>
<event>
 4    1  0.1399921E-004  0.3365991E+03  0.7818608E-02  0.1068254E+00
          2   -1    0    0  501    0  0.00000000000E+00  0.00000000000E+00  0.14830654804E+04  0.14830654804E+04  0.25500000000E-02 0.  1.
         -2   -1    0    0    0  501 -0.00000000000E+00 -0.00000000000E+00 -0.19098782185E+02  0.19098782355E+02  0.25500000000E-02 0. -1.
    5000001    1    1    2    0    0 -0.30419114243E+02  0.99239714799E+02  0.90026592014E+03  0.91508555364E+03  0.12700000000E+03 0.  0.
   -5000001    1    1    2    0    0  0.30419114243E+02 -0.99239714799E+02  0.56370077810E+03  0.58707870915E+03  0.12700000000E+03 0.  0.
<mgrwt>
<rscale>  0 0.33659914E+03</rscale>
<asrwt>0</asrwt>
<pdfrwt beam="1">  1        2 0.21186650E+00 0.33659914E+03</pdfrwt>
<pdfrwt beam="2">  1       -2 0.27283974E-02 0.33659914E+03</pdfrwt>
<totfact> 0.77938606E+03</totfact>
</mgrwt>
</event>
<event>
 4    1  0.1399921E-004  0.4866452E+03  0.7818608E-02  0.1017325E+00
          2   -1    0    0  501    0  0.00000000000E+00  0.00000000000E+00  0.42231485998E+02  0.42231486075E+02  0.25500000000E-02 0.  1.
         -2   -1    0    0    0  501 -0.00000000000E+00 -0.00000000000E+00 -0.14019372301E+04  0.14019372301E+04  0.25500000000E-02 0. -1.
    5000001    1    1    2    0    0 -0.14572989635E+03 -0.86310113267E+02 -0.32386131005E+03  0.38691315110E+03  0.12700000000E+03 0.  0.
   -5000001    1    1    2    0    0  0.14572989635E+03  0.86310113267E+02 -0.10358444341E+04  0.10572555651E+04  0.12700000000E+03 0.  0.
<mgrwt>
<rscale>  0 0.48664522E+03</rscale>
<asrwt>0</asrwt>
<pdfrwt beam="1">  1        2 0.60330703E-02 0.48664522E+03</pdfrwt>
<pdfrwt beam="2">  1       -2 0.20027672E+00 0.48664522E+03</pdfrwt>
<totfact> 0.17510196E+02</totfact>
</mgrwt>
</event>
<event>
 4    1  0.1399921E-004  0.3419314E+03  0.7818608E-02  0.1065976E+00
         -2   -1    0    0    0  501 -0.00000000000E+00  0.00000000000E+00  0.19862879369E+03  0.19862879370E+03  0.25500000000E-02 0. -1.
          2   -1    0    0  501    0  0.00000000000E+00 -0.00000000000E+00 -0.14715521817E+03  0.14715521819E+03  0.25500000000E-02 0.  1.
    5000001    1    1    2    0    0 -0.98829019605E+02  0.34222716882E+02  0.72756847449E+02  0.17989143481E+03  0.12700000000E+03 0.  0.
   -5000001    1    1    2    0    0  0.98829019605E+02 -0.34222716882E+02 -0.21283271931E+02  0.16589257708E+03  0.12700000000E+03 0.  0.
<mgrwt>
<rscale>  0 0.34193136E+03</rscale>
<asrwt>0</asrwt>
<pdfrwt beam="1">  1        2 0.21022174E-01 0.34193136E+03</pdfrwt>
<pdfrwt beam="2">  1       -2 0.28375542E-01 0.34193136E+03</pdfrwt>
<totfact> 0.29786815E+03</totfact>
</mgrwt>
</event>
<event>
 4    1  0.1399921E-004  0.3370973E+03  0.7818608E-02  0.1068039E+00
         -2   -1    0    0    0  501 -0.00000000000E+00  0.00000000000E+00  0.97522125687E+02  0.97522125720E+02  0.25500000000E-02 0. -1.
          2   -1    0    0  501    0  0.00000000000E+00 -0.00000000000E+00 -0.29130459588E+03  0.29130459589E+03  0.25500000000E-02 0.  1.
    5000001    1    1    2    0    0  0.96923739660E+02  0.14893751511E+02 -0.37361213783E+02  0.16474494056E+03  0.12700000000E+03 0.  0.
   -5000001    1    1    2    0    0 -0.96923739660E+02 -0.14893751511E+02 -0.15642125641E+03  0.22408178106E+03  0.12700000000E+03 0.  0.
<mgrwt>
<rscale>  0 0.33709728E+03</rscale>
<asrwt>0</asrwt>
<pdfrwt beam="1">  1        2 0.41614942E-01 0.33709728E+03</pdfrwt>
<pdfrwt beam="2">  1       -2 0.13931732E-01 0.33709728E+03</pdfrwt>
<totfact> 0.47472309E+03</totfact>
</mgrwt>
</event>
<event>
 4    1  0.1399921E-004  0.6715476E+03  0.7818608E-02  0.9767166E-01
          2   -1    0    0  501    0  0.00000000000E+00  0.00000000000E+00  0.20876610518E+04  0.20876610518E+04  0.25500000000E-02 0.  1.
         -2   -1    0    0    0  501 -0.00000000000E+00 -0.00000000000E+00 -0.54004953359E+02  0.54004953420E+02  0.25500000000E-02 0. -1.
    5000001    1    1    2    0    0 -0.38623608570E+02 -0.29002965406E+03  0.13514009666E+04  0.13885325188E+04  0.12700000000E+03 0.  0.
   -5000001    1    1    2    0    0  0.38623608570E+02  0.29002965406E+03  0.68225513186E+03  0.75313348639E+03  0.12700000000E+03 0.  0.
<mgrwt>
<rscale>  0 0.67154758E+03</rscale>
<asrwt>0</asrwt>
<pdfrwt beam="1">  1        2 0.29823729E+00 0.67154758E+03</pdfrwt>
<pdfrwt beam="2">  1       -2 0.77149935E-02 0.67154758E+03</pdfrwt>
<totfact> 0.77400040E+02</totfact>
</mgrwt>
</event>
<event>
 4    1  0.1399921E-004  0.2881508E+03  0.7818608E-02  0.1091319E+00
          2   -1    0    0  501    0  0.00000000000E+00  0.00000000000E+00  0.16043957992E+03  0.16043957994E+03  0.25500000000E-02 0.  1.
         -2   -1    0    0    0  501 -0.00000000000E+00 -0.00000000000E+00 -0.12938029942E+03  0.12938029944E+03  0.25500000000E-02 0. -1.
    5000001    1    1    2    0    0  0.54946759234E+02 -0.37484606476E+02  0.29912078215E+02  0.14645127004E+03  0.12700000000E+03 0.  0.
   -5000001    1    1    2    0    0 -0.54946759234E+02  0.37484606476E+02  0.11472022895E+01  0.14336860935E+03  0.12700000000E+03 0.  0.
<mgrwt>
<rscale>  0 0.28815080E+03</rscale>
<asrwt>0</asrwt>
<pdfrwt beam="1">  1        2 0.22919940E-01 0.28815080E+03</pdfrwt>
<pdfrwt beam="2">  1       -2 0.18482900E-01 0.28815080E+03</pdfrwt>
<totfact> 0.56856167E+03</totfact>
</mgrwt>
</event>
<event>
 4    1  0.1399921E-004  0.8062897E+03  0.7818608E-02  0.9550957E-01
          2   -1    0    0  501    0  0.00000000000E+00  0.00000000000E+00  0.33106082149E+04  0.33106082149E+04  0.25500000000E-02 0.  1.
         -2   -1    0    0    0  501 -0.00000000000E+00 -0.00000000000E+00 -0.49092423869E+02  0.49092423935E+02  0.25500000000E-02 0. -1.
    5000001    1    1    2    0    0  0.35499869079E+03  0.10550924864E+03  0.20313085277E+04  0.20686951459E+04  0.12700000000E+03 0.  0.
   -5000001    1    1    2    0    0 -0.35499869079E+03 -0.10550924864E+03  0.12302072634E+04  0.12910054930E+04  0.12700000000E+03 0.  0.
<mgrwt>
<rscale>  0 0.80628973E+03</rscale>
<asrwt>0</asrwt>
<pdfrwt beam="1">  1        2 0.47294417E+00 0.80628973E+03</pdfrwt>
<pdfrwt beam="2">  1       -2 0.70132014E-02 0.80628973E+03</pdfrwt>
<totfact> 0.19952034E+02</totfact>
</mgrwt>
</event>
<event>
 4    1  0.1399921E-004  0.5718491E+03  0.7818608E-02  0.9965595E-01
          2   -1    0    0  501    0  0.00000000000E+00  0.00000000000E+00  0.24493085388E+04  0.24493085388E+04  0.25500000000E-02 0.  1.
         -2   -1    0    0    0  501 -0.00000000000E+00 -0.00000000000E+00 -0.33377925028E+02  0.33377925126E+02  0.25500000000E-02 0. -1.
    5000001    1    1    2    0    0  0.23860696095E+03 -0.42549535419E+02  0.15680773052E+04  0.15917723392E+04  0.12700000000E+03 0.  0.
   -5000001    1    1    2    0    0 -0.23860696095E+03  0.42549535419E+02  0.84785330861E+03  0.89091412476E+03  0.12700000000E+03 0.  0.
<mgrwt>
<rscale>  0 0.57184906E+03</rscale>
<asrwt>0</asrwt>
<pdfrwt beam="1">  1        2 0.34990136E+00 0.57184906E+03</pdfrwt>
<pdfrwt beam="2">  1       -2 0.47682731E-02 0.57184906E+03</pdfrwt>
<totfact> 0.10872492E+03</totfact>
</mgrwt>
</event>
<event>
 4    1  0.1399921E-004  0.4324125E+03  0.7818608E-02  0.1033101E+00
          2   -1    0    0  501    0  0.00000000000E+00  0.00000000000E+00  0.17224896199E+04  0.17224896199E+04  0.25500000000E-02 0.  1.
         -2   -1    0    0    0  501 -0.00000000000E+00 -0.00000000000E+00 -0.27138124611E+02  0.27138124731E+02  0.25500000000E-02 0. -1.
    5000001    1    1    2    0    0  0.22075993446E+02  0.16970321591E+03  0.99521551586E+03  0.10177767211E+04  0.12700000000E+03 0.  0.
   -5000001    1    1    2    0    0 -0.22075993446E+02 -0.16970321591E+03  0.70013597945E+03  0.73185102357E+03  0.12700000000E+03 0.  0.
<mgrwt>
<rscale>  0 0.43241248E+03</rscale>
<asrwt>0</asrwt>
<pdfrwt beam="1">  1        2 0.24606996E+00 0.43241248E+03</pdfrwt>
<pdfrwt beam="2">  1       -2 0.38768747E-02 0.43241248E+03</pdfrwt>
<totfact> 0.34782147E+03</totfact>
</mgrwt>
</event>
<event>
 4    1  0.1399921E-004  0.2952324E+03  0.7818608E-02  0.1087648E+00
         -2   -1    0    0    0  501 -0.00000000000E+00  0.00000000000E+00  0.69099740441E+02  0.69099740488E+02  0.25500000000E-02 0. -1.
          2   -1    0    0  501    0  0.00000000000E+00 -0.00000000000E+00 -0.31534918656E+03  0.31534918657E+03  0.25500000000E-02 0.  1.
    5000001    1    1    2    0    0 -0.56312286404E+02 -0.20433687609E+02 -0.63836597052E+02  0.15424889080E+03  0.12700000000E+03 0.  0.
   -5000001    1    1    2    0    0  0.56312286404E+02  0.20433687609E+02 -0.18241284907E+03  0.23020003626E+03  0.12700000000E+03 0.  0.
<mgrwt>
<rscale>  0 0.29523243E+03</rscale>
<asrwt>0</asrwt>
<pdfrwt beam="1">  1        2 0.45049883E-01 0.29523243E+03</pdfrwt>
<pdfrwt beam="2">  1       -2 0.98713917E-02 0.29523243E+03</pdfrwt>
<totfact> 0.75752596E+03</totfact>
</mgrwt>
</event>
<event>
 4    1  0.1399921E-004  0.3937752E+03  0.7818608E-02  0.1045957E+00
         -2   -1    0    0    0  501 -0.00000000000E+00  0.00000000000E+00  0.26832961401E+02  0.26832961523E+02  0.25500000000E-02 0. -1.
          2   -1    0    0  501    0  0.00000000000E+00 -0.00000000000E+00 -0.14446683278E+04  0.14446683278E+04  0.25500000000E-02 0.  1.
    5000001    1    1    2    0    0  0.14950025577E+03  0.16779225797E+02 -0.71626018017E+03  0.74282535942E+03  0.12700000000E+03 0.  0.
   -5000001    1    1    2    0    0 -0.14950025577E+03 -0.16779225797E+02 -0.70157518620E+03  0.72867592988E+03  0.12700000000E+03 0.  0.
<mgrwt>
<rscale>  0 0.39377521E+03</rscale>
<asrwt>0</asrwt>
<pdfrwt beam="1">  1        2 0.20638114E+00 0.39377521E+03</pdfrwt>
<pdfrwt beam="2">  1       -2 0.38332811E-02 0.39377521E+03</pdfrwt>
<totfact> 0.48981436E+03</totfact>
</mgrwt>
</event>
<event>
 4    1  0.1399921E-004  0.3697542E+03  0.7818608E-02  0.1054787E+00
         -2   -1    0    0    0  501 -0.00000000000E+00  0.00000000000E+00  0.13170576748E+02  0.13170576995E+02  0.25500000000E-02 0.  1.
          2   -1    0    0  501    0  0.00000000000E+00 -0.00000000000E+00 -0.25951431922E+04  0.25951431922E+04  0.25500000000E-02 0. -1.
    5000001    1    1    2    0    0  0.99275538918E+02  0.36821621877E+02 -0.18743578659E+04  0.18816370197E+04  0.12700000000E+03 0.  0.
   -5000001    1    1    2    0    0 -0.99275538918E+02 -0.36821621877E+02 -0.70761474952E+03  0.72667674946E+03  0.12700000000E+03 0.  0.
<mgrwt>
<rscale>  0 0.36975415E+03</rscale>
<asrwt>0</asrwt>
<pdfrwt beam="1">  1        2 0.37073442E+00 0.36975415E+03</pdfrwt>
<pdfrwt beam="2">  1       -2 0.18815126E-02 0.36975415E+03</pdfrwt>
<totfact> 0.37834391E+03</totfact>
</mgrwt>
</event>
<event>
 4    1  0.1399921E-004  0.5009195E+03  0.7818608E-02  0.1013539E+00
          2   -1    0    0  501    0  0.00000000000E+00  0.00000000000E+00  0.58799938906E+03  0.58799938907E+03  0.25500000000E-02 0.  1.
         -2   -1    0    0    0  501 -0.00000000000E+00 -0.00000000000E+00 -0.10668393691E+03  0.10668393694E+03  0.25500000000E-02 0. -1.
    5000001    1    1    2    0    0  0.51185028716E+02  0.14035955005E+02  0.53084442898E+03  0.54839923685E+03  0.12700000000E+03 0.  0.
   -5000001    1    1    2    0    0 -0.51185028716E+02 -0.14035955005E+02 -0.49528976829E+02  0.14628408917E+03  0.12700000000E+03 0.  0.
<mgrwt>
<rscale>  0 0.50091951E+03</rscale>
<asrwt>0</asrwt>
<pdfrwt beam="1">  1        2 0.83999912E-01 0.50091951E+03</pdfrwt>
<pdfrwt beam="2">  1       -2 0.15240563E-01 0.50091951E+03</pdfrwt>
<totfact> 0.18886367E+03</totfact>
</mgrwt>
</event>
<event>
 4    1  0.1399921E-004  0.2880047E+03  0.7818608E-02  0.1091396E+00
          2   -1    0    0  501    0  0.00000000000E+00  0.00000000000E+00  0.38454461735E+03  0.38454461736E+03  0.25500000000E-02 0.  1.
         -2   -1    0    0    0  501 -0.00000000000E+00 -0.00000000000E+00 -0.53925279912E+02  0.53925279973E+02  0.25500000000E-02 0. -1.
    5000001    1    1    2    0    0  0.39782166919E+01  0.35084657343E+02  0.25357071926E+03  0.28578640461E+03  0.12700000000E+03 0.  0.
   -5000001    1    1    2    0    0 -0.39782166919E+01 -0.35084657343E+02  0.77048618175E+02  0.15268349273E+03  0.12700000000E+03 0.  0.
<mgrwt>
<rscale>  0 0.28800470E+03</rscale>
<asrwt>0</asrwt>
<pdfrwt beam="1">  1        2 0.54934944E-01 0.28800470E+03</pdfrwt>
<pdfrwt beam="2">  1       -2 0.77036117E-02 0.28800470E+03</pdfrwt>
<totfact> 0.90282099E+03</totfact>
</mgrwt>
</event>
<event>
 4    1  0.1399921E-004  0.1065323E+04  0.7818608E-02  0.9239666E-01
          2   -1    0    0  501    0  0.00000000000E+00  0.00000000000E+00  0.22986431985E+04  0.22986431985E+04  0.25500000000E-02 0.  1.
         -2   -1    0    0    0  501 -0.00000000000E+00 -0.00000000000E+00 -0.12343288118E+03  0.12343288121E+03  0.25500000000E-02 0. -1.
    5000001    1    1    2    0    0 -0.45682367249E+03  0.24271080400E+03  0.10838343945E+04  0.12076516041E+04  0.12700000000E+03 0.  0.
   -5000001    1    1    2    0    0  0.45682367249E+03 -0.24271080400E+03  0.10913759228E+04  0.12144244756E+04  0.12700000000E+03 0.  0.
<mgrwt>
<rscale>  0 0.10653228E+04</rscale>
<asrwt>0</asrwt>
<pdfrwt beam="1">  1        2 0.32837759E+00 0.10653228E+04</pdfrwt>
<pdfrwt beam="2">  1       -2 0.17633269E-01 0.10653228E+04</pdfrwt>
<totfact> 0.14955528E+02</totfact>
</mgrwt>
</event>
<event>
 4    1  0.1399921E-004  0.3913629E+03  0.7818608E-02  0.1046812E+00
         -2   -1    0    0    0  501 -0.00000000000E+00  0.00000000000E+00  0.48772073491E+02  0.48772073557E+02  0.25500000000E-02 0. -1.
          2   -1    0    0  501    0  0.00000000000E+00 -0.00000000000E+00 -0.78510562185E+03  0.78510562186E+03  0.25500000000E-02 0.  1.
    5000001    1    1    2    0    0 -0.14708664404E+03 -0.15663377011E+02 -0.40397314847E+03  0.44855671539E+03  0.12700000000E+03 0.  0.
   -5000001    1    1    2    0    0  0.14708664404E+03  0.15663377011E+02 -0.33236039989E+03  0.38532098003E+03  0.12700000000E+03 0.  0.
<mgrwt>
<rscale>  0 0.39136290E+03</rscale>
<asrwt>0</asrwt>
<pdfrwt beam="1">  1        2 0.11215794E+00 0.39136290E+03</pdfrwt>
<pdfrwt beam="2">  1       -2 0.69674396E-02 0.39136290E+03</pdfrwt>
<totfact> 0.47136529E+03</totfact>
</mgrwt>
</event>
<event>
 4    1  0.1399921E-004  0.3184745E+03  0.7818608E-02  0.1076354E+00
         -2   -1    0    0    0  501 -0.00000000000E+00  0.00000000000E+00  0.91343646326E+03  0.91343646327E+03  0.25500000000E-02 0. -1.
          2   -1    0    0  501    0  0.00000000000E+00 -0.00000000000E+00 -0.27759464331E+02  0.27759464449E+02  0.25500000000E-02 0.  1.
    5000001    1    1    2    0    0  0.94567716345E+02  0.15349683762E+02  0.42218476710E+03  0.45116254647E+03  0.12700000000E+03 0.  0.
   -5000001    1    1    2    0    0 -0.94567716345E+02 -0.15349683762E+02  0.46349223183E+03  0.49003338124E+03  0.12700000000E+03 0.  0.
<mgrwt>
<rscale>  0 0.31847453E+03</rscale>
<asrwt>0</asrwt>
<pdfrwt beam="1">  1        2 0.39656378E-02 0.31847453E+03</pdfrwt>
<pdfrwt beam="2">  1       -2 0.13049092E+00 0.31847453E+03</pdfrwt>
<totfact> 0.97320768E+02</totfact>
</mgrwt>
</event>
<event>
 4    1  0.1399921E-004  0.3395630E+03  0.7818608E-02  0.1066982E+00
         -2   -1    0    0    0  501 -0.00000000000E+00  0.00000000000E+00  0.28320397324E+02  0.28320397439E+02  0.25500000000E-02 0. -1.
          2   -1    0    0  501    0  0.00000000000E+00 -0.00000000000E+00 -0.10178445736E+04  0.10178445736E+04  0.25500000000E-02 0.  1.
    5000001    1    1    2    0    0 -0.87054469182E+02  0.70051331394E+02 -0.44999932760E+03  0.48074324173E+03  0.12700000000E+03 0.  0.
   -5000001    1    1    2    0    0  0.87054469182E+02 -0.70051331394E+02 -0.53952484872E+03  0.56542172935E+03  0.12700000000E+03 0.  0.
<mgrwt>
<rscale>  0 0.33956303E+03</rscale>
<asrwt>0</asrwt>
<pdfrwt beam="1">  1        2 0.14540634E+00 0.33956303E+03</pdfrwt>
<pdfrwt beam="2">  1       -2 0.40457717E-02 0.33956303E+03</pdfrwt>
<totfact> 0.77125852E+03</totfact>
</mgrwt>
</event>
<event>
 4    1  0.1399921E-004  0.3800566E+03  0.7818608E-02  0.1050913E+00
         -2   -1    0    0    0  501 -0.00000000000E+00  0.00000000000E+00  0.17928051098E+03  0.17928051100E+03  0.25500000000E-02 0.  1.
          2   -1    0    0  501    0  0.00000000000E+00 -0.00000000000E+00 -0.20142044418E+03  0.20142044419E+03  0.25500000000E-02 0. -1.
    5000001    1    1    2    0    0 -0.13827770157E+03  0.28126088496E+02 -0.26915437094E+01  0.18986322449E+03  0.12700000000E+03 0.  0.
   -5000001    1    1    2    0    0  0.13827770157E+03 -0.28126088496E+02 -0.19448389489E+02  0.19083773070E+03  0.12700000000E+03 0.  0.
<mgrwt>
<rscale>  0 0.38005663E+03</rscale>
<asrwt>0</asrwt>
<pdfrwt beam="1">  1        2 0.28774349E-01 0.38005663E+03</pdfrwt>
<pdfrwt beam="2">  1       -2 0.25611502E-01 0.38005663E+03</pdfrwt>
<totfact> 0.25174242E+03</totfact>
</mgrwt>
</event>
<event>
 4    1  0.1399921E-004  0.2992413E+03  0.7818608E-02  0.1085620E+00
         -2   -1    0    0    0  501 -0.00000000000E+00  0.00000000000E+00  0.10281975460E+02  0.10281975776E+02  0.25500000000E-02 0. -1.
          2   -1    0    0  501    0  0.00000000000E+00 -0.00000000000E+00 -0.21772417074E+04  0.21772417074E+04  0.25500000000E-02 0.  1.
    5000001    1    1    2    0    0  0.11445981990E+02 -0.70745625411E+02 -0.13282790204E+04  0.13362597465E+04  0.12700000000E+03 0.  0.
   -5000001    1    1    2    0    0 -0.11445981990E+02  0.70745625411E+02 -0.83868071151E+03  0.85126393668E+03  0.12700000000E+03 0.  0.
<mgrwt>
<rscale>  0 0.29924135E+03</rscale>
<asrwt>0</asrwt>
<pdfrwt beam="1">  1        2 0.31103424E+00 0.29924135E+03</pdfrwt>
<pdfrwt beam="2">  1       -2 0.14688550E-02 0.29924135E+03</pdfrwt>
<totfact> 0.88140380E+03</totfact>
</mgrwt>
</event>
<event>
 4    1  0.1399921E-004  0.8430848E+03  0.7818608E-02  0.9499666E-01
         -2   -1    0    0    0  501 -0.00000000000E+00  0.00000000000E+00  0.61857648145E+02  0.61857648198E+02  0.25500000000E-02 0. -1.
          2   -1    0    0  501    0  0.00000000000E+00 -0.00000000000E+00 -0.28726925679E+04  0.28726925679E+04  0.25500000000E-02 0.  1.
    5000001    1    1    2    0    0 -0.31186853363E+03  0.24953131580E+03 -0.15626735031E+04  0.16179015227E+04  0.12700000000E+03 0.  0.
   -5000001    1    1    2    0    0  0.31186853363E+03 -0.24953131580E+03 -0.12481614167E+04  0.13166486934E+04  0.12700000000E+03 0.  0.
<mgrwt>
<rscale>  0 0.84308483E+03</rscale>
<asrwt>0</asrwt>
<pdfrwt beam="1">  1        2 0.41038457E+00 0.84308483E+03</pdfrwt>
<pdfrwt beam="2">  1       -2 0.88368087E-02 0.84308483E+03</pdfrwt>
<totfact> 0.24080777E+02</totfact>
</mgrwt>
</event>
<event>
 4    1  0.1399921E-004  0.5067340E+03  0.7818608E-02  0.1012036E+00
         -2   -1    0    0    0  501 -0.00000000000E+00  0.00000000000E+00  0.26447759929E+02  0.26447760052E+02  0.25500000000E-02 0. -1.
          2   -1    0    0  501    0  0.00000000000E+00 -0.00000000000E+00 -0.24272314589E+04  0.24272314589E+04  0.25500000000E-02 0.  1.
    5000001    1    1    2    0    0  0.76676161374E+02  0.18898653779E+03 -0.15898968507E+04  0.16079478042E+04  0.12700000000E+03 0.  0.
   -5000001    1    1    2    0    0 -0.76676161374E+02 -0.18898653779E+03 -0.81088684828E+03  0.84573141475E+03  0.12700000000E+03 0.  0.
<mgrwt>
<rscale>  0 0.50673399E+03</rscale>
<asrwt>0</asrwt>
<pdfrwt beam="1">  1        2 0.34674721E+00 0.50673399E+03</pdfrwt>
<pdfrwt beam="2">  1       -2 0.37782530E-02 0.50673399E+03</pdfrwt>
<totfact> 0.16022212E+03</totfact>
</mgrwt>
</event>
<event>
 4    1  0.1399921E-004  0.3978044E+03  0.7818608E-02  0.1044543E+00
          2   -1    0    0  501    0  0.00000000000E+00  0.00000000000E+00  0.13645158163E+03  0.13645158166E+03  0.25500000000E-02 0.  1.
         -2   -1    0    0    0  501 -0.00000000000E+00 -0.00000000000E+00 -0.28993493468E+03  0.28993493469E+03  0.25500000000E-02 0. -1.
    5000001    1    1    2    0    0 -0.12602685152E+03  0.66508989127E+02 -0.16805553950E+02  0.19161847401E+03  0.12700000000E+03 0.  0.
   -5000001    1    1    2    0    0  0.12602685152E+03 -0.66508989127E+02 -0.13667779910E+03  0.23476804234E+03  0.12700000000E+03 0.  0.
<mgrwt>
<rscale>  0 0.39780438E+03</rscale>
<asrwt>0</asrwt>
<pdfrwt beam="1">  1        2 0.19493083E-01 0.39780438E+03</pdfrwt>
<pdfrwt beam="2">  1       -2 0.41419276E-01 0.39780438E+03</pdfrwt>
<totfact> 0.16058136E+03</totfact>
</mgrwt>
</event>
<event>
 4    1  0.1399921E-004  0.5679842E+03  0.7818608E-02  0.9974149E-01
          2   -1    0    0  501    0  0.00000000000E+00  0.00000000000E+00  0.12865608426E+03  0.12865608428E+03  0.25500000000E-02 0.  1.
         -2   -1    0    0    0  501 -0.00000000000E+00 -0.00000000000E+00 -0.62687686035E+03  0.62687686036E+03  0.25500000000E-02 0. -1.
    5000001    1    1    2    0    0  0.60694367025E+02  0.24645697802E+03 -0.23596399694E+03  0.36909735309E+03  0.12700000000E+03 0.  0.
   -5000001    1    1    2    0    0 -0.60694367025E+02 -0.24645697802E+03 -0.26225677916E+03  0.38643559155E+03  0.12700000000E+03 0.  0.
<mgrwt>
<rscale>  0 0.56798423E+03</rscale>
<asrwt>0</asrwt>
<pdfrwt beam="1">  1        2 0.18379441E-01 0.56798423E+03</pdfrwt>
<pdfrwt beam="2">  1       -2 0.89553835E-01 0.56798423E+03</pdfrwt>
<totfact> 0.33931682E+02</totfact>
</mgrwt>
</event>
<event>
 4    1  0.1399921E-004  0.1016332E+04  0.7818608E-02  0.9290811E-01
         -2   -1    0    0    0  501 -0.00000000000E+00  0.00000000000E+00  0.10114710378E+03  0.10114710381E+03  0.25500000000E-02 0. -1.
          2   -1    0    0  501    0  0.00000000000E+00 -0.00000000000E+00 -0.25530417631E+04  0.25530417631E+04  0.25500000000E-02 0.  1.
    5000001    1    1    2    0    0  0.44096207491E+03  0.20381958911E+03 -0.10217491386E+04  0.11384596078E+04  0.12700000000E+03 0.  0.
   -5000001    1    1    2    0    0 -0.44096207491E+03 -0.20381958911E+03 -0.14301455207E+04  0.15157292591E+04  0.12700000000E+03 0.  0.
<mgrwt>
<rscale>  0 0.10163322E+04</rscale>
<asrwt>0</asrwt>
<pdfrwt beam="1">  1        2 0.36472021E+00 0.10163322E+04</pdfrwt>
<pdfrwt beam="2">  1       -2 0.14449588E-01 0.10163322E+04</pdfrwt>
<totfact> 0.15572871E+02</totfact>
</mgrwt>
</event>
<event>
 4    1  0.1399921E-004  0.4314391E+03  0.7818608E-02  0.1033406E+00
         -2   -1    0    0    0  501 -0.00000000000E+00  0.00000000000E+00  0.49496957956E+02  0.49496958022E+02  0.25500000000E-02 0. -1.
          2   -1    0    0  501    0  0.00000000000E+00 -0.00000000000E+00 -0.94015734817E+03  0.94015734817E+03  0.25500000000E-02 0.  1.
    5000001    1    1    2    0    0 -0.15959152948E+03  0.62331056047E+02 -0.51970567732E+03  0.56176294633E+03  0.12700000000E+03 0.  0.
   -5000001    1    1    2    0    0  0.15959152948E+03 -0.62331056047E+02 -0.37095471290E+03  0.42789135987E+03  0.12700000000E+03 0.  0.
<mgrwt>
<rscale>  0 0.43143912E+03</rscale>
<asrwt>0</asrwt>
<pdfrwt beam="1">  1        2 0.13430818E+00 0.43143912E+03</pdfrwt>
<pdfrwt beam="2">  1       -2 0.70709946E-02 0.43143912E+03</pdfrwt>
<totfact> 0.36519683E+03</totfact>
</mgrwt>
</event>
<event>
 4    1  0.1399921E-004  0.4597759E+03  0.7818608E-02  0.1024846E+00
          2   -1    0    0  501    0  0.00000000000E+00  0.00000000000E+00  0.13299949057E+04  0.13299949057E+04  0.25500000000E-02 0.  1.
         -2   -1    0    0    0  501 -0.00000000000E+00 -0.00000000000E+00 -0.39735837235E+02  0.39735837317E+02  0.25500000000E-02 0. -1.
    5000001    1    1    2    0    0  0.92086565477E+02 -0.16217830365E+03  0.51398960920E+03  0.56133417505E+03  0.12700000000E+03 0.  0.
   -5000001    1    1    2    0    0 -0.92086565477E+02  0.16217830365E+03  0.77626945926E+03  0.80839656797E+03  0.12700000000E+03 0.  0.
<mgrwt>
<rscale>  0 0.45977586E+03</rscale>
<asrwt>0</asrwt>
<pdfrwt beam="1">  1        2 0.18999930E+00 0.45977586E+03</pdfrwt>
<pdfrwt beam="2">  1       -2 0.56765474E-02 0.45977586E+03</pdfrwt>
<totfact> 0.30827653E+03</totfact>
</mgrwt>
</event>
<event>
 4    1  0.1399921E-004  0.2794588E+03  0.7818608E-02  0.1095985E+00
          2   -1    0    0  501    0  0.00000000000E+00  0.00000000000E+00  0.25532964848E+04  0.25532964848E+04  0.25500000000E-02 0.  1.
         -2   -1    0    0    0  501 -0.00000000000E+00 -0.00000000000E+00 -0.76467057792E+01  0.76467062043E+01  0.25500000000E-02 0. -1.
    5000001    1    1    2    0    0  0.44976394099E+02  0.32147362737E+02  0.11041042339E+04  0.11127585041E+04  0.12700000000E+03 0.  0.
   -5000001    1    1    2    0    0 -0.44976394099E+02 -0.32147362737E+02  0.14415455451E+04  0.14481846870E+04  0.12700000000E+03 0.  0.
<mgrwt>
<rscale>  0 0.27945882E+03</rscale>
<asrwt>0</asrwt>
<pdfrwt beam="1">  1        2 0.36475690E+00 0.27945882E+03</pdfrwt>
<pdfrwt beam="2">  1       -2 0.10923858E-02 0.27945882E+03</pdfrwt>
<totfact> 0.88412131E+03</totfact>
</mgrwt>
</event>
<event>
 4    1  0.1399921E-004  0.3725078E+03  0.7818608E-02  0.1053738E+00
         -2   -1    0    0    0  501 -0.00000000000E+00  0.00000000000E+00  0.68562503036E+02  0.68562503083E+02  0.25500000000E-02 0. -1.
          2   -1    0    0  501    0  0.00000000000E+00 -0.00000000000E+00 -0.50596909688E+03  0.50596909689E+03  0.25500000000E-02 0.  1.
    5000001    1    1    2    0    0  0.10329353654E+03 -0.88736458052E+02 -0.21219726256E+03  0.28231257839E+03  0.12700000000E+03 0.  0.
   -5000001    1    1    2    0    0 -0.10329353654E+03  0.88736458052E+02 -0.22520933129E+03  0.29221902158E+03  0.12700000000E+03 0.  0.
<mgrwt>
<rscale>  0 0.37250776E+03</rscale>
<asrwt>0</asrwt>
<pdfrwt beam="1">  1        2 0.72281298E-01 0.37250776E+03</pdfrwt>
<pdfrwt beam="2">  1       -2 0.97946435E-02 0.37250776E+03</pdfrwt>
<totfact> 0.46068532E+03</totfact>
</mgrwt>
</event>
<event>
 4    1  0.1399921E-004  0.3573848E+03  0.7818608E-02  0.1059624E+00
          2   -1    0    0  501    0  0.00000000000E+00  0.00000000000E+00  0.27916262763E+03  0.27916262764E+03  0.25500000000E-02 0.  1.
         -2   -1    0    0    0  501 -0.00000000000E+00 -0.00000000000E+00 -0.11438123260E+03  0.11438123263E+03  0.25500000000E-02 0. -1.
    5000001    1    1    2    0    0  0.19144854889E+02 -0.78746336771E+02 -0.23428080477E+02  0.15246437610E+03  0.12700000000E+03 0.  0.
   -5000001    1    1    2    0    0 -0.19144854889E+02  0.78746336771E+02  0.18820947550E+03  0.24107948418E+03  0.12700000000E+03 0.  0.
<mgrwt>
<rscale>  0 0.35738475E+03</rscale>
<asrwt>0</asrwt>
<pdfrwt beam="1">  1        2 0.39880375E-01 0.35738475E+03</pdfrwt>
<pdfrwt beam="2">  1       -2 0.16340176E-01 0.35738475E+03</pdfrwt>
<totfact> 0.38193205E+03</totfact>
</mgrwt>
</event>
<event>
 4    1  0.1399921E-004  0.4468576E+03  0.7818608E-02  0.1028663E+00
         -2   -1    0    0    0  501 -0.00000000000E+00  0.00000000000E+00  0.87420483791E+02  0.87420483829E+02  0.25500000000E-02 0. -1.
          2   -1    0    0  501    0  0.00000000000E+00 -0.00000000000E+00 -0.57103820270E+03  0.57103820270E+03  0.25500000000E-02 0.  1.
    5000001    1    1    2    0    0  0.17701594227E+03 -0.13469326339E+02 -0.31209752632E+03  0.38085421424E+03  0.12700000000E+03 0.  0.
   -5000001    1    1    2    0    0 -0.17701594227E+03  0.13469326339E+02 -0.17152019258E+03  0.27760447229E+03  0.12700000000E+03 0.  0.
<mgrwt>
<rscale>  0 0.44685763E+03</rscale>
<asrwt>0</asrwt>
<pdfrwt beam="1">  1        2 0.81576884E-01 0.44685763E+03</pdfrwt>
<pdfrwt beam="2">  1       -2 0.12488641E-01 0.44685763E+03</pdfrwt>
<totfact> 0.27169651E+03</totfact>
</mgrwt>
</event>
<event>
 4    1  0.1399921E-004  0.2824814E+03  0.7818608E-02  0.1094341E+00
          2   -1    0    0  501    0  0.00000000000E+00  0.00000000000E+00  0.53779071436E+03  0.53779071436E+03  0.25500000000E-02 0.  1.
         -2   -1    0    0    0  501 -0.00000000000E+00 -0.00000000000E+00 -0.37094231602E+02  0.37094231689E+02  0.25500000000E-02 0. -1.
    5000001    1    1    2    0    0  0.78045952476E+00 -0.45301572353E+02  0.33589836717E+03  0.36195242041E+03  0.12700000000E+03 0.  0.
   -5000001    1    1    2    0    0 -0.78045952476E+00  0.45301572353E+02  0.16479811558E+03  0.21293252564E+03  0.12700000000E+03 0.  0.
<mgrwt>
<rscale>  0 0.28248139E+03</rscale>
<asrwt>0</asrwt>
<pdfrwt beam="1">  1        2 0.76827244E-01 0.28248139E+03</pdfrwt>
<pdfrwt beam="2">  1       -2 0.52991760E-02 0.28248139E+03</pdfrwt>
<totfact> 0.11119014E+04</totfact>
</mgrwt>
</event>
<event>
 4    1  0.1399921E-004  0.3877622E+03  0.7818608E-02  0.1048102E+00
          2   -1    0    0  501    0  0.00000000000E+00  0.00000000000E+00  0.11238168918E+03  0.11238168921E+03  0.25500000000E-02 0.  1.
         -2   -1    0    0    0  501 -0.00000000000E+00 -0.00000000000E+00 -0.33448405980E+03  0.33448405981E+03  0.25500000000E-02 0. -1.
    5000001    1    1    2    0    0  0.13527515980E+02 -0.53724600421E+02 -0.26733745813E+03  0.30111068214E+03  0.12700000000E+03 0.  0.
   -5000001    1    1    2    0    0 -0.13527515980E+02  0.53724600421E+02  0.45235087507E+02  0.14575506688E+03  0.12700000000E+03 0.  0.
<mgrwt>
<rscale>  0 0.38776221E+03</rscale>
<asrwt>0</asrwt>
<pdfrwt beam="1">  1        2 0.16054527E-01 0.38776221E+03</pdfrwt>
<pdfrwt beam="2">  1       -2 0.47783437E-01 0.38776221E+03</pdfrwt>
<totfact> 0.15227979E+03</totfact>
</mgrwt>
</event>
<event>
 4    1  0.1399921E-004  0.4190088E+03  0.7818608E-02  0.1037389E+00
          2   -1    0    0  501    0  0.00000000000E+00  0.00000000000E+00  0.19968869563E+04  0.19968869563E+04  0.25500000000E-02 0.  1.
         -2   -1    0    0    0  501 -0.00000000000E+00 -0.00000000000E+00 -0.21980257217E+02  0.21980257364E+02  0.25500000000E-02 0. -1.
    5000001    1    1    2    0    0  0.14462605011E+03  0.79552549661E+02  0.87781562395E+03  0.90218322539E+03  0.12700000000E+03 0.  0.
   -5000001    1    1    2    0    0 -0.14462605011E+03 -0.79552549661E+02  0.10970910751E+04  0.11166839882E+04  0.12700000000E+03 0.  0.
<mgrwt>
<rscale>  0 0.41900878E+03</rscale>
<asrwt>0</asrwt>
<pdfrwt beam="1">  1        2 0.28526946E+00 0.41900878E+03</pdfrwt>
<pdfrwt beam="2">  1       -2 0.31400380E-02 0.41900878E+03</pdfrwt>
<totfact> 0.34964045E+03</totfact>
</mgrwt>
</event>
<event>
 4    1  0.1399921E-004  0.4563052E+03  0.7818608E-02  0.1025858E+00
         -2   -1    0    0    0  501 -0.00000000000E+00  0.00000000000E+00  0.93869437653E+02  0.93869437687E+02  0.25500000000E-02 0. -1.
          2   -1    0    0  501    0  0.00000000000E+00 -0.00000000000E+00 -0.55453208774E+03  0.55453208774E+03  0.25500000000E-02 0.  1.
    5000001    1    1    2    0    0  0.40632975397E+02 -0.16684149401E+03 -0.11632027402E+03  0.24320059408E+03  0.12700000000E+03 0.  0.
   -5000001    1    1    2    0    0 -0.40632975397E+02  0.16684149401E+03 -0.34434237606E+03  0.40520093135E+03  0.12700000000E+03 0.  0.
<mgrwt>
<rscale>  0 0.45630523E+03</rscale>
<asrwt>0</asrwt>
<pdfrwt beam="1">  1        2 0.79218868E-01 0.45630523E+03</pdfrwt>
<pdfrwt beam="2">  1       -2 0.13409920E-01 0.45630523E+03</pdfrwt>
<totfact> 0.24997768E+03</totfact>
</mgrwt>
</event>
<event>
 4    1  0.1399921E-004  0.3339189E+03  0.7818608E-02  0.1069416E+00
          2   -1    0    0  501    0  0.00000000000E+00  0.00000000000E+00  0.65963887461E+03  0.65963887462E+03  0.25500000000E-02 0.  1.
         -2   -1    0    0    0  501 -0.00000000000E+00 -0.00000000000E+00 -0.42258654705E+02  0.42258654782E+02  0.25500000000E-02 0. -1.
    5000001    1    1    2    0    0 -0.75808581847E+02  0.48971020827E+02  0.43483376142E+03  0.46190313057E+03  0.12700000000E+03 0.  0.
   -5000001    1    1    2    0    0  0.75808581847E+02 -0.48971020827E+02  0.18254645849E+03  0.23999439883E+03  0.12700000000E+03 0.  0.
<mgrwt>
<rscale>  0 0.33391886E+03</rscale>
<asrwt>0</asrwt>
<pdfrwt beam="1">  1        2 0.94234113E-01 0.33391886E+03</pdfrwt>
<pdfrwt beam="2">  1       -2 0.60369515E-02 0.33391886E+03</pdfrwt>
<totfact> 0.72454509E+03</totfact>
</mgrwt>
</event>
<event>
 4    1  0.1399921E-004  0.3165490E+03  0.7818608E-02  0.1077249E+00
          2   -1    0    0  501    0  0.00000000000E+00  0.00000000000E+00  0.52205197505E+03  0.52205197505E+03  0.25500000000E-02 0.  1.
         -2   -1    0    0    0  501 -0.00000000000E+00 -0.00000000000E+00 -0.47985305356E+02  0.47985305423E+02  0.25500000000E-02 0. -1.
    5000001    1    1    2    0    0 -0.36219340567E+02 -0.75504875880E+02  0.31571342186E+03  0.35045226730E+03  0.12700000000E+03 0.  0.
   -5000001    1    1    2    0    0  0.36219340567E+02  0.75504875880E+02  0.15835324783E+03  0.21958501317E+03  0.12700000000E+03 0.  0.
<mgrwt>
<rscale>  0 0.31654904E+03</rscale>
<asrwt>0</asrwt>
<pdfrwt beam="1">  1        2 0.74578853E-01 0.31654904E+03</pdfrwt>
<pdfrwt beam="2">  1       -2 0.68550437E-02 0.31654904E+03</pdfrwt>
<totfact> 0.77680344E+03</totfact>
</mgrwt>
</event>
<event>
 4    1  0.1399921E-004  0.4584492E+03  0.7818608E-02  0.1025232E+00
         -2   -1    0    0    0  501 -0.00000000000E+00  0.00000000000E+00  0.46533127236E+02  0.46533127306E+02  0.25500000000E-02 0. -1.
          2   -1    0    0  501    0  0.00000000000E+00 -0.00000000000E+00 -0.11291724325E+04  0.11291724325E+04  0.25500000000E-02 0.  1.
    5000001    1    1    2    0    0  0.17062306315E+03  0.20436857556E+02 -0.32852523465E+03  0.39190269791E+03  0.12700000000E+03 0.  0.
   -5000001    1    1    2    0    0 -0.17062306315E+03 -0.20436857556E+02 -0.75411407058E+03  0.78380286187E+03  0.12700000000E+03 0.  0.
<mgrwt>
<rscale>  0 0.45844923E+03</rscale>
<asrwt>0</asrwt>
<pdfrwt beam="1">  1        2 0.16131033E+00 0.45844923E+03</pdfrwt>
<pdfrwt beam="2">  1       -2 0.66475903E-02 0.45844923E+03</pdfrwt>
<totfact> 0.31085865E+03</totfact>
</mgrwt>
</event>
<event>
 4    1  0.1399921E-004  0.6974147E+03  0.7818608E-02  0.9721664E-01
         -2   -1    0    0    0  501 -0.00000000000E+00  0.00000000000E+00  0.16237303868E+03  0.16237303870E+03  0.25500000000E-02 0. -1.
          2   -1    0    0  501    0  0.00000000000E+00 -0.00000000000E+00 -0.74887311903E+03  0.74887311903E+03  0.25500000000E-02 0.  1.
    5000001    1    1    2    0    0  0.26102814171E+03  0.15096066363E+03 -0.13568077660E+03  0.35420768748E+03  0.12700000000E+03 0.  0.
   -5000001    1    1    2    0    0 -0.26102814171E+03 -0.15096066363E+03 -0.45081930374E+03  0.55703847026E+03  0.12700000000E+03 0.  0.
<mgrwt>
<rscale>  0 0.69741467E+03</rscale>
<asrwt>0</asrwt>
<pdfrwt beam="1">  1        2 0.10698187E+00 0.69741467E+03</pdfrwt>
<pdfrwt beam="2">  1       -2 0.23196149E-01 0.69741467E+03</pdfrwt>
<totfact> 0.68084152E+02</totfact>
</mgrwt>
</event>
<event>
 4    1  0.1399921E-004  0.4064766E+03  0.7818608E-02  0.1041560E+00
          2   -1    0    0  501    0  0.00000000000E+00  0.00000000000E+00  0.26990476379E+04  0.26990476379E+04  0.25500000000E-02 0.  1.
         -2   -1    0    0    0  501 -0.00000000000E+00 -0.00000000000E+00 -0.15303842342E+02  0.15303842554E+02  0.25500000000E-02 0. -1.
    5000001    1    1    2    0    0 -0.14617738503E+03 -0.23931859560E+02  0.96198807682E+03  0.98157558127E+03  0.12700000000E+03 0.  0.
   -5000001    1    1    2    0    0  0.14617738503E+03  0.23931859560E+02  0.17217557187E+04  0.17327758991E+04  0.12700000000E+03 0.  0.
<mgrwt>
<rscale>  0 0.40647657E+03</rscale>
<asrwt>0</asrwt>
<pdfrwt beam="1">  1        2 0.38557811E+00 0.40647657E+03</pdfrwt>
<pdfrwt beam="2">  1       -2 0.21862639E-02 0.40647657E+03</pdfrwt>
<totfact> 0.26716919E+03</totfact>
</mgrwt>
</event>
<event>
 4    1  0.1399921E-004  0.5294304E+03  0.7818608E-02  0.1006370E+00
         -2   -1    0    0    0  501 -0.00000000000E+00  0.00000000000E+00  0.77627570088E+02  0.77627570130E+02  0.25500000000E-02 0. -1.
          2   -1    0    0  501    0  0.00000000000E+00 -0.00000000000E+00 -0.90269665562E+03  0.90269665562E+03  0.25500000000E-02 0.  1.
    5000001    1    1    2    0    0 -0.19751190073E+03 -0.11867636375E+03 -0.35854615592E+03  0.44472393253E+03  0.12700000000E+03 0.  0.
   -5000001    1    1    2    0    0  0.19751190073E+03  0.11867636375E+03 -0.46652292961E+03  0.53560029322E+03  0.12700000000E+03 0.  0.
<mgrwt>
<rscale>  0 0.52943044E+03</rscale>
<asrwt>0</asrwt>
<pdfrwt beam="1">  1        2 0.12895666E+00 0.52943044E+03</pdfrwt>
<pdfrwt beam="2">  1       -2 0.11089653E-01 0.52943044E+03</pdfrwt>
<totfact> 0.18800144E+03</totfact>
</mgrwt>
</event>
<event>
 4    1  0.1399921E-004  0.4678968E+03  0.7818608E-02  0.1022516E+00
          2   -1    0    0  501    0  0.00000000000E+00  0.00000000000E+00  0.54979068785E+03  0.54979068786E+03  0.25500000000E-02 0.  1.
         -2   -1    0    0    0  501 -0.00000000000E+00 -0.00000000000E+00 -0.99550343749E+02  0.99550343782E+02  0.25500000000E-02 0. -1.
    5000001    1    1    2    0    0  0.16696807177E+03  0.78745272262E+02  0.31846054614E+03  0.38939090172E+03  0.12700000000E+03 0.  0.
   -5000001    1    1    2    0    0 -0.16696807177E+03 -0.78745272262E+02  0.13177979797E+03  0.25995012992E+03  0.12700000000E+03 0.  0.
<mgrwt>
<rscale>  0 0.46789679E+03</rscale>
<asrwt>0</asrwt>
<pdfrwt beam="1">  1        2 0.78541525E-01 0.46789679E+03</pdfrwt>
<pdfrwt beam="2">  1       -2 0.14221478E-01 0.46789679E+03</pdfrwt>
<totfact> 0.22905138E+03</totfact>
</mgrwt>
</event>
<event>
 4    1  0.1399921E-004  0.4128114E+03  0.7818608E-02  0.1039432E+00
          2   -1    0    0  501    0  0.00000000000E+00  0.00000000000E+00  0.35544657947E+04  0.35544657947E+04  0.25500000000E-02 0.  1.
         -2   -1    0    0    0  501 -0.00000000000E+00 -0.00000000000E+00 -0.11985856446E+02  0.11985856717E+02  0.25500000000E-02 0. -1.
    5000001    1    1    2    0    0  0.11350342857E+03  0.11141959066E+03  0.14748481700E+04  0.14888262082E+04  0.12700000000E+03 0.  0.
   -5000001    1    1    2    0    0 -0.11350342857E+03 -0.11141959066E+03  0.20676317682E+04  0.20776254432E+04  0.12700000000E+03 0.  0.
<mgrwt>
<rscale>  0 0.41281142E+03</rscale>
<asrwt>0</asrwt>
<pdfrwt beam="1">  1        2 0.50778213E+00 0.41281142E+03</pdfrwt>
<pdfrwt beam="2">  1       -2 0.17122608E-02 0.41281142E+03</pdfrwt>
<totfact> 0.12986255E+03</totfact>
</mgrwt>
</event>
<event>
 4    1  0.1399921E-004  0.4907734E+03  0.7818608E-02  0.1016216E+00
          2   -1    0    0  501    0  0.00000000000E+00  0.00000000000E+00  0.82963855073E+03  0.82963855073E+03  0.25500000000E-02 0.  1.
         -2   -1    0    0    0  501 -0.00000000000E+00 -0.00000000000E+00 -0.72579361331E+02  0.72579361375E+02  0.25500000000E-02 0. -1.
    5000001    1    1    2    0    0 -0.42620034086E+02 -0.20559223837E+03  0.37669088142E+03  0.44956607515E+03  0.12700000000E+03 0.  0.
   -5000001    1    1    2    0    0  0.42620034086E+02  0.20559223837E+03  0.38036830798E+03  0.45265183695E+03  0.12700000000E+03 0.  0.
<mgrwt>
<rscale>  0 0.49077341E+03</rscale>
<asrwt>0</asrwt>
<pdfrwt beam="1">  1        2 0.11851980E+00 0.49077341E+03</pdfrwt>
<pdfrwt beam="2">  1       -2 0.10368480E-01 0.49077341E+03</pdfrwt>
<totfact> 0.23419797E+03</totfact>
</mgrwt>
</event>
<event>
 4    1  0.1399921E-004  0.3303908E+03  0.7818608E-02  0.1070964E+00
          2   -1    0    0  501    0  0.00000000000E+00  0.00000000000E+00  0.52382018794E+03  0.52382018795E+03  0.25500000000E-02 0.  1.
         -2   -1    0    0    0  501 -0.00000000000E+00 -0.00000000000E+00 -0.52097122696E+02  0.52097122758E+02  0.25500000000E-02 0. -1.
    5000001    1    1    2    0    0  0.48258506691E+02 -0.88740266775E+02  0.28978081998E+03  0.33212293213E+03  0.12700000000E+03 0.  0.
   -5000001    1    1    2    0    0 -0.48258506691E+02  0.88740266775E+02  0.18194224527E+03  0.24379437858E+03  0.12700000000E+03 0.  0.
<mgrwt>
<rscale>  0 0.33039083E+03</rscale>
<asrwt>0</asrwt>
<pdfrwt beam="1">  1        2 0.74831456E-01 0.33039083E+03</pdfrwt>
<pdfrwt beam="2">  1       -2 0.74424461E-02 0.33039083E+03</pdfrwt>
<totfact> 0.68179102E+03</totfact>
</mgrwt>
</event>
<event>
 4    1  0.1399921E-004  0.3363667E+03  0.7818608E-02  0.1068354E+00
          2   -1    0    0  501    0  0.00000000000E+00  0.00000000000E+00  0.16268102847E+03  0.16268102849E+03  0.25500000000E-02 0.  1.
         -2   -1    0    0    0  501 -0.00000000000E+00 -0.00000000000E+00 -0.17387178553E+03  0.17387178555E+03  0.25500000000E-02 0. -1.
    5000001    1    1    2    0    0  0.15693895560E+02  0.10189950049E+03  0.33500968291E+02  0.16697640981E+03  0.12700000000E+03 0.  0.
   -5000001    1    1    2    0    0 -0.15693895560E+02 -0.10189950049E+03 -0.44691725343E+02  0.16957640423E+03  0.12700000000E+03 0.  0.
<mgrwt>
<rscale>  0 0.33636671E+03</rscale>
<asrwt>0</asrwt>
<pdfrwt beam="1">  1        2 0.23240147E-01 0.33636671E+03</pdfrwt>
<pdfrwt beam="2">  1       -2 0.24838827E-01 0.33636671E+03</pdfrwt>
<totfact> 0.33703060E+03</totfact>
</mgrwt>
</event>
<event>
 4    1  0.1399921E-004  0.4452907E+03  0.7818608E-02  0.1029136E+00
         -2   -1    0    0    0  501 -0.00000000000E+00  0.00000000000E+00  0.31283027955E+02  0.31283028059E+02  0.25500000000E-02 0. -1.
          2   -1    0    0  501    0  0.00000000000E+00 -0.00000000000E+00 -0.15845954136E+04  0.15845954136E+04  0.25500000000E-02 0.  1.
    5000001    1    1    2    0    0 -0.13186623829E+03  0.81062490302E+02 -0.11300163747E+04  0.11476174620E+04  0.12700000000E+03 0.  0.
   -5000001    1    1    2    0    0  0.13186623829E+03 -0.81062490302E+02 -0.42329601092E+03  0.46826097958E+03  0.12700000000E+03 0.  0.
<mgrwt>
<rscale>  0 0.44529066E+03</rscale>
<asrwt>0</asrwt>
<pdfrwt beam="1">  1        2 0.22637072E+00 0.44529066E+03</pdfrwt>
<pdfrwt beam="2">  1       -2 0.44690050E-02 0.44529066E+03</pdfrwt>
<totfact> 0.32859983E+03</totfact>
</mgrwt>
</event>
<event>
 4    1  0.1399921E-004  0.3397203E+03  0.7818608E-02  0.1066915E+00
          2   -1    0    0  501    0  0.00000000000E+00  0.00000000000E+00  0.31497776676E+02  0.31497776779E+02  0.25500000000E-02 0.  1.
         -2   -1    0    0    0  501 -0.00000000000E+00 -0.00000000000E+00 -0.91601585698E+03  0.91601585699E+03  0.25500000000E-02 0. -1.
    5000001    1    1    2    0    0 -0.39742139476E+02 -0.10487158954E+03 -0.47595697384E+03  0.50521433955E+03  0.12700000000E+03 0.  0.
   -5000001    1    1    2    0    0  0.39742139476E+02  0.10487158954E+03 -0.40856110647E+03  0.44229929421E+03  0.12700000000E+03 0.  0.
<mgrwt>
<rscale>  0 0.33972026E+03</rscale>
<asrwt>0</asrwt>
<pdfrwt beam="1">  1        2 0.44996829E-02 0.33972026E+03</pdfrwt>
<pdfrwt beam="2">  1       -2 0.13085939E+00 0.33972026E+03</pdfrwt>
<totfact> 0.81634225E+02</totfact>
</mgrwt>
</event>
<event>
 4    1  0.1399921E-004  0.4103926E+03  0.7818608E-02  0.1040239E+00
          2   -1    0    0  501    0  0.00000000000E+00  0.00000000000E+00  0.37144680628E+03  0.37144680629E+03  0.25500000000E-02 0.  1.
         -2   -1    0    0    0  501 -0.00000000000E+00 -0.00000000000E+00 -0.11335544897E+03  0.11335544900E+03  0.25500000000E-02 0. -1.
    5000001    1    1    2    0    0 -0.15329460267E+03  0.45074110507E+02  0.10410880372E+03  0.22912562855E+03  0.12700000000E+03 0.  0.
   -5000001    1    1    2    0    0  0.15329460267E+03 -0.45074110507E+02  0.15398255360E+03  0.25567662673E+03  0.12700000000E+03 0.  0.
<mgrwt>
<rscale>  0 0.41039259E+03</rscale>
<asrwt>0</asrwt>
<pdfrwt beam="1">  1        2 0.53063829E-01 0.41039259E+03</pdfrwt>
<pdfrwt beam="2">  1       -2 0.16193636E-01 0.41039259E+03</pdfrwt>
<totfact> 0.28489383E+03</totfact>
</mgrwt>
</event>
<event>
 4    1  0.1399921E-004  0.2751855E+03  0.7818608E-02  0.1098348E+00
         -2   -1    0    0    0  501 -0.00000000000E+00  0.00000000000E+00  0.20242566345E+02  0.20242566506E+02  0.25500000000E-02 0.  1.
          2   -1    0    0  501    0  0.00000000000E+00 -0.00000000000E+00 -0.93524508842E+03  0.93524508843E+03  0.25500000000E-02 0. -1.
    5000001    1    1    2    0    0  0.24080065730E+02  0.35223767263E+02 -0.56631882230E+03  0.58195066100E+03  0.12700000000E+03 0.  0.
   -5000001    1    1    2    0    0 -0.24080065730E+02 -0.35223767263E+02 -0.34868369978E+03  0.37353699393E+03  0.12700000000E+03 0.  0.
<mgrwt>
<rscale>  0 0.27518547E+03</rscale>
<asrwt>0</asrwt>
<pdfrwt beam="1">  1        2 0.13360641E+00 0.27518547E+03</pdfrwt>
<pdfrwt beam="2">  1       -2 0.28917958E-02 0.27518547E+03</pdfrwt>
<totfact> 0.14214786E+04</totfact>
</mgrwt>
</event>
<event>
 4    1  0.1399921E-004  0.5295536E+03  0.7818608E-02  0.1006340E+00
         -2   -1    0    0    0  501 -0.00000000000E+00  0.00000000000E+00  0.46503856904E+02  0.46503856974E+02  0.25500000000E-02 0. -1.
          2   -1    0    0  501    0  0.00000000000E+00 -0.00000000000E+00 -0.15075473382E+04  0.15075473382E+04  0.25500000000E-02 0.  1.
    5000001    1    1    2    0    0 -0.17394174441E+03 -0.13235193209E+03 -0.96168898758E+03  0.99435781951E+03  0.12700000000E+03 0.  0.
   -5000001    1    1    2    0    0  0.17394174441E+03  0.13235193209E+03 -0.49935449372E+03  0.55969337567E+03  0.12700000000E+03 0.  0.
<mgrwt>
<rscale>  0 0.52955365E+03</rscale>
<asrwt>0</asrwt>
<pdfrwt beam="1">  1        2 0.21536387E+00 0.52955365E+03</pdfrwt>
<pdfrwt beam="2">  1       -2 0.66434091E-02 0.52955365E+03</pdfrwt>
<totfact> 0.19433220E+03</totfact>
</mgrwt>
</event>
<event>
 4    1  0.1399921E-004  0.6585596E+03  0.7818608E-02  0.9790849E-01
         -2   -1    0    0    0  501 -0.00000000000E+00  0.00000000000E+00  0.86133521728E+02  0.86133521766E+02  0.25500000000E-02 0. -1.
          2   -1    0    0  501    0  0.00000000000E+00 -0.00000000000E+00 -0.12588036966E+04  0.12588036966E+04  0.25500000000E-02 0.  1.
    5000001    1    1    2    0    0 -0.13873858924E+03 -0.24287968755E+03 -0.34420029450E+03  0.46134778801E+03  0.12700000000E+03 0.  0.
   -5000001    1    1    2    0    0  0.13873858924E+03  0.24287968755E+03 -0.82846988042E+03  0.88358943041E+03  0.12700000000E+03 0.  0.
<mgrwt>
<rscale>  0 0.65855963E+03</rscale>
<asrwt>0</asrwt>
<pdfrwt beam="1">  1        2 0.17982909E+00 0.65855963E+03</pdfrwt>
<pdfrwt beam="2">  1       -2 0.12304790E-01 0.65855963E+03</pdfrwt>
<totfact> 0.97453304E+02</totfact>
</mgrwt>
</event>
<event>
 4    1  0.1399921E-004  0.6480857E+03  0.7818608E-02  0.9810378E-01
          2   -1    0    0  501    0  0.00000000000E+00  0.00000000000E+00  0.17540225380E+04  0.17540225380E+04  0.25500000000E-02 0.  1.
         -2   -1    0    0    0  501 -0.00000000000E+00 -0.00000000000E+00 -0.59864544523E+02  0.59864544578E+02  0.25500000000E-02 0. -1.
    5000001    1    1    2    0    0  0.22793872214E+03  0.19150246483E+03  0.89093289961E+03  0.94790278336E+03  0.12700000000E+03 0.  0.
   -5000001    1    1    2    0    0 -0.22793872214E+03 -0.19150246483E+03  0.80322509388E+03  0.86598429924E+03  0.12700000000E+03 0.  0.
<mgrwt>
<rscale>  0 0.64808567E+03</rscale>
<asrwt>0</asrwt>
<pdfrwt beam="1">  1        2 0.25057467E+00 0.64808567E+03</pdfrwt>
<pdfrwt beam="2">  1       -2 0.85520772E-02 0.64808567E+03</pdfrwt>
<totfact> 0.96882672E+02</totfact>
</mgrwt>
</event>
<event>
 4    1  0.1399921E-004  0.5873889E+03  0.7818608E-02  0.9931921E-01
         -2   -1    0    0    0  501 -0.00000000000E+00  0.00000000000E+00  0.28259662772E+03  0.28259662773E+03  0.25500000000E-02 0. -1.
          2   -1    0    0  501    0  0.00000000000E+00 -0.00000000000E+00 -0.30522805789E+03  0.30522805790E+03  0.25500000000E-02 0.  1.
    5000001    1    1    2    0    0  0.25814753560E+03  0.57132680439E+02  0.36327887539E+01  0.29333682085E+03  0.12700000000E+03 0.  0.
   -5000001    1    1    2    0    0 -0.25814753560E+03 -0.57132680439E+02 -0.26264218928E+02  0.29448786479E+03  0.12700000000E+03 0.  0.
<mgrwt>
<rscale>  0 0.58738887E+03</rscale>
<asrwt>0</asrwt>
<pdfrwt beam="1">  1        2 0.43604008E-01 0.58738887E+03</pdfrwt>
<pdfrwt beam="2">  1       -2 0.40370947E-01 0.58738887E+03</pdfrwt>
<totfact> 0.68331611E+02</totfact>
</mgrwt>
</event>
<event>
 4    1  0.1399921E-004  0.3287982E+03  0.7818608E-02  0.1071670E+00
         -2   -1    0    0    0  501 -0.00000000000E+00  0.00000000000E+00  0.29263787462E+03  0.29263787463E+03  0.25500000000E-02 0. -1.
          2   -1    0    0  501    0  0.00000000000E+00 -0.00000000000E+00 -0.92356676486E+02  0.92356676521E+02  0.25500000000E-02 0.  1.
    5000001    1    1    2    0    0  0.52162299322E+02  0.63472256781E+02  0.17555720540E+03  0.23173037181E+03  0.12700000000E+03 0.  0.
   -5000001    1    1    2    0    0 -0.52162299322E+02 -0.63472256781E+02  0.24723992730E+02  0.15326417934E+03  0.12700000000E+03 0.  0.
<mgrwt>
<rscale>  0 0.32879818E+03</rscale>
<asrwt>0</asrwt>
<pdfrwt beam="1">  1        2 0.13193811E-01 0.32879818E+03</pdfrwt>
<pdfrwt beam="2">  1       -2 0.41805411E-01 0.32879818E+03</pdfrwt>
<totfact> 0.24972395E+03</totfact>
</mgrwt>
</event>
<event>
 4    1  0.1399921E-004  0.4302596E+03  0.7818608E-02  0.1033778E+00
         -2   -1    0    0    0  501 -0.00000000000E+00  0.00000000000E+00  0.23070303941E+02  0.23070304082E+02  0.25500000000E-02 0. -1.
          2   -1    0    0  501    0  0.00000000000E+00 -0.00000000000E+00 -0.20060782691E+04  0.20060782691E+04  0.25500000000E-02 0.  1.
    5000001    1    1    2    0    0 -0.14646972695E+03  0.75869614098E+02 -0.73569045551E+03  0.76457767792E+03  0.12700000000E+03 0.  0.
   -5000001    1    1    2    0    0  0.14646972695E+03 -0.75869614098E+02 -0.12473175096E+04  0.12645708952E+04  0.12700000000E+03 0.  0.
<mgrwt>
<rscale>  0 0.43025962E+03</rscale>
<asrwt>0</asrwt>
<pdfrwt beam="1">  1        2 0.28658250E+00 0.43025962E+03</pdfrwt>
<pdfrwt beam="2">  1       -2 0.32957590E-02 0.43025962E+03</pdfrwt>
<totfact> 0.32150183E+03</totfact>
</mgrwt>
</event>
<event>
 4    1  0.1399921E-004  0.6708003E+03  0.7818608E-02  0.9768513E-01
         -2   -1    0    0    0  501 -0.00000000000E+00  0.00000000000E+00  0.11030799532E+03  0.11030799535E+03  0.25500000000E-02 0. -1.
          2   -1    0    0  501    0  0.00000000000E+00 -0.00000000000E+00 -0.10198104776E+04  0.10198104776E+04  0.25500000000E-02 0.  1.
    5000001    1    1    2    0    0 -0.16785834446E+03  0.26099524978E+03 -0.46877658932E+03  0.57634662740E+03  0.12700000000E+03 0.  0.
   -5000001    1    1    2    0    0  0.16785834446E+03 -0.26099524978E+03 -0.44072589297E+03  0.55377184558E+03  0.12700000000E+03 0.  0.
<mgrwt>
<rscale>  0 0.67080027E+03</rscale>
<asrwt>0</asrwt>
<pdfrwt beam="1">  1        2 0.14568721E+00 0.67080027E+03</pdfrwt>
<pdfrwt beam="2">  1       -2 0.15758286E-01 0.67080027E+03</pdfrwt>
<totfact> 0.88400894E+02</totfact>
</mgrwt>
</event>
<event>
 4    1  0.1399921E-004  0.3135310E+03  0.7818608E-02  0.1078666E+00
         -2   -1    0    0    0  501 -0.00000000000E+00  0.00000000000E+00  0.13195508670E+02  0.13195508916E+02  0.25500000000E-02 0.  1.
          2   -1    0    0  501    0  0.00000000000E+00 -0.00000000000E+00 -0.18624084619E+04  0.18624084619E+04  0.25500000000E-02 0. -1.
    5000001    1    1    2    0    0 -0.28170888205E+02 -0.68573211957E+02 -0.12495527616E+04  0.12581760562E+04  0.12700000000E+03 0.  0.
   -5000001    1    1    2    0    0  0.28170888205E+02  0.68573211957E+02 -0.59966019166E+03  0.61742791466E+03  0.12700000000E+03 0.  0.
<mgrwt>
<rscale>  0 0.31353103E+03</rscale>
<asrwt>0</asrwt>
<pdfrwt beam="1">  1        2 0.26605818E+00 0.31353103E+03</pdfrwt>
<pdfrwt beam="2">  1       -2 0.18850739E-02 0.31353103E+03</pdfrwt>
<totfact> 0.87164440E+03</totfact>
</mgrwt>
</event>
<event>
 4    1  0.1399921E-004  0.5596776E+03  0.7818608E-02  0.9992784E-01
         -2   -1    0    0    0  501 -0.00000000000E+00  0.00000000000E+00  0.11196789535E+03  0.11196789538E+03  0.25500000000E-02 0. -1.
          2   -1    0    0  501    0  0.00000000000E+00 -0.00000000000E+00 -0.69939460517E+03  0.69939460518E+03  0.25500000000E-02 0.  1.
    5000001    1    1    2    0    0 -0.23900132991E+03 -0.63868911437E+02 -0.33909298187E+03  0.43853611470E+03  0.12700000000E+03 0.  0.
   -5000001    1    1    2    0    0  0.23900132991E+03  0.63868911437E+02 -0.24833372796E+03  0.37282638585E+03  0.12700000000E+03 0.  0.
<mgrwt>
<rscale>  0 0.55967756E+03</rscale>
<asrwt>0</asrwt>
<pdfrwt beam="1">  1        2 0.99913513E-01 0.55967756E+03</pdfrwt>
<pdfrwt beam="2">  1       -2 0.15995414E-01 0.55967756E+03</pdfrwt>
<totfact> 0.14158241E+03</totfact>
</mgrwt>
</event>
<event>
 4    1  0.1399921E-004  0.3455750E+03  0.7818608E-02  0.1064446E+00
         -2   -1    0    0    0  501 -0.00000000000E+00  0.00000000000E+00  0.10665016026E+03  0.10665016029E+03  0.25500000000E-02 0. -1.
          2   -1    0    0  501    0  0.00000000000E+00 -0.00000000000E+00 -0.27993886321E+03  0.27993886322E+03  0.25500000000E-02 0.  1.
    5000001    1    1    2    0    0  0.10895453440E+03 -0.14408186156E+02 -0.41232996785E+02  0.17293885167E+03  0.12700000000E+03 0.  0.
   -5000001    1    1    2    0    0 -0.10895453440E+03  0.14408186156E+02 -0.13205570616E+03  0.21365017183E+03  0.12700000000E+03 0.  0.
<mgrwt>
<rscale>  0 0.34557503E+03</rscale>
<asrwt>0</asrwt>
<pdfrwt beam="1">  1        2 0.39991266E-01 0.34557503E+03</pdfrwt>
<pdfrwt beam="2">  1       -2 0.15235737E-01 0.34557503E+03</pdfrwt>
<totfact> 0.42769032E+03</totfact>
</mgrwt>
</event>
<event>
 4    1  0.1399921E-004  0.9459271E+03  0.7818608E-02  0.9369924E-01
          2   -1    0    0  501    0  0.00000000000E+00  0.00000000000E+00  0.85236254489E+03  0.85236254490E+03  0.25500000000E-02 0. -1.
         -2   -1    0    0    0  501 -0.00000000000E+00 -0.00000000000E+00 -0.26244056312E+03  0.26244056313E+03  0.25500000000E-02 0.  1.
    5000001    1    1    2    0    0  0.68973647965E+02  0.41562898088E+03  0.49929469407E+03  0.66552911686E+03  0.12700000000E+03 0.  0.
   -5000001    1    1    2    0    0 -0.68973647965E+02 -0.41562898088E+03  0.90627287705E+02  0.44927399116E+03  0.12700000000E+03 0.  0.
<mgrwt>
<rscale>  0 0.94592707E+03</rscale>
<asrwt>0</asrwt>
<pdfrwt beam="1">  1        2 0.12176608E+00 0.94592707E+03</pdfrwt>
<pdfrwt beam="2">  1       -2 0.37491509E-01 0.94592707E+03</pdfrwt>
<totfact> 0.23447694E+02</totfact>
</mgrwt>
</event>
<event>
 4    1  0.1399921E-004  0.5093130E+03  0.7818608E-02  0.1011376E+00
         -2   -1    0    0    0  501 -0.00000000000E+00  0.00000000000E+00  0.30327447789E+02  0.30327447896E+02  0.25500000000E-02 0. -1.
          2   -1    0    0  501    0  0.00000000000E+00 -0.00000000000E+00 -0.21383249576E+04  0.21383249577E+04  0.25500000000E-02 0.  1.
    5000001    1    1    2    0    0  0.15637144073E+03 -0.87296369972E+02 -0.50459765214E+03  0.55029126309E+03  0.12700000000E+03 0.  0.
   -5000001    1    1    2    0    0 -0.15637144073E+03  0.87296369972E+02 -0.16033998577E+04  0.16183611425E+04  0.12700000000E+03 0.  0.
<mgrwt>
<rscale>  0 0.50931302E+03</rscale>
<asrwt>0</asrwt>
<pdfrwt beam="1">  1        2 0.30547490E+00 0.50931302E+03</pdfrwt>
<pdfrwt beam="2">  1       -2 0.43324939E-02 0.50931302E+03</pdfrwt>
<totfact> 0.18154535E+03</totfact>
</mgrwt>
</event>
<event>
 4    1  0.1399921E-004  0.7970218E+03  0.7818608E-02  0.9564338E-01
         -2   -1    0    0    0  501 -0.00000000000E+00  0.00000000000E+00  0.61018399584E+02  0.61018399637E+02  0.25500000000E-02 0. -1.
          2   -1    0    0  501    0  0.00000000000E+00 -0.00000000000E+00 -0.26026726406E+04  0.26026726406E+04  0.25500000000E-02 0.  1.
    5000001    1    1    2    0    0 -0.12094132655E+03  0.34685502270E+03 -0.15649794334E+04  0.16125212675E+04  0.12700000000E+03 0.  0.
   -5000001    1    1    2    0    0  0.12094132655E+03 -0.34685502270E+03 -0.97667480761E+03  0.10511697727E+04  0.12700000000E+03 0.  0.
<mgrwt>
<rscale>  0 0.79702175E+03</rscale>
<asrwt>0</asrwt>
<pdfrwt beam="1">  1        2 0.37181031E+00 0.79702175E+03</pdfrwt>
<pdfrwt beam="2">  1       -2 0.87169159E-02 0.79702175E+03</pdfrwt>
<totfact> 0.34379080E+02</totfact>
</mgrwt>
</event>
<event>
 4    1  0.1399921E-004  0.3463604E+03  0.7818608E-02  0.1064119E+00
          2   -1    0    0  501    0  0.00000000000E+00  0.00000000000E+00  0.10790565396E+04  0.10790565396E+04  0.25500000000E-02 0.  1.
         -2   -1    0    0    0  501 -0.00000000000E+00 -0.00000000000E+00 -0.27794079668E+02  0.27794079785E+02  0.25500000000E-02 0. -1.
    5000001    1    1    2    0    0  0.82458054925E+02 -0.28033121111E+02  0.77881953352E+03  0.79389801139E+03  0.12700000000E+03 0.  0.
   -5000001    1    1    2    0    0 -0.82458054925E+02  0.28033121111E+02  0.27244292644E+03  0.31295260803E+03  0.12700000000E+03 0.  0.
<mgrwt>
<rscale>  0 0.34636041E+03</rscale>
<asrwt>0</asrwt>
<pdfrwt beam="1">  1        2 0.15415097E+00 0.34636041E+03</pdfrwt>
<pdfrwt beam="2">  1       -2 0.39705819E-02 0.34636041E+03</pdfrwt>
<totfact> 0.73129162E+03</totfact>
</mgrwt>
</event>
<event>
 4    1  0.1399921E-004  0.4612102E+03  0.7818608E-02  0.1024431E+00
          2   -1    0    0  501    0  0.00000000000E+00  0.00000000000E+00  0.80142273508E+03  0.80142273508E+03  0.25500000000E-02 0.  1.
         -2   -1    0    0    0  501 -0.00000000000E+00 -0.00000000000E+00 -0.66355380003E+02  0.66355380052E+02  0.25500000000E-02 0. -1.
    5000001    1    1    2    0    0 -0.16320551726E+02  0.15535580464E+03  0.15593184887E+03  0.25464785084E+03  0.12700000000E+03 0.  0.
   -5000001    1    1    2    0    0  0.16320551726E+02 -0.15535580464E+03  0.57913550621E+03  0.61313026430E+03  0.12700000000E+03 0.  0.
<mgrwt>
<rscale>  0 0.46121019E+03</rscale>
<asrwt>0</asrwt>
<pdfrwt beam="1">  1        2 0.11448897E+00 0.46121019E+03</pdfrwt>
<pdfrwt beam="2">  1       -2 0.94793398E-02 0.46121019E+03</pdfrwt>
<totfact> 0.28271172E+03</totfact>
</mgrwt>
</event>
<event>
 4    1  0.1399921E-004  0.4443270E+03  0.7818608E-02  0.1029427E+00
          2   -1    0    0  501    0  0.00000000000E+00  0.00000000000E+00  0.85874343698E+03  0.85874343699E+03  0.25500000000E-02 0.  1.
         -2   -1    0    0    0  501 -0.00000000000E+00 -0.00000000000E+00 -0.57475399231E+02  0.57475399287E+02  0.25500000000E-02 0. -1.
    5000001    1    1    2    0    0  0.15637592441E+03 -0.93645942792E+02  0.39619725046E+03  0.45422929629E+03  0.12700000000E+03 0.  0.
   -5000001    1    1    2    0    0 -0.15637592441E+03  0.93645942792E+02  0.40507078730E+03  0.46198953999E+03  0.12700000000E+03 0.  0.
<mgrwt>
<rscale>  0 0.44432701E+03</rscale>
<asrwt>0</asrwt>
<pdfrwt beam="1">  1        2 0.12267764E+00 0.44432701E+03</pdfrwt>
<pdfrwt beam="2">  1       -2 0.82107711E-02 0.44432701E+03</pdfrwt>
<totfact> 0.32528693E+03</totfact>
</mgrwt>
</event>
<event>
 4    1  0.1399921E-004  0.4445484E+03  0.7818608E-02  0.1029360E+00
         -2   -1    0    0    0  501 -0.00000000000E+00  0.00000000000E+00  0.31890191400E+02  0.31890191502E+02  0.25500000000E-02 0. -1.
          2   -1    0    0  501    0  0.00000000000E+00 -0.00000000000E+00 -0.15492478245E+04  0.15492478245E+04  0.25500000000E-02 0.  1.
    5000001    1    1    2    0    0 -0.12920855201E+03  0.12661475843E+03 -0.67521588588E+03  0.71047282813E+03  0.12700000000E+03 0.  0.
   -5000001    1    1    2    0    0  0.12920855201E+03 -0.12661475843E+03 -0.84214174719E+03  0.87066518784E+03  0.12700000000E+03 0.  0.
<mgrwt>
<rscale>  0 0.44454835E+03</rscale>
<asrwt>0</asrwt>
<pdfrwt beam="1">  1        2 0.22132107E+00 0.44454835E+03</pdfrwt>
<pdfrwt beam="2">  1       -2 0.45557426E-02 0.44454835E+03</pdfrwt>
<totfact> 0.33259057E+03</totfact>
</mgrwt>
</event>
<event>
 4    1  0.1399921E-004  0.3470833E+03  0.7818608E-02  0.1063819E+00
          2   -1    0    0  501    0  0.00000000000E+00  0.00000000000E+00  0.24571146467E+03  0.24571146468E+03  0.25500000000E-02 0.  1.
         -2   -1    0    0    0  501 -0.00000000000E+00 -0.00000000000E+00 -0.12256938360E+03  0.12256938363E+03  0.25500000000E-02 0. -1.
    5000001    1    1    2    0    0  0.74928364853E+02  0.60902065367E+02  0.13403840264E+03  0.20837133874E+03  0.12700000000E+03 0.  0.
   -5000001    1    1    2    0    0 -0.74928364853E+02 -0.60902065367E+02 -0.10896321575E+02  0.15990950957E+03  0.12700000000E+03 0.  0.
<mgrwt>
<rscale>  0 0.34708329E+03</rscale>
<asrwt>0</asrwt>
<pdfrwt beam="1">  1        2 0.35101638E-01 0.34708329E+03</pdfrwt>
<pdfrwt beam="2">  1       -2 0.17509912E-01 0.34708329E+03</pdfrwt>
<totfact> 0.39047325E+03</totfact>
</mgrwt>
</event>
<event>
 4    1  0.1399921E-004  0.5684555E+03  0.7818608E-02  0.9973102E-01
          2   -1    0    0  501    0  0.00000000000E+00  0.00000000000E+00  0.44712854560E+03  0.44712854561E+03  0.25500000000E-02 0.  1.
         -2   -1    0    0    0  501 -0.00000000000E+00 -0.00000000000E+00 -0.18067604384E+03  0.18067604385E+03  0.25500000000E-02 0. -1.
    5000001    1    1    2    0    0  0.94576808812E+01 -0.12448183114E+03  0.37787417440E+03  0.41773564092E+03  0.12700000000E+03 0.  0.
   -5000001    1    1    2    0    0 -0.94576808812E+01  0.12448183114E+03 -0.11142167263E+03  0.21006894855E+03  0.12700000000E+03 0.  0.
<mgrwt>
<rscale>  0 0.56845551E+03</rscale>
<asrwt>0</asrwt>
<pdfrwt beam="1">  1        2 0.63875506E-01 0.56845551E+03</pdfrwt>
<pdfrwt beam="2">  1       -2 0.25810864E-01 0.56845551E+03</pdfrwt>
<totfact> 0.10332864E+03</totfact>
</mgrwt>
</event>
<event>
 4    1  0.1399921E-004  0.4180054E+03  0.7818608E-02  0.1037717E+00
          2   -1    0    0  501    0  0.00000000000E+00  0.00000000000E+00  0.10287861440E+04  0.10287861440E+04  0.25500000000E-02 0.  1.
         -2   -1    0    0    0  501 -0.00000000000E+00 -0.00000000000E+00 -0.42459881312E+02  0.42459881389E+02  0.25500000000E-02 0. -1.
    5000001    1    1    2    0    0 -0.55921429476E+02  0.15197769027E+03  0.58657947798E+03  0.62163406325E+03  0.12700000000E+03 0.  0.
   -5000001    1    1    2    0    0  0.55921429476E+02 -0.15197769027E+03  0.39974678475E+03  0.44961196218E+03  0.12700000000E+03 0.  0.
<mgrwt>
<rscale>  0 0.41800544E+03</rscale>
<asrwt>0</asrwt>
<pdfrwt beam="1">  1        2 0.14696943E+00 0.41800544E+03</pdfrwt>
<pdfrwt beam="2">  1       -2 0.60656981E-02 0.41800544E+03</pdfrwt>
<totfact> 0.40982703E+03</totfact>
</mgrwt>
</event>
<event>
 4    1  0.1399921E-004  0.3671659E+03  0.7818608E-02  0.1055782E+00
         -2   -1    0    0    0  501 -0.00000000000E+00  0.00000000000E+00  0.69353540713E+03  0.69353540713E+03  0.25500000000E-02 0. -1.
          2   -1    0    0  501    0  0.00000000000E+00 -0.00000000000E+00 -0.48595493511E+02  0.48595493578E+02  0.25500000000E-02 0.  1.
    5000001    1    1    2    0    0 -0.21972694361E+02  0.12422411795E+03  0.24013656086E+03  0.29951460505E+03  0.12700000000E+03 0.  0.
   -5000001    1    1    2    0    0  0.21972694361E+02 -0.12422411795E+03  0.40480335276E+03  0.44261629566E+03  0.12700000000E+03 0.  0.
<mgrwt>
<rscale>  0 0.36716588E+03</rscale>
<asrwt>0</asrwt>
<pdfrwt beam="1">  1        2 0.69422142E-02 0.36716588E+03</pdfrwt>
<pdfrwt beam="2">  1       -2 0.99076475E-01 0.36716588E+03</pdfrwt>
<totfact> 0.90101490E+02</totfact>
</mgrwt>
</event>
<event>
 4    1  0.1399921E-004  0.6405678E+03  0.7818608E-02  0.9824641E-01
         -2   -1    0    0    0  501 -0.00000000000E+00  0.00000000000E+00  0.23843595631E+03  0.23843595633E+03  0.25500000000E-02 0.  1.
          2   -1    0    0  501    0  0.00000000000E+00 -0.00000000000E+00 -0.43022786417E+03  0.43022786418E+03  0.25500000000E-02 0. -1.
    5000001    1    1    2    0    0  0.16462145483E+03 -0.24220672444E+03 -0.12328555236E+03  0.34218803044E+03  0.12700000000E+03 0.  0.
   -5000001    1    1    2    0    0 -0.16462145483E+03  0.24220672444E+03 -0.68506355504E+02  0.32647579007E+03  0.12700000000E+03 0.  0.
<mgrwt>
<rscale>  0 0.64056785E+03</rscale>
<asrwt>0</asrwt>
<pdfrwt beam="1">  1        2 0.61461123E-01 0.64056785E+03</pdfrwt>
<pdfrwt beam="2">  1       -2 0.34062280E-01 0.64056785E+03</pdfrwt>
<totfact> 0.64617111E+02</totfact>
</mgrwt>
</event>
<event>
 4    1  0.1399921E-004  0.3891517E+03  0.7818608E-02  0.1047602E+00
         -2   -1    0    0    0  501 -0.00000000000E+00  0.00000000000E+00  0.19552709311E+02  0.19552709477E+02  0.25500000000E-02 0. -1.
          2   -1    0    0  501    0  0.00000000000E+00 -0.00000000000E+00 -0.19362927022E+04  0.19362927022E+04  0.25500000000E-02 0.  1.
    5000001    1    1    2    0    0 -0.56721208436E+02  0.12875567506E+03 -0.73726098792E+03  0.76123457860E+03  0.12700000000E+03 0.  0.
   -5000001    1    1    2    0    0  0.56721208436E+02 -0.12875567506E+03 -0.11794790050E+04  0.11946108331E+04  0.12700000000E+03 0.  0.
<mgrwt>
<rscale>  0 0.38915174E+03</rscale>
<asrwt>0</asrwt>
<pdfrwt beam="1">  1        2 0.27661312E+00 0.38915174E+03</pdfrwt>
<pdfrwt beam="2">  1       -2 0.27932454E-02 0.38915174E+03</pdfrwt>
<totfact> 0.44700278E+03</totfact>
</mgrwt>
</event>
<event>
 4    1  0.1399921E-004  0.2921876E+03  0.7818608E-02  0.1089212E+00
          2   -1    0    0  501    0  0.00000000000E+00  0.00000000000E+00  0.19689651548E+04  0.19689651548E+04  0.25500000000E-02 0.  1.
         -2   -1    0    0    0  501 -0.00000000000E+00 -0.00000000000E+00 -0.10839907482E+02  0.10839907782E+02  0.25500000000E-02 0. -1.
    5000001    1    1    2    0    0  0.68742599964E+02  0.35894801812E+01  0.11268886397E+04  0.11361097816E+04  0.12700000000E+03 0.  0.
   -5000001    1    1    2    0    0 -0.68742599964E+02 -0.35894801812E+01  0.83123660762E+03  0.84369528105E+03  0.12700000000E+03 0.  0.
<mgrwt>
<rscale>  0 0.29218761E+03</rscale>
<asrwt>0</asrwt>
<pdfrwt beam="1">  1        2 0.28128090E+00 0.29218761E+03</pdfrwt>
<pdfrwt beam="2">  1       -2 0.15485573E-02 0.29218761E+03</pdfrwt>
<totfact> 0.10311336E+04</totfact>
</mgrwt>
</event>
<event>
 4    1  0.1399921E-004  0.3168605E+03  0.7818608E-02  0.1077103E+00
         -2   -1    0    0    0  501 -0.00000000000E+00  0.00000000000E+00  0.94371285430E+02  0.94371285465E+02  0.25500000000E-02 0. -1.
          2   -1    0    0  501    0  0.00000000000E+00 -0.00000000000E+00 -0.26597229994E+03  0.26597229995E+03  0.25500000000E-02 0.  1.
    5000001    1    1    2    0    0  0.91107604332E+02 -0.25140262772E+02 -0.78742391571E+02  0.17681061227E+03  0.12700000000E+03 0.  0.
   -5000001    1    1    2    0    0 -0.91107604332E+02  0.25140262772E+02 -0.92858622936E+02  0.18353297315E+03  0.12700000000E+03 0.  0.
<mgrwt>
<rscale>  0 0.31686052E+03</rscale>
<asrwt>0</asrwt>
<pdfrwt beam="1">  1        2 0.37996043E-01 0.31686052E+03</pdfrwt>
<pdfrwt beam="2">  1       -2 0.13481612E-01 0.31686052E+03</pdfrwt>
<totfact> 0.55200342E+03</totfact>
</mgrwt>
</event>
<event>
 4    1  0.1399921E-004  0.4522725E+03  0.7818608E-02  0.1027047E+00
          2   -1    0    0  501    0  0.00000000000E+00  0.00000000000E+00  0.10233169575E+03  0.10233169578E+03  0.25500000000E-02 0.  1.
         -2   -1    0    0    0  501 -0.00000000000E+00 -0.00000000000E+00 -0.49972404889E+03  0.49972404890E+03  0.25500000000E-02 0. -1.
    5000001    1    1    2    0    0 -0.10455928986E+03  0.11265196799E+03 -0.34073678399E+03  0.39478306315E+03  0.12700000000E+03 0.  0.
   -5000001    1    1    2    0    0  0.10455928986E+03 -0.11265196799E+03 -0.56655569154E+02  0.20727268152E+03  0.12700000000E+03 0.  0.
<mgrwt>
<rscale>  0 0.45227253E+03</rscale>
<asrwt>0</asrwt>
<pdfrwt beam="1">  1        2 0.14618814E-01 0.45227253E+03</pdfrwt>
<pdfrwt beam="2">  1       -2 0.71389148E-01 0.45227253E+03</pdfrwt>
<totfact> 0.74037340E+02</totfact>
</mgrwt>
</event>
<event>
 4    1  0.1399921E-004  0.4181795E+03  0.7818608E-02  0.1037660E+00
         -2   -1    0    0    0  501 -0.00000000000E+00  0.00000000000E+00  0.19916515500E+02  0.19916515663E+02  0.25500000000E-02 0. -1.
          2   -1    0    0  501    0  0.00000000000E+00 -0.00000000000E+00 -0.21950891481E+04  0.21950891481E+04  0.25500000000E-02 0.  1.
    5000001    1    1    2    0    0  0.13145634310E+03 -0.51702424506E+02 -0.15504297793E+04  0.15620228588E+04  0.12700000000E+03 0.  0.
   -5000001    1    1    2    0    0 -0.13145634310E+03  0.51702424506E+02 -0.62474285329E+03  0.65298280496E+03  0.12700000000E+03 0.  0.
<mgrwt>
<rscale>  0 0.41817952E+03</rscale>
<asrwt>0</asrwt>
<pdfrwt beam="1">  1        2 0.31358401E+00 0.41817952E+03</pdfrwt>
<pdfrwt beam="2">  1       -2 0.28452179E-02 0.41817952E+03</pdfrwt>
<totfact> 0.32345459E+03</totfact>
</mgrwt>
</event>
<event>
 4    1  0.1399921E-004  0.3712267E+03  0.7818608E-02  0.1054225E+00
         -2   -1    0    0    0  501 -0.00000000000E+00  0.00000000000E+00  0.53857484740E+02  0.53857484801E+02  0.25500000000E-02 0. -1.
          2   -1    0    0  501    0  0.00000000000E+00 -0.00000000000E+00 -0.63969409280E+03  0.63969409281E+03  0.25500000000E-02 0.  1.
    5000001    1    1    2    0    0  0.13240257609E+03  0.15241778893E+02 -0.24868483920E+03  0.30941218985E+03  0.12700000000E+03 0.  0.
   -5000001    1    1    2    0    0 -0.13240257609E+03 -0.15241778893E+02 -0.33715176886E+03  0.38413938776E+03  0.12700000000E+03 0.  0.
<mgrwt>
<rscale>  0 0.37122670E+03</rscale>
<asrwt>0</asrwt>
<pdfrwt beam="1">  1        2 0.91384866E-01 0.37122670E+03</pdfrwt>
<pdfrwt beam="2">  1       -2 0.76939268E-02 0.37122670E+03</pdfrwt>
<totfact> 0.51630978E+03</totfact>
</mgrwt>
</event>
<event>
 4    1  0.1399921E-004  0.5669987E+03  0.7818608E-02  0.9976342E-01
          2   -1    0    0  501    0  0.00000000000E+00  0.00000000000E+00  0.24361548064E+04  0.24361548064E+04  0.25500000000E-02 0.  1.
         -2   -1    0    0    0  501 -0.00000000000E+00 -0.00000000000E+00 -0.32991284153E+02  0.32991284252E+02  0.25500000000E-02 0. -1.
    5000001    1    1    2    0    0  0.84303473345E+02  0.22730951220E+03  0.87961804817E+03  0.92121311358E+03  0.12700000000E+03 0.  0.
   -5000001    1    1    2    0    0 -0.84303473345E+02 -0.22730951220E+03  0.15235454741E+04  0.15479329771E+04  0.12700000000E+03 0.  0.
<mgrwt>
<rscale>  0 0.56699868E+03</rscale>
<asrwt>0</asrwt>
<pdfrwt beam="1">  1        2 0.34802220E+00 0.56699868E+03</pdfrwt>
<pdfrwt beam="2">  1       -2 0.47130394E-02 0.56699868E+03</pdfrwt>
<totfact> 0.11246229E+03</totfact>
</mgrwt>
</event>
<event>
 4    1  0.1399921E-004  0.5072111E+03  0.7818608E-02  0.1011914E+00
         -2   -1    0    0    0  501 -0.00000000000E+00  0.00000000000E+00  0.75957699150E+02  0.75957699193E+02  0.25500000000E-02 0. -1.
          2   -1    0    0  501    0  0.00000000000E+00 -0.00000000000E+00 -0.84673146440E+03  0.84673146441E+03  0.25500000000E-02 0.  1.
    5000001    1    1    2    0    0  0.33551527022E+02 -0.82469399384E+02 -0.20378496179E+02  0.15643270089E+03  0.12700000000E+03 0.  0.
   -5000001    1    1    2    0    0 -0.33551527022E+02  0.82469399384E+02 -0.75039526907E+03  0.76625646271E+03  0.12700000000E+03 0.  0.
<mgrwt>
<rscale>  0 0.50721110E+03</rscale>
<asrwt>0</asrwt>
<pdfrwt beam="1">  1        2 0.12096163E+00 0.50721110E+03</pdfrwt>
<pdfrwt beam="2">  1       -2 0.10851100E-01 0.50721110E+03</pdfrwt>
<totfact> 0.21189313E+03</totfact>
</mgrwt>
</event>
<event>
 4    1  0.1399921E-004  0.3714499E+03  0.7818608E-02  0.1054140E+00
          2   -1    0    0  501    0  0.00000000000E+00  0.00000000000E+00  0.11644409682E+04  0.11644409682E+04  0.25500000000E-02 0.  1.
         -2   -1    0    0    0  501 -0.00000000000E+00 -0.00000000000E+00 -0.29622583226E+02  0.29622583336E+02  0.25500000000E-02 0. -1.
    5000001    1    1    2    0    0  0.10640091882E+02 -0.97580843715E+02  0.26706284880E+03  0.31158754440E+03  0.12700000000E+03 0.  0.
   -5000001    1    1    2    0    0 -0.10640091882E+02  0.97580843715E+02  0.86775553615E+03  0.88247600712E+03  0.12700000000E+03 0.  0.
<mgrwt>
<rscale>  0 0.37144986E+03</rscale>
<asrwt>0</asrwt>
<pdfrwt beam="1">  1        2 0.16634868E+00 0.37144986E+03</pdfrwt>
<pdfrwt beam="2">  1       -2 0.42317984E-02 0.37144986E+03</pdfrwt>
<totfact> 0.59482675E+03</totfact>
</mgrwt>
</event>
<event>
 4    1  0.1399921E-004  0.4289471E+03  0.7818608E-02  0.1034193E+00
          2   -1    0    0  501    0  0.00000000000E+00  0.00000000000E+00  0.95143159723E+03  0.95143159724E+03  0.25500000000E-02 0.  1.
         -2   -1    0    0    0  501 -0.00000000000E+00 -0.00000000000E+00 -0.48347032092E+02  0.48347032159E+02  0.25500000000E-02 0. -1.
    5000001    1    1    2    0    0 -0.16441665879E+03 -0.50962166621E+02  0.48764399916E+03  0.53249943665E+03  0.12700000000E+03 0.  0.
   -5000001    1    1    2    0    0  0.16441665879E+03  0.50962166621E+02  0.41544056598E+03  0.46727919275E+03  0.12700000000E+03 0.  0.
<mgrwt>
<rscale>  0 0.42894706E+03</rscale>
<asrwt>0</asrwt>
<pdfrwt beam="1">  1        2 0.13591881E+00 0.42894706E+03</pdfrwt>
<pdfrwt beam="2">  1       -2 0.69067186E-02 0.42894706E+03</pdfrwt>
<totfact> 0.37283697E+03</totfact>
</mgrwt>
</event>
<event>
 4    1  0.1399921E-004  0.6060419E+03  0.7818608E-02  0.9892950E-01
         -2   -1    0    0    0  501 -0.00000000000E+00  0.00000000000E+00  0.14132387311E+03  0.14132387314E+03  0.25500000000E-02 0. -1.
          2   -1    0    0  501    0  0.00000000000E+00 -0.00000000000E+00 -0.64972537470E+03  0.64972537471E+03  0.25500000000E-02 0.  1.
    5000001    1    1    2    0    0 -0.21097789039E+03  0.17657657366E+03 -0.25592737511E+03  0.39663431260E+03  0.12700000000E+03 0.  0.
   -5000001    1    1    2    0    0  0.21097789039E+03 -0.17657657366E+03 -0.25247412648E+03  0.39441493524E+03  0.12700000000E+03 0.  0.
<mgrwt>
<rscale>  0 0.60604193E+03</rscale>
<asrwt>0</asrwt>
<pdfrwt beam="1">  1        2 0.92817909E-01 0.60604193E+03</pdfrwt>
<pdfrwt beam="2">  1       -2 0.20189125E-01 0.60604193E+03</pdfrwt>
<totfact> 0.10370989E+03</totfact>
</mgrwt>
</event>
<event>
 4    1  0.1399921E-004  0.4146105E+03  0.7818608E-02  0.1038835E+00
         -2   -1    0    0    0  501 -0.00000000000E+00  0.00000000000E+00  0.29859958723E+02  0.29859958832E+02  0.25500000000E-02 0. -1.
          2   -1    0    0  501    0  0.00000000000E+00 -0.00000000000E+00 -0.14392342279E+04  0.14392342279E+04  0.25500000000E-02 0.  1.
    5000001    1    1    2    0    0  0.23680419791E+02 -0.14680485788E+03 -0.46089171245E+03  0.50066216073E+03  0.12700000000E+03 0.  0.
   -5000001    1    1    2    0    0 -0.23680419791E+02  0.14680485788E+03 -0.94848255668E+03  0.96843202596E+03  0.12700000000E+03 0.  0.
<mgrwt>
<rscale>  0 0.41461054E+03</rscale>
<asrwt>0</asrwt>
<pdfrwt beam="1">  1        2 0.20560485E+00 0.41461054E+03</pdfrwt>
<pdfrwt beam="2">  1       -2 0.42657093E-02 0.41461054E+03</pdfrwt>
<totfact> 0.41909797E+03</totfact>
</mgrwt>
</event>
<event>
 4    1  0.1399921E-004  0.2820852E+03  0.7818608E-02  0.1094555E+00
         -2   -1    0    0    0  501 -0.00000000000E+00  0.00000000000E+00  0.32528955307E+02  0.32528955407E+02  0.25500000000E-02 0.  1.
          2   -1    0    0  501    0  0.00000000000E+00 -0.00000000000E+00 -0.61154804315E+03  0.61154804316E+03  0.25500000000E-02 0. -1.
    5000001    1    1    2    0    0  0.50609543313E+02 -0.26835077191E+02 -0.33966733419E+03  0.36712987506E+03  0.12700000000E+03 0.  0.
   -5000001    1    1    2    0    0 -0.50609543313E+02  0.26835077191E+02 -0.23935175365E+03  0.27694712351E+03  0.12700000000E+03 0.  0.
<mgrwt>
<rscale>  0 0.28208523E+03</rscale>
<asrwt>0</asrwt>
<pdfrwt beam="1">  1        2 0.87363999E-01 0.28208523E+03</pdfrwt>
<pdfrwt beam="2">  1       -2 0.46469940E-02 0.28208523E+03</pdfrwt>
<totfact> 0.11735380E+04</totfact>
</mgrwt>
</event>
<event>
 4    1  0.1399921E-004  0.4680713E+03  0.7818608E-02  0.1022466E+00
          2   -1    0    0  501    0  0.00000000000E+00  0.00000000000E+00  0.40809087188E+03  0.40809087189E+03  0.25500000000E-02 0.  1.
         -2   -1    0    0    0  501 -0.00000000000E+00 -0.00000000000E+00 -0.13421691047E+03  0.13421691050E+03  0.25500000000E-02 0. -1.
    5000001    1    1    2    0    0  0.79888800891E+02 -0.14047178952E+03  0.26662343563E+03  0.33664759109E+03  0.12700000000E+03 0.  0.
   -5000001    1    1    2    0    0 -0.79888800891E+02  0.14047178952E+03  0.72505257734E+01  0.20566019129E+03  0.12700000000E+03 0.  0.
<mgrwt>
<rscale>  0 0.46807135E+03</rscale>
<asrwt>0</asrwt>
<pdfrwt beam="1">  1        2 0.58298696E-01 0.46807135E+03</pdfrwt>
<pdfrwt beam="2">  1       -2 0.19173844E-01 0.46807135E+03</pdfrwt>
<totfact> 0.19299143E+03</totfact>
</mgrwt>
</event>
<event>
 4    1  0.1399921E-004  0.2968401E+03  0.7818608E-02  0.1086831E+00
         -2   -1    0    0    0  501 -0.00000000000E+00  0.00000000000E+00  0.52844505903E+03  0.52844505903E+03  0.25500000000E-02 0. -1.
          2   -1    0    0  501    0  0.00000000000E+00 -0.00000000000E+00 -0.41685521827E+02  0.41685521905E+02  0.25500000000E-02 0.  1.
    5000001    1    1    2    0    0  0.22988528029E+02 -0.73285967719E+02  0.24251529625E+03  0.28432723120E+03  0.12700000000E+03 0.  0.
   -5000001    1    1    2    0    0 -0.22988528029E+02  0.73285967719E+02  0.24424424095E+03  0.28580334974E+03  0.12700000000E+03 0.  0.
<mgrwt>
<rscale>  0 0.29684008E+03</rscale>
<asrwt>0</asrwt>
<pdfrwt beam="1">  1        2 0.59550742E-02 0.29684008E+03</pdfrwt>
<pdfrwt beam="2">  1       -2 0.75492155E-01 0.29684008E+03</pdfrwt>
<totfact> 0.20220156E+03</totfact>
</mgrwt>
</event>
<event>
 4    1  0.1399921E-004  0.5801214E+03  0.7818608E-02  0.9947528E-01
         -2   -1    0    0    0  501 -0.00000000000E+00  0.00000000000E+00  0.11441464189E+03  0.11441464192E+03  0.25500000000E-02 0. -1.
          2   -1    0    0  501    0  0.00000000000E+00 -0.00000000000E+00 -0.73535340238E+03  0.73535340239E+03  0.25500000000E-02 0.  1.
    5000001    1    1    2    0    0  0.14797725828E+02 -0.18090192054E+03 -0.36186851964E+02  0.22446150182E+03  0.12700000000E+03 0.  0.
   -5000001    1    1    2    0    0 -0.14797725828E+02  0.18090192054E+03 -0.58475190853E+03  0.62530654249E+03  0.12700000000E+03 0.  0.
<mgrwt>
<rscale>  0 0.58012135E+03</rscale>
<asrwt>0</asrwt>
<pdfrwt beam="1">  1        2 0.10505048E+00 0.58012135E+03</pdfrwt>
<pdfrwt beam="2">  1       -2 0.16344949E-01 0.58012135E+03</pdfrwt>
<totfact> 0.12829804E+03</totfact>
</mgrwt>
</event>
<event>
 4    1  0.1399921E-004  0.2032811E+04  0.7818608E-02  0.8591432E-01
         -2   -1    0    0    0  501 -0.00000000000E+00  0.00000000000E+00  0.10014785200E+04  0.10014785200E+04  0.25500000000E-02 0. -1.
          2   -1    0    0  501    0  0.00000000000E+00 -0.00000000000E+00 -0.10315549335E+04  0.10315549335E+04  0.25500000000E-02 0.  1.
    5000001    1    1    2    0    0  0.28589258176E+03 -0.96706564848E+03 -0.14282284647E+02  0.10165055437E+04  0.12700000000E+03 0.  0.
   -5000001    1    1    2    0    0 -0.28589258176E+03  0.96706564848E+03 -0.15794128817E+02  0.10165279097E+04  0.12700000000E+03 0.  0.
<mgrwt>
<rscale>  0 0.20328110E+04</rscale>
<asrwt>0</asrwt>
<pdfrwt beam="1">  1        2 0.14736499E+00 0.20328110E+04</pdfrwt>
<pdfrwt beam="2">  1       -2 0.14306836E+00 0.20328110E+04</pdfrwt>
<totfact> 0.84804251E+00</totfact>
</mgrwt>
</event>
<event>
 4    1  0.1399921E-004  0.4836778E+03  0.7818608E-02  0.1018129E+00
         -2   -1    0    0    0  501 -0.00000000000E+00  0.00000000000E+00  0.67750717684E+02  0.67750717732E+02  0.25500000000E-02 0.  1.
          2   -1    0    0  501    0  0.00000000000E+00 -0.00000000000E+00 -0.86325355221E+03  0.86325355222E+03  0.25500000000E-02 0. -1.
    5000001    1    1    2    0    0 -0.15603653732E+03 -0.11614541105E+03 -0.26834390619E+03  0.35492902034E+03  0.12700000000E+03 0.  0.
   -5000001    1    1    2    0    0  0.15603653732E+03  0.11614541105E+03 -0.52715892834E+03  0.57607524961E+03  0.12700000000E+03 0.  0.
<mgrwt>
<rscale>  0 0.48367778E+03</rscale>
<asrwt>0</asrwt>
<pdfrwt beam="1">  1        2 0.12332193E+00 0.48367778E+03</pdfrwt>
<pdfrwt beam="2">  1       -2 0.96786745E-02 0.48367778E+03</pdfrwt>
<totfact> 0.24857840E+03</totfact>
</mgrwt>
</event>
<event>
 4    1  0.1399921E-004  0.3380870E+03  0.7818608E-02  0.1067614E+00
          2   -1    0    0  501    0  0.00000000000E+00  0.00000000000E+00  0.10355370667E+04  0.10355370667E+04  0.25500000000E-02 0.  1.
         -2   -1    0    0    0  501 -0.00000000000E+00 -0.00000000000E+00 -0.27595062265E+02  0.27595062383E+02  0.25500000000E-02 0. -1.
    5000001    1    1    2    0    0  0.10911456058E+03 -0.21188658378E+02  0.47384834356E+03  0.50300715628E+03  0.12700000000E+03 0.  0.
   -5000001    1    1    2    0    0 -0.10911456058E+03  0.21188658378E+02  0.53409366088E+03  0.56012497281E+03  0.12700000000E+03 0.  0.
<mgrwt>
<rscale>  0 0.33808703E+03</rscale>
<asrwt>0</asrwt>
<pdfrwt beam="1">  1        2 0.14793382E+00 0.33808703E+03</pdfrwt>
<pdfrwt beam="2">  1       -2 0.39421531E-02 0.33808703E+03</pdfrwt>
<totfact> 0.78308358E+03</totfact>
</mgrwt>
</event>
<event>
 4    1  0.1399921E-004  0.2686409E+03  0.7818608E-02  0.1102060E+00
         -2   -1    0    0    0  501 -0.00000000000E+00  0.00000000000E+00  0.39423260951E+03  0.39423260952E+03  0.25500000000E-02 0. -1.
          2   -1    0    0  501    0  0.00000000000E+00 -0.00000000000E+00 -0.45764812822E+02  0.45764812893E+02  0.25500000000E-02 0.  1.
    5000001    1    1    2    0    0 -0.26895144389E+02 -0.23661565876E+02  0.13313155082E+03  0.18744660123E+03  0.12700000000E+03 0.  0.
   -5000001    1    1    2    0    0  0.26895144389E+02  0.23661565876E+02  0.21533624587E+03  0.25255082118E+03  0.12700000000E+03 0.  0.
<mgrwt>
<rscale>  0 0.26864089E+03</rscale>
<asrwt>0</asrwt>
<pdfrwt beam="1">  1        2 0.65378305E-02 0.26864089E+03</pdfrwt>
<pdfrwt beam="2">  1       -2 0.56318944E-01 0.26864089E+03</pdfrwt>
<totfact> 0.33131825E+03</totfact>
</mgrwt>
</event>
<event>
 4    1  0.1399921E-004  0.3111378E+03  0.7818608E-02  0.1079802E+00
          2   -1    0    0  501    0  0.00000000000E+00  0.00000000000E+00  0.27915161717E+02  0.27915161834E+02  0.25500000000E-02 0.  1.
         -2   -1    0    0    0  501 -0.00000000000E+00 -0.00000000000E+00 -0.86697285331E+03  0.86697285331E+03  0.25500000000E-02 0. -1.
    5000001    1    1    2    0    0  0.36154700192E+02  0.38551252530E+02 -0.21054865851E+03  0.25150168790E+03  0.12700000000E+03 0.  0.
   -5000001    1    1    2    0    0 -0.36154700192E+02 -0.38551252530E+02 -0.62850903308E+03  0.64338632724E+03  0.12700000000E+03 0.  0.
<mgrwt>
<rscale>  0 0.31113783E+03</rscale>
<asrwt>0</asrwt>
<pdfrwt beam="1">  1        2 0.39878808E-02 0.31113783E+03</pdfrwt>
<pdfrwt beam="2">  1       -2 0.12385325E+00 0.31113783E+03</pdfrwt>
<totfact> 0.10984332E+03</totfact>
</mgrwt>
</event>
<event>
 4    1  0.1399921E-004  0.4319756E+03  0.7818608E-02  0.1033238E+00
          2   -1    0    0  501    0  0.00000000000E+00  0.00000000000E+00  0.34424136932E+02  0.34424137026E+02  0.25500000000E-02 0.  1.
         -2   -1    0    0    0  501 -0.00000000000E+00 -0.00000000000E+00 -0.13551747599E+04  0.13551747599E+04  0.25500000000E-02 0. -1.
    5000001    1    1    2    0    0 -0.40834958289E+02 -0.89656827326E+02 -0.11244925304E+04  0.11359217805E+04  0.12700000000E+03 0.  0.
   -5000001    1    1    2    0    0  0.40834958289E+02  0.89656827326E+02 -0.19625809263E+03  0.25367711649E+03  0.12700000000E+03 0.  0.
<mgrwt>
<rscale>  0 0.43197556E+03</rscale>
<asrwt>0</asrwt>
<pdfrwt beam="1">  1        2 0.49177347E-02 0.43197556E+03</pdfrwt>
<pdfrwt beam="2">  1       -2 0.19359636E+00 0.43197556E+03</pdfrwt>
<totfact> 0.25451089E+02</totfact>
</mgrwt>
</event>
<event>
 4    1  0.1399921E-004  0.3746818E+03  0.7818608E-02  0.1052917E+00
         -2   -1    0    0    0  501 -0.00000000000E+00  0.00000000000E+00  0.12728032501E+03  0.12728032503E+03  0.25500000000E-02 0. -1.
          2   -1    0    0  501    0  0.00000000000E+00 -0.00000000000E+00 -0.27574265611E+03  0.27574265613E+03  0.25500000000E-02 0.  1.
    5000001    1    1    2    0    0 -0.30179972473E+02  0.10940223232E+03 -0.15815826800E+03  0.23242787464E+03  0.12700000000E+03 0.  0.
   -5000001    1    1    2    0    0  0.30179972473E+02 -0.10940223232E+03  0.96959368935E+01  0.17059510651E+03  0.12700000000E+03 0.  0.
<mgrwt>
<rscale>  0 0.37468181E+03</rscale>
<asrwt>0</asrwt>
<pdfrwt beam="1">  1        2 0.39391808E-01 0.37468181E+03</pdfrwt>
<pdfrwt beam="2">  1       -2 0.18182904E-01 0.37468181E+03</pdfrwt>
<totfact> 0.32346492E+03</totfact>
</mgrwt>
</event>
<event>
 4    1  0.1399921E-004  0.2933586E+03  0.7818608E-02  0.1088608E+00
         -2   -1    0    0    0  501 -0.00000000000E+00  0.00000000000E+00  0.49905405715E+02  0.49905405780E+02  0.25500000000E-02 0. -1.
          2   -1    0    0  501    0  0.00000000000E+00 -0.00000000000E+00 -0.43111208760E+03  0.43111208761E+03  0.25500000000E-02 0.  1.
    5000001    1    1    2    0    0  0.36978516071E+01  0.59153771529E+02 -0.26156579892E+03  0.29674654161E+03  0.12700000000E+03 0.  0.
   -5000001    1    1    2    0    0 -0.36978516071E+01 -0.59153771529E+02 -0.11964088297E+03  0.18427095178E+03  0.12700000000E+03 0.  0.
<mgrwt>
<rscale>  0 0.29335865E+03</rscale>
<asrwt>0</asrwt>
<pdfrwt beam="1">  1        2 0.61587439E-01 0.29335865E+03</pdfrwt>
<pdfrwt beam="2">  1       -2 0.71293439E-02 0.29335865E+03</pdfrwt>
<totfact> 0.90031092E+03</totfact>
</mgrwt>
</event>
<event>
 4    1  0.1399921E-004  0.8667793E+03  0.7818608E-02  0.9468089E-01
          2   -1    0    0  501    0  0.00000000000E+00  0.00000000000E+00  0.78432840555E+03  0.78432840555E+03  0.25500000000E-02 0.  1.
         -2   -1    0    0    0  501 -0.00000000000E+00 -0.00000000000E+00 -0.23947440721E+03  0.23947440723E+03  0.25500000000E-02 0. -1.
    5000001    1    1    2    0    0 -0.39145401480E+03  0.13534601261E+03  0.25831272820E+03  0.50438998244E+03  0.12700000000E+03 0.  0.
   -5000001    1    1    2    0    0  0.39145401480E+03 -0.13534601261E+03  0.28654127013E+03  0.51941283034E+03  0.12700000000E+03 0.  0.
<mgrwt>
<rscale>  0 0.86677928E+03</rscale>
<asrwt>0</asrwt>
<pdfrwt beam="1">  1        2 0.11204692E+00 0.86677928E+03</pdfrwt>
<pdfrwt beam="2">  1       -2 0.34210629E-01 0.86677928E+03</pdfrwt>
<totfact> 0.31250861E+02</totfact>
</mgrwt>
</event>
<event>
 4    1  0.1399921E-004  0.4087581E+03  0.7818608E-02  0.1040789E+00
          2   -1    0    0  501    0  0.00000000000E+00  0.00000000000E+00  0.68101228242E+03  0.68101228243E+03  0.25500000000E-02 0.  1.
         -2   -1    0    0    0  501 -0.00000000000E+00 -0.00000000000E+00 -0.61336321277E+02  0.61336321330E+02  0.25500000000E-02 0. -1.
    5000001    1    1    2    0    0  0.12333210362E+03  0.10083822197E+03  0.33926976033E+03  0.39574249843E+03  0.12700000000E+03 0.  0.
   -5000001    1    1    2    0    0 -0.12333210362E+03 -0.10083822197E+03  0.28040620082E+03  0.34660610533E+03  0.12700000000E+03 0.  0.
<mgrwt>
<rscale>  0 0.40875806E+03</rscale>
<asrwt>0</asrwt>
<pdfrwt beam="1">  1        2 0.97287469E-01 0.40875806E+03</pdfrwt>
<pdfrwt beam="2">  1       -2 0.87623316E-02 0.40875806E+03</pdfrwt>
<totfact> 0.39109405E+03</totfact>
</mgrwt>
</event>
<event>
 4    1  0.1399921E-004  0.5645516E+03  0.7818608E-02  0.9981808E-01
          2   -1    0    0  501    0  0.00000000000E+00  0.00000000000E+00  0.29366826635E+03  0.29366826636E+03  0.25500000000E-02 0.  1.
         -2   -1    0    0    0  501 -0.00000000000E+00 -0.00000000000E+00 -0.27132527660E+03  0.27132527662E+03  0.25500000000E-02 0. -1.
    5000001    1    1    2    0    0  0.20322308342E+03 -0.14445749977E+03  0.48389756216E+02  0.28396858872E+03  0.12700000000E+03 0.  0.
   -5000001    1    1    2    0    0 -0.20322308342E+03  0.14445749977E+03 -0.26046766471E+02  0.28102495426E+03  0.12700000000E+03 0.  0.
<mgrwt>
<rscale>  0 0.56455159E+03</rscale>
<asrwt>0</asrwt>
<pdfrwt beam="1">  1        2 0.41952610E-01 0.56455159E+03</pdfrwt>
<pdfrwt beam="2">  1       -2 0.38760754E-01 0.56455159E+03</pdfrwt>
<totfact> 0.77165238E+02</totfact>
</mgrwt>
</event>
<event>
 4    1  0.1399921E-004  0.3952103E+03  0.7818608E-02  0.1045451E+00
         -2   -1    0    0    0  501 -0.00000000000E+00  0.00000000000E+00  0.94041351413E+02  0.94041351447E+02  0.25500000000E-02 0. -1.
          2   -1    0    0  501    0  0.00000000000E+00 -0.00000000000E+00 -0.41521938302E+03  0.41521938302E+03  0.25500000000E-02 0.  1.
    5000001    1    1    2    0    0  0.65359975368E+02 -0.13388832054E+03 -0.19518409055E+03  0.27644861722E+03  0.12700000000E+03 0.  0.
   -5000001    1    1    2    0    0 -0.65359975368E+02  0.13388832054E+03 -0.12599394106E+03  0.23281211725E+03  0.12700000000E+03 0.  0.
<mgrwt>
<rscale>  0 0.39521028E+03</rscale>
<asrwt>0</asrwt>
<pdfrwt beam="1">  1        2 0.59317054E-01 0.39521028E+03</pdfrwt>
<pdfrwt beam="2">  1       -2 0.13434479E-01 0.39521028E+03</pdfrwt>
<totfact> 0.34389124E+03</totfact>
</mgrwt>
</event>
<event>
 4    1  0.1399921E-004  0.4237046E+03  0.7818608E-02  0.1035867E+00
          2   -1    0    0  501    0  0.00000000000E+00  0.00000000000E+00  0.13543768428E+04  0.13543768428E+04  0.25500000000E-02 0.  1.
         -2   -1    0    0    0  501 -0.00000000000E+00 -0.00000000000E+00 -0.33138048204E+02  0.33138048302E+02  0.25500000000E-02 0. -1.
    5000001    1    1    2    0    0 -0.56045584341E+02  0.14052627290E+03  0.40985898073E+03  0.45497486192E+03  0.12700000000E+03 0.  0.
   -5000001    1    1    2    0    0  0.56045584341E+02 -0.14052627290E+03  0.91137981392E+03  0.93254002923E+03  0.12700000000E+03 0.  0.
<mgrwt>
<rscale>  0 0.42370464E+03</rscale>
<asrwt>0</asrwt>
<pdfrwt beam="1">  1        2 0.19348238E+00 0.42370464E+03</pdfrwt>
<pdfrwt beam="2">  1       -2 0.47340074E-02 0.42370464E+03</pdfrwt>
<totfact> 0.39590758E+03</totfact>
</mgrwt>
</event>
<event>
 4    1  0.1399921E-004  0.3241545E+03  0.7818608E-02  0.1073753E+00
         -2   -1    0    0    0  501 -0.00000000000E+00  0.00000000000E+00  0.26040091759E+04  0.26040091759E+04  0.25500000000E-02 0. -1.
          2   -1    0    0  501    0  0.00000000000E+00 -0.00000000000E+00 -0.10087921533E+02  0.10087921855E+02  0.25500000000E-02 0.  1.
    5000001    1    1    2    0    0  0.83019385988E+02 -0.12699666480E+02  0.84893215357E+03  0.86247800050E+03  0.12700000000E+03 0.  0.
   -5000001    1    1    2    0    0 -0.83019385988E+02  0.12699666480E+02  0.17449891008E+04  0.17516190973E+04  0.12700000000E+03 0.  0.
<mgrwt>
<rscale>  0 0.32415454E+03</rscale>
<asrwt>0</asrwt>
<pdfrwt beam="1">  1        2 0.14411325E-02 0.32415454E+03</pdfrwt>
<pdfrwt beam="2">  1       -2 0.37200109E+00 0.32415454E+03</pdfrwt>
<totfact> 0.11645370E+02</totfact>
</mgrwt>
</event>
<event>
 4    1  0.1399921E-004  0.3630977E+03  0.7818608E-02  0.1057364E+00
         -2   -1    0    0    0  501 -0.00000000000E+00  0.00000000000E+00  0.89220112562E+02  0.89220112598E+02  0.25500000000E-02 0. -1.
          2   -1    0    0  501    0  0.00000000000E+00 -0.00000000000E+00 -0.36942330383E+03  0.36942330384E+03  0.25500000000E-02 0.  1.
    5000001    1    1    2    0    0  0.12191170045E+03  0.29664747337E+02 -0.98426979642E+02  0.20386105627E+03  0.12700000000E+03 0.  0.
   -5000001    1    1    2    0    0 -0.12191170045E+03 -0.29664747337E+02 -0.18177621163E+03  0.25478236017E+03  0.12700000000E+03 0.  0.
<mgrwt>
<rscale>  0 0.36309772E+03</rscale>
<asrwt>0</asrwt>
<pdfrwt beam="1">  1        2 0.52774757E-01 0.36309772E+03</pdfrwt>
<pdfrwt beam="2">  1       -2 0.12745731E-01 0.36309772E+03</pdfrwt>
<totfact> 0.42530163E+03</totfact>
</mgrwt>
</event>
<event>
 4    1  0.1399921E-004  0.3316671E+03  0.7818608E-02  0.1070402E+00
         -2   -1    0    0    0  501 -0.00000000000E+00  0.00000000000E+00  0.81153806896E+02  0.81153806936E+02  0.25500000000E-02 0. -1.
          2   -1    0    0  501    0  0.00000000000E+00 -0.00000000000E+00 -0.33887218369E+03  0.33887218370E+03  0.25500000000E-02 0.  1.
    5000001    1    1    2    0    0  0.77932457268E+02  0.72070679757E+02 -0.11593704473E+03  0.20208426242E+03  0.12700000000E+03 0.  0.
   -5000001    1    1    2    0    0 -0.77932457268E+02 -0.72070679757E+02 -0.14178133206E+03  0.21794172821E+03  0.12700000000E+03 0.  0.
<mgrwt>
<rscale>  0 0.33166711E+03</rscale>
<asrwt>0</asrwt>
<pdfrwt beam="1">  1        2 0.48410311E-01 0.33166711E+03</pdfrwt>
<pdfrwt beam="2">  1       -2 0.11593401E-01 0.33166711E+03</pdfrwt>
<totfact> 0.54365385E+03</totfact>
</mgrwt>
</event>
<event>
 4    1  0.1399921E-004  0.3418749E+03  0.7818608E-02  0.1066000E+00
         -2   -1    0    0    0  501 -0.00000000000E+00  0.00000000000E+00  0.16878854025E+03  0.16878854027E+03  0.25500000000E-02 0. -1.
          2   -1    0    0  501    0  0.00000000000E+00 -0.00000000000E+00 -0.17311373304E+03  0.17311373306E+03  0.25500000000E-02 0.  1.
    5000001    1    1    2    0    0 -0.78731203158E+02  0.83017763551E+02 -0.24133887490E+01  0.17095430928E+03  0.12700000000E+03 0.  0.
   -5000001    1    1    2    0    0  0.78731203158E+02 -0.83017763551E+02 -0.19118040411E+01  0.17094796404E+03  0.12700000000E+03 0.  0.
<mgrwt>
<rscale>  0 0.34187491E+03</rscale>
<asrwt>0</asrwt>
<pdfrwt beam="1">  1        2 0.24730533E-01 0.34187491E+03</pdfrwt>
<pdfrwt beam="2">  1       -2 0.24112649E-01 0.34187491E+03</pdfrwt>
<totfact> 0.33122296E+03</totfact>
</mgrwt>
</event>
<event>
 4    1  0.1399921E-004  0.9022346E+03  0.7818608E-02  0.9422792E-01
         -2   -1    0    0    0  501 -0.00000000000E+00  0.00000000000E+00  0.97104241746E+02  0.97104241779E+02  0.25500000000E-02 0. -1.
          2   -1    0    0  501    0  0.00000000000E+00 -0.00000000000E+00 -0.20957561906E+04  0.20957561906E+04  0.25500000000E-02 0.  1.
    5000001    1    1    2    0    0  0.10259346107E+03 -0.42053812160E+03 -0.10000380353E+04  0.10970792141E+04  0.12700000000E+03 0.  0.
   -5000001    1    1    2    0    0 -0.10259346107E+03  0.42053812160E+03 -0.99861391349E+03  0.10957812182E+04  0.12700000000E+03 0.  0.
<mgrwt>
<rscale>  0 0.90223459E+03</rscale>
<asrwt>0</asrwt>
<pdfrwt beam="1">  1        2 0.29939371E+00 0.90223459E+03</pdfrwt>
<pdfrwt beam="2">  1       -2 0.13872036E-01 0.90223459E+03</pdfrwt>
<totfact> 0.28933884E+02</totfact>
</mgrwt>
</event>
<event>
 4    1  0.1399921E-004  0.4796851E+03  0.7818608E-02  0.1019222E+00
          2   -1    0    0  501    0  0.00000000000E+00  0.00000000000E+00  0.32537465871E+03  0.32537465872E+03  0.25500000000E-02 0.  1.
         -2   -1    0    0    0  501 -0.00000000000E+00 -0.00000000000E+00 -0.17679447279E+03  0.17679447280E+03  0.25500000000E-02 0. -1.
    5000001    1    1    2    0    0  0.80279600683E+02  0.13514401759E+03 -0.60941860436E+02  0.21107257076E+03  0.12700000000E+03 0.  0.
   -5000001    1    1    2    0    0 -0.80279600683E+02 -0.13514401759E+03  0.20952204636E+03  0.29109656076E+03  0.12700000000E+03 0.  0.
<mgrwt>
<rscale>  0 0.47968507E+03</rscale>
<asrwt>0</asrwt>
<pdfrwt beam="1">  1        2 0.46482094E-01 0.47968507E+03</pdfrwt>
<pdfrwt beam="2">  1       -2 0.25256354E-01 0.47968507E+03</pdfrwt>
<totfact> 0.15265930E+03</totfact>
</mgrwt>
</event>
<event>
 4    1  0.1399921E-004  0.4787024E+03  0.7818608E-02  0.1019492E+00
         -2   -1    0    0    0  501 -0.00000000000E+00  0.00000000000E+00  0.82173577692E+02  0.82173577731E+02  0.25500000000E-02 0. -1.
          2   -1    0    0  501    0  0.00000000000E+00 -0.00000000000E+00 -0.69717045783E+03  0.69717045783E+03  0.25500000000E-02 0.  1.
    5000001    1    1    2    0    0 -0.12256616475E+03 -0.11556744604E+03 -0.49155775429E+03  0.53491711987E+03  0.12700000000E+03 0.  0.
   -5000001    1    1    2    0    0  0.12256616475E+03  0.11556744604E+03 -0.12343912584E+03  0.24442691569E+03  0.12700000000E+03 0.  0.
<mgrwt>
<rscale>  0 0.47870237E+03</rscale>
<asrwt>0</asrwt>
<pdfrwt beam="1">  1        2 0.99595776E-01 0.47870237E+03</pdfrwt>
<pdfrwt beam="2">  1       -2 0.11739083E-01 0.47870237E+03</pdfrwt>
<totfact> 0.23771218E+03</totfact>
</mgrwt>
</event>
<event>
 4    1  0.1399921E-004  0.4476630E+03  0.7818608E-02  0.1028421E+00
         -2   -1    0    0    0  501 -0.00000000000E+00  0.00000000000E+00  0.19750272208E+04  0.19750272208E+04  0.25500000000E-02 0. -1.
          2   -1    0    0  501    0  0.00000000000E+00 -0.00000000000E+00 -0.25367009701E+02  0.25367009829E+02  0.25500000000E-02 0.  1.
    5000001    1    1    2    0    0  0.12024693947E+03 -0.71260386564E+02  0.43797107927E+03  0.47695391332E+03  0.12700000000E+03 0.  0.
   -5000001    1    1    2    0    0 -0.12024693947E+03  0.71260386564E+02  0.15116891319E+04  0.15234403173E+04  0.12700000000E+03 0.  0.
<mgrwt>
<rscale>  0 0.44766298E+03</rscale>
<asrwt>0</asrwt>
<pdfrwt beam="1">  1        2 0.36238590E-02 0.44766298E+03</pdfrwt>
<pdfrwt beam="2">  1       -2 0.28214671E+00 0.44766298E+03</pdfrwt>
<totfact> 0.11119796E+02</totfact>
</mgrwt>
</event>
<event>
 4    1  0.1399921E-004  0.6038099E+03  0.7818608E-02  0.9897533E-01
          2   -1    0    0  501    0  0.00000000000E+00  0.00000000000E+00  0.17200274154E+04  0.17200274154E+04  0.25500000000E-02 0.  1.
         -2   -1    0    0    0  501 -0.00000000000E+00 -0.00000000000E+00 -0.52991371278E+02  0.52991371339E+02  0.25500000000E-02 0. -1.
    5000001    1    1    2    0    0 -0.10543915732E+03  0.14922468403E+03  0.14326571767E+04  0.14498348210E+04  0.12700000000E+03 0.  0.
   -5000001    1    1    2    0    0  0.10543915732E+03 -0.14922468403E+03  0.23437886743E+03  0.32318396575E+03  0.12700000000E+03 0.  0.
<mgrwt>
<rscale>  0 0.60380994E+03</rscale>
<asrwt>0</asrwt>
<pdfrwt beam="1">  1        2 0.24571815E+00 0.60380994E+03</pdfrwt>
<pdfrwt beam="2">  1       -2 0.75701975E-02 0.60380994E+03</pdfrwt>
<totfact> 0.12272716E+03</totfact>
</mgrwt>
</event>
<event>
 4    1  0.1399921E-004  0.4825413E+03  0.7818608E-02  0.1018439E+00
          2   -1    0    0  501    0  0.00000000000E+00  0.00000000000E+00  0.17304516991E+04  0.17304516991E+04  0.25500000000E-02 0.  1.
         -2   -1    0    0    0  501 -0.00000000000E+00 -0.00000000000E+00 -0.33639496861E+02  0.33639496958E+02  0.25500000000E-02 0. -1.
    5000001    1    1    2    0    0  0.18811485268E+03 -0.81719884923E+02  0.86356225808E+03  0.89662372876E+03  0.12700000000E+03 0.  0.
   -5000001    1    1    2    0    0 -0.18811485268E+03  0.81719884923E+02  0.83324994419E+03  0.86746746734E+03  0.12700000000E+03 0.  0.
<mgrwt>
<rscale>  0 0.48254129E+03</rscale>
<asrwt>0</asrwt>
<pdfrwt beam="1">  1        2 0.24720745E+00 0.48254129E+03</pdfrwt>
<pdfrwt beam="2">  1       -2 0.48056412E-02 0.48254129E+03</pdfrwt>
<totfact> 0.24780710E+03</totfact>
</mgrwt>
</event>
<event>
 4    1  0.1399921E-004  0.4493158E+03  0.7818608E-02  0.1027926E+00
          2   -1    0    0  501    0  0.00000000000E+00  0.00000000000E+00  0.78595685233E+03  0.78595685234E+03  0.25500000000E-02 0.  1.
         -2   -1    0    0    0  501 -0.00000000000E+00 -0.00000000000E+00 -0.64216217071E+02  0.64216217121E+02  0.25500000000E-02 0. -1.
    5000001    1    1    2    0    0  0.16759855034E+03 -0.78817864809E+02  0.37293356950E+03  0.43532743671E+03  0.12700000000E+03 0.  0.
   -5000001    1    1    2    0    0 -0.16759855034E+03  0.78817864809E+02  0.34880706576E+03  0.41484563275E+03  0.12700000000E+03 0.  0.
<mgrwt>
<rscale>  0 0.44931582E+03</rscale>
<asrwt>0</asrwt>
<pdfrwt beam="1">  1        2 0.11227954E+00 0.44931582E+03</pdfrwt>
<pdfrwt beam="2">  1       -2 0.91737462E-02 0.44931582E+03</pdfrwt>
<totfact> 0.30529576E+03</totfact>
</mgrwt>
</event>
<event>
 4    1  0.1399921E-004  0.6626413E+03  0.7818608E-02  0.9783344E-01
         -2   -1    0    0    0  501 -0.00000000000E+00  0.00000000000E+00  0.21631367790E+03  0.21631367791E+03  0.25500000000E-02 0. -1.
          2   -1    0    0  501    0  0.00000000000E+00 -0.00000000000E+00 -0.50747309340E+03  0.50747309341E+03  0.25500000000E-02 0.  1.
    5000001    1    1    2    0    0  0.28318375670E+03  0.46177894991E+02 -0.26178740453E+03  0.40864053055E+03  0.12700000000E+03 0.  0.
   -5000001    1    1    2    0    0 -0.28318375670E+03 -0.46177894991E+02 -0.29372010979E+02  0.31514624077E+03  0.12700000000E+03 0.  0.
<mgrwt>
<rscale>  0 0.66264129E+03</rscale>
<asrwt>0</asrwt>
<pdfrwt beam="1">  1        2 0.72496156E-01 0.66264129E+03</pdfrwt>
<pdfrwt beam="2">  1       -2 0.30901954E-01 0.66264129E+03</pdfrwt>
<totfact> 0.64313222E+02</totfact>
</mgrwt>
</event>
<event>
 4    1  0.1399921E-004  0.6126757E+03  0.7818608E-02  0.9879451E-01
          2   -1    0    0  501    0  0.00000000000E+00  0.00000000000E+00  0.85606007222E+03  0.85606007222E+03  0.25500000000E-02 0.  1.
         -2   -1    0    0    0  501 -0.00000000000E+00 -0.00000000000E+00 -0.10962183316E+03  0.10962183319E+03  0.25500000000E-02 0. -1.
    5000001    1    1    2    0    0 -0.19321280511E+03 -0.33032120320E+02  0.68564939596E+03  0.72433859708E+03  0.12700000000E+03 0.  0.
   -5000001    1    1    2    0    0  0.19321280511E+03  0.33032120320E+02  0.60788843101E+02  0.24134330833E+03  0.12700000000E+03 0.  0.
<mgrwt>
<rscale>  0 0.61267569E+03</rscale>
<asrwt>0</asrwt>
<pdfrwt beam="1">  1        2 0.12229430E+00 0.61267569E+03</pdfrwt>
<pdfrwt beam="2">  1       -2 0.15660262E-01 0.61267569E+03</pdfrwt>
<totfact> 0.11359972E+03</totfact>
</mgrwt>
</event>
<event>
 4    1  0.1399921E-004  0.3158676E+03  0.7818608E-02  0.1077567E+00
         -2   -1    0    0    0  501 -0.00000000000E+00  0.00000000000E+00  0.24584800353E+02  0.24584800485E+02  0.25500000000E-02 0. -1.
          2   -1    0    0  501    0  0.00000000000E+00 -0.00000000000E+00 -0.10145733299E+04  0.10145733299E+04  0.25500000000E-02 0.  1.
    5000001    1    1    2    0    0  0.24893089310E+02  0.88924948761E+02 -0.55070562431E+03  0.57265434344E+03  0.12700000000E+03 0.  0.
   -5000001    1    1    2    0    0 -0.24893089310E+02 -0.88924948761E+02 -0.43928290522E+03  0.46650378693E+03  0.12700000000E+03 0.  0.
<mgrwt>
<rscale>  0 0.31586759E+03</rscale>
<asrwt>0</asrwt>
<pdfrwt beam="1">  1        2 0.14493902E+00 0.31586759E+03</pdfrwt>
<pdfrwt beam="2">  1       -2 0.35121150E-02 0.31586759E+03</pdfrwt>
<totfact> 0.95713290E+03</totfact>
</mgrwt>
</event>
<event>
 4    1  0.1399921E-004  0.3404056E+03  0.7818608E-02  0.1066623E+00
          2   -1    0    0  501    0  0.00000000000E+00  0.00000000000E+00  0.19372677779E+04  0.19372677779E+04  0.25500000000E-02 0.  1.
         -2   -1    0    0    0  501 -0.00000000000E+00 -0.00000000000E+00 -0.14953532485E+02  0.14953532703E+02  0.25500000000E-02 0. -1.
    5000001    1    1    2    0    0 -0.10536521042E+03 -0.41681160216E+02  0.95586916966E+03  0.97090371108E+03  0.12700000000E+03 0.  0.
   -5000001    1    1    2    0    0  0.10536521042E+03  0.41681160216E+02  0.96644507576E+03  0.98131759953E+03  0.12700000000E+03 0.  0.
<mgrwt>
<rscale>  0 0.34040562E+03</rscale>
<asrwt>0</asrwt>
<pdfrwt beam="1">  1        2 0.27675243E+00 0.34040562E+03</pdfrwt>
<pdfrwt beam="2">  1       -2 0.21362198E-02 0.34040562E+03</pdfrwt>
<totfact> 0.66604446E+03</totfact>
</mgrwt>
</event>
<event>
 4    1  0.1399921E-004  0.3972694E+03  0.7818608E-02  0.1044729E+00
          2   -1    0    0  501    0  0.00000000000E+00  0.00000000000E+00  0.90298723604E+03  0.90298723604E+03  0.25500000000E-02 0.  1.
         -2   -1    0    0    0  501 -0.00000000000E+00 -0.00000000000E+00 -0.43694697003E+02  0.43694697077E+02  0.25500000000E-02 0. -1.
    5000001    1    1    2    0    0  0.44282258217E+02  0.11579107471E+03  0.21706350678E+03  0.28038198471E+03  0.12700000000E+03 0.  0.
   -5000001    1    1    2    0    0 -0.44282258217E+02 -0.11579107471E+03  0.64222903226E+03  0.66629994841E+03  0.12700000000E+03 0.  0.
<mgrwt>
<rscale>  0 0.39726945E+03</rscale>
<asrwt>0</asrwt>
<pdfrwt beam="1">  1        2 0.12899818E+00 0.39726945E+03</pdfrwt>
<pdfrwt beam="2">  1       -2 0.62420995E-02 0.39726945E+03</pdfrwt>
<totfact> 0.46770987E+03</totfact>
</mgrwt>
</event>
<event>
 4    1  0.1399921E-004  0.3499618E+03  0.7818608E-02  0.1062631E+00
         -2   -1    0    0    0  501 -0.00000000000E+00  0.00000000000E+00  0.92393308594E+02  0.92393308629E+02  0.25500000000E-02 0. -1.
          2   -1    0    0  501    0  0.00000000000E+00 -0.00000000000E+00 -0.33139109061E+03  0.33139109062E+03  0.25500000000E-02 0.  1.
    5000001    1    1    2    0    0  0.62053743080E+01 -0.10593854907E+03 -0.18829756325E+03  0.25069195276E+03  0.12700000000E+03 0.  0.
   -5000001    1    1    2    0    0 -0.62053743080E+01  0.10593854907E+03 -0.50700218763E+02  0.17309244649E+03  0.12700000000E+03 0.  0.
<mgrwt>
<rscale>  0 0.34996182E+03</rscale>
<asrwt>0</asrwt>
<pdfrwt beam="1">  1        2 0.47341584E-01 0.34996182E+03</pdfrwt>
<pdfrwt beam="2">  1       -2 0.13199044E-01 0.34996182E+03</pdfrwt>
<totfact> 0.45157900E+03</totfact>
</mgrwt>
</event>
<event>
 4    1  0.1399921E-004  0.4096284E+03  0.7818608E-02  0.1040496E+00
          2   -1    0    0  501    0  0.00000000000E+00  0.00000000000E+00  0.11331452687E+04  0.11331452687E+04  0.25500000000E-02 0.  1.
         -2   -1    0    0    0  501 -0.00000000000E+00 -0.00000000000E+00 -0.37019845828E+02  0.37019845916E+02  0.25500000000E-02 0. -1.
    5000001    1    1    2    0    0  0.55097386352E+02 -0.13066810586E+03  0.33220149249E+03  0.38287949473E+03  0.12700000000E+03 0.  0.
   -5000001    1    1    2    0    0 -0.55097386352E+02  0.13066810586E+03  0.76392393041E+03  0.78728561992E+03  0.12700000000E+03 0.  0.
<mgrwt>
<rscale>  0 0.40962843E+03</rscale>
<asrwt>0</asrwt>
<pdfrwt beam="1">  1        2 0.16187792E+00 0.40962843E+03</pdfrwt>
<pdfrwt beam="2">  1       -2 0.52885486E-02 0.40962843E+03</pdfrwt>
<totfact> 0.44082891E+03</totfact>
</mgrwt>
</event>
<event>
 4    1  0.1399921E-004  0.4319919E+03  0.7818608E-02  0.1033233E+00
         -2   -1    0    0    0  501 -0.00000000000E+00  0.00000000000E+00  0.16447586324E+02  0.16447586521E+02  0.25500000000E-02 0. -1.
          2   -1    0    0  501    0  0.00000000000E+00 -0.00000000000E+00 -0.28365414713E+04  0.28365414713E+04  0.25500000000E-02 0.  1.
    5000001    1    1    2    0    0 -0.15692999975E+03  0.39390976766E+02 -0.18454571915E+04  0.18568844658E+04  0.12700000000E+03 0.  0.
   -5000001    1    1    2    0    0  0.15692999975E+03 -0.39390976766E+02 -0.97463669354E+03  0.99610459203E+03  0.12700000000E+03 0.  0.
<mgrwt>
<rscale>  0 0.43199195E+03</rscale>
<asrwt>0</asrwt>
<pdfrwt beam="1">  1        2 0.40521990E+00 0.43199195E+03</pdfrwt>
<pdfrwt beam="2">  1       -2 0.23496570E-02 0.43199195E+03</pdfrwt>
<totfact> 0.20304220E+03</totfact>
</mgrwt>
</event>
<event>
 4    1  0.1399921E-004  0.6757434E+03  0.7818608E-02  0.9759638E-01
          2   -1    0    0  501    0  0.00000000000E+00  0.00000000000E+00  0.15687275504E+04  0.15687275504E+04  0.25500000000E-02 0.  1.
         -2   -1    0    0    0  501 -0.00000000000E+00 -0.00000000000E+00 -0.72770617734E+02  0.72770617778E+02  0.25500000000E-02 0. -1.
    5000001    1    1    2    0    0  0.63668944564E+02  0.29075009542E+03  0.98398269075E+03  0.10358283102E+04  0.12700000000E+03 0.  0.
   -5000001    1    1    2    0    0 -0.63668944564E+02 -0.29075009542E+03  0.51197424189E+03  0.60566985796E+03  0.12700000000E+03 0.  0.
<mgrwt>
<rscale>  0 0.67574336E+03</rscale>
<asrwt>0</asrwt>
<pdfrwt beam="1">  1        2 0.22410395E+00 0.67574336E+03</pdfrwt>
<pdfrwt beam="2">  1       -2 0.10395802E-01 0.67574336E+03</pdfrwt>
<totfact> 0.87812574E+02</totfact>
</mgrwt>
</event>
<event>
 4    1  0.1399921E-004  0.4443937E+03  0.7818608E-02  0.1029407E+00
         -2   -1    0    0    0  501 -0.00000000000E+00  0.00000000000E+00  0.64558704928E+02  0.64558704978E+02  0.25500000000E-02 0. -1.
          2   -1    0    0  501    0  0.00000000000E+00 -0.00000000000E+00 -0.76475271136E+03  0.76475271136E+03  0.25500000000E-02 0.  1.
    5000001    1    1    2    0    0 -0.12926284742E+03 -0.12804579109E+03 -0.37200645763E+03  0.43315402903E+03  0.12700000000E+03 0.  0.
   -5000001    1    1    2    0    0  0.12926284742E+03  0.12804579109E+03 -0.32818754879E+03  0.39615738731E+03  0.12700000000E+03 0.  0.
<mgrwt>
<rscale>  0 0.44439372E+03</rscale>
<asrwt>0</asrwt>
<pdfrwt beam="1">  1        2 0.10925038E+00 0.44439372E+03</pdfrwt>
<pdfrwt beam="2">  1       -2 0.92226726E-02 0.44439372E+03</pdfrwt>
<totfact> 0.31320571E+03</totfact>
</mgrwt>
</event>
<event>
 4    1  0.1399921E-004  0.3688674E+03  0.7818608E-02  0.1055127E+00
         -2   -1    0    0    0  501 -0.00000000000E+00  0.00000000000E+00  0.31908460826E+02  0.31908460928E+02  0.25500000000E-02 0. -1.
          2   -1    0    0  501    0  0.00000000000E+00 -0.00000000000E+00 -0.10660432320E+04  0.10660432320E+04  0.25500000000E-02 0.  1.
    5000001    1    1    2    0    0  0.85818706589E+02 -0.25856137865E+02 -0.22160231666E+03  0.27068427552E+03  0.12700000000E+03 0.  0.
   -5000001    1    1    2    0    0 -0.85818706589E+02  0.25856137865E+02 -0.81253245451E+03  0.82726741740E+03  0.12700000000E+03 0.  0.
<mgrwt>
<rscale>  0 0.36886745E+03</rscale>
<asrwt>0</asrwt>
<pdfrwt beam="1">  1        2 0.15229187E+00 0.36886745E+03</pdfrwt>
<pdfrwt beam="2">  1       -2 0.45583522E-02 0.36886745E+03</pdfrwt>
<totfact> 0.60393543E+03</totfact>
</mgrwt>
</event>
<event>
 4    1  0.1399921E-004  0.4185572E+03  0.7818608E-02  0.1037537E+00
          2   -1    0    0  501    0  0.00000000000E+00  0.00000000000E+00  0.54581011652E+03  0.54581011652E+03  0.25500000000E-02 0.  1.
         -2   -1    0    0    0  501 -0.00000000000E+00 -0.00000000000E+00 -0.80243170390E+02  0.80243170430E+02  0.25500000000E-02 0. -1.
    5000001    1    1    2    0    0 -0.13670835738E+03 -0.88549858622E+02  0.18231950909E+03  0.27549892166E+03  0.12700000000E+03 0.  0.
   -5000001    1    1    2    0    0  0.13670835738E+03  0.88549858622E+02  0.28324743704E+03  0.35055436529E+03  0.12700000000E+03 0.  0.
<mgrwt>
<rscale>  0 0.41855721E+03</rscale>
<asrwt>0</asrwt>
<pdfrwt beam="1">  1        2 0.77972876E-01 0.41855721E+03</pdfrwt>
<pdfrwt beam="2">  1       -2 0.11463310E-01 0.41855721E+03</pdfrwt>
<totfact> 0.32884572E+03</totfact>
</mgrwt>
</event>
<event>
 4    1  0.1399921E-004  0.4590857E+03  0.7818608E-02  0.1025047E+00
         -2   -1    0    0    0  501 -0.00000000000E+00  0.00000000000E+00  0.43727961916E+02  0.43727961990E+02  0.25500000000E-02 0. -1.
          2   -1    0    0  501    0  0.00000000000E+00 -0.00000000000E+00 -0.12049479326E+04  0.12049479326E+04  0.25500000000E-02 0.  1.
    5000001    1    1    2    0    0 -0.12945025578E+03  0.46109973110E+02 -0.21897919408E+03  0.28803538981E+03  0.12700000000E+03 0.  0.
   -5000001    1    1    2    0    0  0.12945025578E+03 -0.46109973110E+02 -0.94224077657E+03  0.96064050475E+03  0.12700000000E+03 0.  0.
<mgrwt>
<rscale>  0 0.45908569E+03</rscale>
<asrwt>0</asrwt>
<pdfrwt beam="1">  1        2 0.17213540E+00 0.45908569E+03</pdfrwt>
<pdfrwt beam="2">  1       -2 0.62468525E-02 0.45908569E+03</pdfrwt>
<totfact> 0.31062276E+03</totfact>
</mgrwt>
</event>
<event>
 4    1  0.1399921E-004  0.3791340E+03  0.7818608E-02  0.1051254E+00
         -2   -1    0    0    0  501 -0.00000000000E+00  0.00000000000E+00  0.79089420399E+02  0.79089420441E+02  0.25500000000E-02 0. -1.
          2   -1    0    0  501    0  0.00000000000E+00 -0.00000000000E+00 -0.45436733486E+03  0.45436733486E+03  0.25500000000E-02 0.  1.
    5000001    1    1    2    0    0 -0.75979284306E+02 -0.11374056367E+03 -0.23423900618E+03  0.29951073350E+03  0.12700000000E+03 0.  0.
   -5000001    1    1    2    0    0  0.75979284306E+02  0.11374056367E+03 -0.14103890827E+03  0.23394602180E+03  0.12700000000E+03 0.  0.
<mgrwt>
<rscale>  0 0.37913401E+03</rscale>
<asrwt>0</asrwt>
<pdfrwt beam="1">  1        2 0.64909618E-01 0.37913401E+03</pdfrwt>
<pdfrwt beam="2">  1       -2 0.11298489E-01 0.37913401E+03</pdfrwt>
<totfact> 0.41281487E+03</totfact>
</mgrwt>
</event>
<event>
 4    1  0.1399921E-004  0.3725555E+03  0.7818608E-02  0.1053720E+00
          2   -1    0    0  501    0  0.00000000000E+00  0.00000000000E+00  0.96004299871E+02  0.96004299905E+02  0.25500000000E-02 0.  1.
         -2   -1    0    0    0  501 -0.00000000000E+00 -0.00000000000E+00 -0.36143593914E+03  0.36143593915E+03  0.25500000000E-02 0. -1.
    5000001    1    1    2    0    0  0.11138606356E+03  0.14023046418E+01 -0.36335247490E+02  0.17279488367E+03  0.12700000000E+03 0.  0.
   -5000001    1    1    2    0    0 -0.11138606356E+03 -0.14023046418E+01 -0.22909639178E+03  0.28464535538E+03  0.12700000000E+03 0.  0.
<mgrwt>
<rscale>  0 0.37255552E+03</rscale>
<asrwt>0</asrwt>
<pdfrwt beam="1">  1        2 0.13714900E-01 0.37255552E+03</pdfrwt>
<pdfrwt beam="2">  1       -2 0.51633705E-01 0.37255552E+03</pdfrwt>
<totfact> 0.15735502E+03</totfact>
</mgrwt>
</event>
<event>
 4    1  0.1399921E-004  0.3533558E+03  0.7818608E-02  0.1061246E+00
         -2   -1    0    0    0  501 -0.00000000000E+00  0.00000000000E+00  0.83919141066E+02  0.83919141105E+02  0.25500000000E-02 0. -1.
          2   -1    0    0  501    0  0.00000000000E+00 -0.00000000000E+00 -0.37196614340E+03  0.37196614341E+03  0.25500000000E-02 0.  1.
    5000001    1    1    2    0    0 -0.94322759373E+02  0.65897830314E+02 -0.19946692383E+03  0.26297406845E+03  0.12700000000E+03 0.  0.
   -5000001    1    1    2    0    0  0.94322759373E+02 -0.65897830314E+02 -0.88580078512E+02  0.19291121607E+03  0.12700000000E+03 0.  0.
<mgrwt>
<rscale>  0 0.35335579E+03</rscale>
<asrwt>0</asrwt>
<pdfrwt beam="1">  1        2 0.53138020E-01 0.35335579E+03</pdfrwt>
<pdfrwt beam="2">  1       -2 0.11988449E-01 0.35335579E+03</pdfrwt>
<totfact> 0.46616310E+03</totfact>
</mgrwt>
</event>
<event>
 4    1  0.1399921E-004  0.3848524E+03  0.7818608E-02  0.1049155E+00
          2   -1    0    0  501    0  0.00000000000E+00  0.00000000000E+00  0.19003065163E+04  0.19003065163E+04  0.25500000000E-02 0.  1.
         -2   -1    0    0    0  501 -0.00000000000E+00 -0.00000000000E+00 -0.19485196137E+02  0.19485196304E+02  0.25500000000E-02 0. -1.
    5000001    1    1    2    0    0 -0.10531350774E+03 -0.12586987790E+02  0.14304284085E+04  0.14399665965E+04  0.12700000000E+03 0.  0.
   -5000001    1    1    2    0    0  0.10531350774E+03  0.12586987790E+02  0.45039291167E+03  0.47982511612E+03  0.12700000000E+03 0.  0.
<mgrwt>
<rscale>  0 0.38485242E+03</rscale>
<asrwt>0</asrwt>
<pdfrwt beam="1">  1        2 0.27147242E+00 0.38485242E+03</pdfrwt>
<pdfrwt beam="2">  1       -2 0.27835988E-02 0.38485242E+03</pdfrwt>
<totfact> 0.46813919E+03</totfact>
</mgrwt>
</event>
<event>
 4    1  0.1399921E-004  0.3410560E+03  0.7818608E-02  0.1066347E+00
         -2   -1    0    0    0  501 -0.00000000000E+00  0.00000000000E+00  0.10481690113E+02  0.10481690423E+02  0.25500000000E-02 0. -1.
          2   -1    0    0  501    0  0.00000000000E+00 -0.00000000000E+00 -0.27743423406E+04  0.27743423406E+04  0.25500000000E-02 0.  1.
    5000001    1    1    2    0    0 -0.89163759700E+02 -0.16746482263E+02 -0.82094540019E+03  0.83565002890E+03  0.12700000000E+03 0.  0.
   -5000001    1    1    2    0    0  0.89163759700E+02  0.16746482263E+02 -0.19429152503E+04  0.19491740021E+04  0.12700000000E+03 0.  0.
<mgrwt>
<rscale>  0 0.34105599E+03</rscale>
<asrwt>0</asrwt>
<pdfrwt beam="1">  1        2 0.39633415E+00 0.34105599E+03</pdfrwt>
<pdfrwt beam="2">  1       -2 0.14973861E-02 0.34105599E+03</pdfrwt>
<totfact> 0.42945119E+03</totfact>
</mgrwt>
</event>
<event>
 4    1  0.1399921E-004  0.3789496E+03  0.7818608E-02  0.1051323E+00
         -2   -1    0    0    0  501 -0.00000000000E+00  0.00000000000E+00  0.18700456930E+03  0.18700456932E+03  0.25500000000E-02 0. -1.
          2   -1    0    0  501    0  0.00000000000E+00 -0.00000000000E+00 -0.19197766693E+03  0.19197766695E+03  0.25500000000E-02 0.  1.
    5000001    1    1    2    0    0  0.81651367503E+02  0.59500407458E+02  0.95319912335E+02  0.18820767782E+03  0.12700000000E+03 0.  0.
   -5000001    1    1    2    0    0 -0.81651367503E+02 -0.59500407458E+02 -0.10029300996E+03  0.19077455845E+03  0.12700000000E+03 0.  0.
<mgrwt>
<rscale>  0 0.37894961E+03</rscale>
<asrwt>0</asrwt>
<pdfrwt beam="1">  1        2 0.27425381E-01 0.37894961E+03</pdfrwt>
<pdfrwt beam="2">  1       -2 0.26714939E-01 0.37894961E+03</pdfrwt>
<totfact> 0.24626584E+03</totfact>
</mgrwt>
</event>
<event>
 4    1  0.1399921E-004  0.9844585E+03  0.7818608E-02  0.9325757E-01
         -2   -1    0    0    0  501 -0.00000000000E+00  0.00000000000E+00  0.29422364516E+03  0.29422364517E+03  0.25500000000E-02 0. -1.
          2   -1    0    0  501    0  0.00000000000E+00 -0.00000000000E+00 -0.82348804032E+03  0.82348804032E+03  0.25500000000E-02 0.  1.
    5000001    1    1    2    0    0  0.47284689804E+03 -0.50685780046E+02 -0.26772397417E+03  0.56031987617E+03  0.12700000000E+03 0.  0.
   -5000001    1    1    2    0    0 -0.47284689804E+03  0.50685780046E+02 -0.26154042098E+03  0.55739180932E+03  0.12700000000E+03 0.  0.
<mgrwt>
<rscale>  0 0.98445854E+03</rscale>
<asrwt>0</asrwt>
<pdfrwt beam="1">  1        2 0.11764115E+00 0.98445854E+03</pdfrwt>
<pdfrwt beam="2">  1       -2 0.42031950E-01 0.98445854E+03</pdfrwt>
<totfact> 0.19595477E+02</totfact>
</mgrwt>
</event>
<event>
 4    1  0.1399921E-004  0.7795907E+03  0.7818608E-02  0.9590038E-01
         -2   -1    0    0    0  501 -0.00000000000E+00  0.00000000000E+00  0.54169397313E+02  0.54169397373E+02  0.25500000000E-02 0. -1.
          2   -1    0    0  501    0  0.00000000000E+00 -0.00000000000E+00 -0.28049127524E+04  0.28049127524E+04  0.25500000000E-02 0.  1.
    5000001    1    1    2    0    0 -0.73931427853E+02 -0.60378374914E+02 -0.26807858263E+04  0.26854893503E+04  0.12700000000E+03 0.  0.
   -5000001    1    1    2    0    0  0.73931427853E+02  0.60378374914E+02 -0.69957528752E+02  0.17359279942E+03  0.12700000000E+03 0.  0.
<mgrwt>
<rscale>  0 0.77959075E+03</rscale>
<asrwt>0</asrwt>
<pdfrwt beam="1">  1        2 0.40070173E+00 0.77959075E+03</pdfrwt>
<pdfrwt beam="2">  1       -2 0.77384871E-02 0.77959075E+03</pdfrwt>
<totfact> 0.32595808E+02</totfact>
</mgrwt>
</event>
<event>
 4    1  0.1399921E-004  0.3752482E+03  0.7818608E-02  0.1052704E+00
          2   -1    0    0  501    0  0.00000000000E+00  0.00000000000E+00  0.28949717703E+03  0.28949717704E+03  0.25500000000E-02 0.  1.
         -2   -1    0    0    0  501 -0.00000000000E+00 -0.00000000000E+00 -0.12159984503E+03  0.12159984506E+03  0.25500000000E-02 0. -1.
    5000001    1    1    2    0    0  0.13799887819E+03 -0.17330929779E+01  0.78243693854E+02  0.20321852676E+03  0.12700000000E+03 0.  0.
   -5000001    1    1    2    0    0 -0.13799887819E+03  0.17330929779E+01  0.89653638141E+02  0.20787849534E+03  0.12700000000E+03 0.  0.
<mgrwt>
<rscale>  0 0.37524825E+03</rscale>
<asrwt>0</asrwt>
<pdfrwt beam="1">  1        2 0.41356740E-01 0.37524825E+03</pdfrwt>
<pdfrwt beam="2">  1       -2 0.17371406E-01 0.37524825E+03</pdfrwt>
<totfact> 0.33149191E+03</totfact>
</mgrwt>
</event>
<event>
 4    1  0.1399921E-004  0.4586570E+03  0.7818608E-02  0.1025171E+00
          2   -1    0    0  501    0  0.00000000000E+00  0.00000000000E+00  0.21445924621E+04  0.21445924621E+04  0.25500000000E-02 0.  1.
         -2   -1    0    0    0  501 -0.00000000000E+00 -0.00000000000E+00 -0.24522872264E+02  0.24522872396E+02  0.25500000000E-02 0. -1.
    5000001    1    1    2    0    0 -0.14536971713E+03  0.39892122709E+02  0.16143662003E+04  0.16263551165E+04  0.12700000000E+03 0.  0.
   -5000001    1    1    2    0    0  0.14536971713E+03 -0.39892122709E+02  0.50570338952E+03  0.54276021803E+03  0.12700000000E+03 0.  0.
<mgrwt>
<rscale>  0 0.45865703E+03</rscale>
<asrwt>0</asrwt>
<pdfrwt beam="1">  1        2 0.30637032E+00 0.45865703E+03</pdfrwt>
<pdfrwt beam="2">  1       -2 0.35032679E-02 0.45865703E+03</pdfrwt>
<totfact> 0.24988095E+03</totfact>
</mgrwt>
</event>
<event>
 4    1  0.1399921E-004  0.5549774E+03  0.7818608E-02  0.1000348E+00
          2   -1    0    0  501    0  0.00000000000E+00  0.00000000000E+00  0.22905478491E+03  0.22905478493E+03  0.25500000000E-02 0.  1.
         -2   -1    0    0    0  501 -0.00000000000E+00 -0.00000000000E+00 -0.33616398936E+03  0.33616398937E+03  0.25500000000E-02 0. -1.
    5000001    1    1    2    0    0 -0.16752638439E+03 -0.17721177674E+03 -0.91687052371E+02  0.28983550310E+03  0.12700000000E+03 0.  0.
   -5000001    1    1    2    0    0  0.16752638439E+03  0.17721177674E+03 -0.15422152077E+02  0.27538327120E+03  0.12700000000E+03 0.  0.
<mgrwt>
<rscale>  0 0.55497737E+03</rscale>
<asrwt>0</asrwt>
<pdfrwt beam="1">  1        2 0.32722112E-01 0.55497737E+03</pdfrwt>
<pdfrwt beam="2">  1       -2 0.48023427E-01 0.55497737E+03</pdfrwt>
<totfact> 0.66678494E+02</totfact>
</mgrwt>
</event>
<event>
 4    1  0.1399921E-004  0.3649489E+03  0.7818608E-02  0.1056641E+00
         -2   -1    0    0    0  501 -0.00000000000E+00  0.00000000000E+00  0.84828511570E+02  0.84828511608E+02  0.25500000000E-02 0. -1.
          2   -1    0    0  501    0  0.00000000000E+00 -0.00000000000E+00 -0.39252041353E+03  0.39252041353E+03  0.25500000000E-02 0.  1.
    5000001    1    1    2    0    0  0.89421165501E+02  0.75801298968E+02 -0.77287378687E+02  0.18932596406E+03  0.12700000000E+03 0.  0.
   -5000001    1    1    2    0    0 -0.89421165501E+02 -0.75801298968E+02 -0.23040452327E+03  0.28802296108E+03  0.12700000000E+03 0.  0.
<mgrwt>
<rscale>  0 0.36494889E+03</rscale>
<asrwt>0</asrwt>
<pdfrwt beam="1">  1        2 0.56074344E-01 0.36494889E+03</pdfrwt>
<pdfrwt beam="2">  1       -2 0.12118359E-01 0.36494889E+03</pdfrwt>
<totfact> 0.43229382E+03</totfact>
</mgrwt>
</event>
<event>
 4    1  0.1399921E-004  0.4439944E+03  0.7818608E-02  0.1029528E+00
         -2   -1    0    0    0  501 -0.00000000000E+00  0.00000000000E+00  0.43501532163E+02  0.43501532238E+02  0.25500000000E-02 0. -1.
          2   -1    0    0  501    0  0.00000000000E+00 -0.00000000000E+00 -0.11328970310E+04  0.11328970310E+04  0.25500000000E-02 0.  1.
    5000001    1    1    2    0    0  0.13856133436E+03  0.80824266781E+02 -0.31643447616E+03  0.37681770551E+03  0.12700000000E+03 0.  0.
   -5000001    1    1    2    0    0 -0.13856133436E+03 -0.80824266781E+02 -0.77296102272E+03  0.79958085777E+03  0.12700000000E+03 0.  0.
<mgrwt>
<rscale>  0 0.44399440E+03</rscale>
<asrwt>0</asrwt>
<pdfrwt beam="1">  1        2 0.16184241E+00 0.44399440E+03</pdfrwt>
<pdfrwt beam="2">  1       -2 0.62145053E-02 0.44399440E+03</pdfrwt>
<totfact> 0.34362892E+03</totfact>
</mgrwt>
</event>
<event>
 4    1  0.1399921E-004  0.4574788E+03  0.7818608E-02  0.1025515E+00
          2   -1    0    0  501    0  0.00000000000E+00  0.00000000000E+00  0.98516999318E+03  0.98516999318E+03  0.25500000000E-02 0.  1.
         -2   -1    0    0    0  501 -0.00000000000E+00 -0.00000000000E+00 -0.53109316126E+02  0.53109316187E+02  0.25500000000E-02 0. -1.
    5000001    1    1    2    0    0  0.16930154973E+03  0.33874428539E+02  0.28471735338E+03  0.35637545225E+03  0.12700000000E+03 0.  0.
   -5000001    1    1    2    0    0 -0.16930154973E+03 -0.33874428539E+02  0.64734332367E+03  0.68190385712E+03  0.12700000000E+03 0.  0.
<mgrwt>
<rscale>  0 0.45747876E+03</rscale>
<asrwt>0</asrwt>
<pdfrwt beam="1">  1        2 0.14073855E+00 0.45747876E+03</pdfrwt>
<pdfrwt beam="2">  1       -2 0.75870461E-02 0.45747876E+03</pdfrwt>
<totfact> 0.30682995E+03</totfact>
</mgrwt>
</event>
<event>
 4    1  0.1399921E-004  0.8268791E+03  0.7818608E-02  0.9521905E-01
          2   -1    0    0  501    0  0.00000000000E+00  0.00000000000E+00  0.51252791435E+03  0.51252791436E+03  0.25500000000E-02 0.  1.
         -2   -1    0    0    0  501 -0.00000000000E+00 -0.00000000000E+00 -0.33350817606E+03  0.33350817607E+03  0.25500000000E-02 0. -1.
    5000001    1    1    2    0    0 -0.28851455891E+03 -0.83868920652E+02 -0.17040015057E+03  0.36802154538E+03  0.12700000000E+03 0.  0.
   -5000001    1    1    2    0    0  0.28851455891E+03  0.83868920652E+02  0.34941988886E+03  0.47801454505E+03  0.12700000000E+03 0.  0.
<mgrwt>
<rscale>  0 0.82687907E+03</rscale>
<asrwt>0</asrwt>
<pdfrwt beam="1">  1        2 0.73218272E-01 0.82687907E+03</pdfrwt>
<pdfrwt beam="2">  1       -2 0.47644026E-01 0.82687907E+03</pdfrwt>
<totfact> 0.27382836E+02</totfact>
</mgrwt>
</event>
<event>
 4    1  0.1399921E-004  0.3288652E+03  0.7818608E-02  0.1071640E+00
          2   -1    0    0  501    0  0.00000000000E+00  0.00000000000E+00  0.38111270166E+03  0.38111270167E+03  0.25500000000E-02 0.  1.
         -2   -1    0    0    0  501 -0.00000000000E+00 -0.00000000000E+00 -0.70945101610E+02  0.70945101656E+02  0.25500000000E-02 0. -1.
    5000001    1    1    2    0    0 -0.35580473789E+01  0.10387652080E+03  0.14092555722E+03  0.21631459486E+03  0.12700000000E+03 0.  0.
   -5000001    1    1    2    0    0  0.35580473789E+01 -0.10387652080E+03  0.16924204284E+03  0.23574320846E+03  0.12700000000E+03 0.  0.
<mgrwt>
<rscale>  0 0.32886520E+03</rscale>
<asrwt>0</asrwt>
<pdfrwt beam="1">  1        2 0.54444673E-01 0.32886520E+03</pdfrwt>
<pdfrwt beam="2">  1       -2 0.10135014E-01 0.32886520E+03</pdfrwt>
<totfact> 0.59393975E+03</totfact>
</mgrwt>
</event>
<event>
 4    1  0.1399921E-004  0.7201046E+03  0.7818608E-02  0.9683455E-01
          2   -1    0    0  501    0  0.00000000000E+00  0.00000000000E+00  0.10638223602E+04  0.10638223602E+04  0.25500000000E-02 0.  1.
         -2   -1    0    0    0  501 -0.00000000000E+00 -0.00000000000E+00 -0.12186024329E+03  0.12186024332E+03  0.25500000000E-02 0. -1.
    5000001    1    1    2    0    0 -0.62561225453E+02  0.32446925163E+03  0.36282880619E+03  0.50692005758E+03  0.12700000000E+03 0.  0.
   -5000001    1    1    2    0    0  0.62561225453E+02 -0.32446925163E+03  0.57913331070E+03  0.67876254592E+03  0.12700000000E+03 0.  0.
<mgrwt>
<rscale>  0 0.72010458E+03</rscale>
<asrwt>0</asrwt>
<pdfrwt beam="1">  1        2 0.15197464E+00 0.72010458E+03</pdfrwt>
<pdfrwt beam="2">  1       -2 0.17408604E-01 0.72010458E+03</pdfrwt>
<totfact> 0.70069289E+02</totfact>
</mgrwt>
</event>
<event>
 4    1  0.1399921E-004  0.1817679E+04  0.7818608E-02  0.8696954E-01
         -2   -1    0    0    0  501 -0.00000000000E+00  0.00000000000E+00  0.16991028919E+04  0.16991028919E+04  0.25500000000E-02 0. -1.
          2   -1    0    0  501    0  0.00000000000E+00 -0.00000000000E+00 -0.48613229167E+03  0.48613229168E+03  0.25500000000E-02 0.  1.
    5000001    1    1    2    0    0 -0.15486059271E+03  0.46987835510E+03  0.15102196985E+04  0.15942584513E+04  0.12700000000E+03 0.  0.
   -5000001    1    1    2    0    0  0.15486059271E+03 -0.46987835510E+03 -0.29724909823E+03  0.59097673234E+03  0.12700000000E+03 0.  0.
<mgrwt>
<rscale>  0 0.18176785E+04</rscale>
<asrwt>0</asrwt>
<pdfrwt beam="1">  1        2 0.69447471E-01 0.18176785E+04</pdfrwt>
<pdfrwt beam="2">  1       -2 0.24272898E+00 0.18176785E+04</pdfrwt>
<totfact> 0.46701071E+00</totfact>
</mgrwt>
</event>
<event>
 4    1  0.1399921E-004  0.5476273E+03  0.7818608E-02  0.1002045E+00
          2   -1    0    0  501    0  0.00000000000E+00  0.00000000000E+00  0.19809531612E+04  0.19809531612E+04  0.25500000000E-02 0.  1.
         -2   -1    0    0    0  501 -0.00000000000E+00 -0.00000000000E+00 -0.37847396817E+02  0.37847396903E+02  0.25500000000E-02 0. -1.
    5000001    1    1    2    0    0 -0.82355529664E+02 -0.19993538792E+03  0.56623905031E+03  0.61928366255E+03  0.12700000000E+03 0.  0.
   -5000001    1    1    2    0    0  0.82355529664E+02  0.19993538792E+03  0.13768667140E+04  0.13995168955E+04  0.12700000000E+03 0.  0.
<mgrwt>
<rscale>  0 0.54762732E+03</rscale>
<asrwt>0</asrwt>
<pdfrwt beam="1">  1        2 0.28299324E+00 0.54762732E+03</pdfrwt>
<pdfrwt beam="2">  1       -2 0.54067723E-02 0.54762732E+03</pdfrwt>
<totfact> 0.15426791E+03</totfact>
</mgrwt>
</event>
<event>
 4    1  0.1399921E-004  0.3958466E+03  0.7818608E-02  0.1045227E+00
          2   -1    0    0  501    0  0.00000000000E+00  0.00000000000E+00  0.10580224458E+04  0.10580224458E+04  0.25500000000E-02 0.  1.
         -2   -1    0    0    0  501 -0.00000000000E+00 -0.00000000000E+00 -0.37025335985E+02  0.37025336073E+02  0.25500000000E-02 0. -1.
    5000001    1    1    2    0    0  0.71795843249E+02 -0.11136709098E+03  0.71542029486E+03  0.73858816018E+03  0.12700000000E+03 0.  0.
   -5000001    1    1    2    0    0 -0.71795843249E+02  0.11136709098E+03  0.30557681494E+03  0.35645962168E+03  0.12700000000E+03 0.  0.
<mgrwt>
<rscale>  0 0.39584662E+03</rscale>
<asrwt>0</asrwt>
<pdfrwt beam="1">  1        2 0.15114605E+00 0.39584662E+03</pdfrwt>
<pdfrwt beam="2">  1       -2 0.52893343E-02 0.39584662E+03</pdfrwt>
<totfact> 0.48653884E+03</totfact>
</mgrwt>
</event>
<event>
 4    1  0.1399921E-004  0.5747288E+03  0.7818608E-02  0.9959269E-01
         -2   -1    0    0    0  501 -0.00000000000E+00  0.00000000000E+00  0.75189363392E+02  0.75189363435E+02  0.25500000000E-02 0.  1.
          2   -1    0    0  501    0  0.00000000000E+00 -0.00000000000E+00 -0.10982709488E+04  0.10982709488E+04  0.25500000000E-02 0. -1.
    5000001    1    1    2    0    0  0.16015293554E+03 -0.19824418539E+03 -0.59060671948E+03  0.65566379868E+03  0.12700000000E+03 0.  0.
   -5000001    1    1    2    0    0 -0.16015293554E+03  0.19824418539E+03 -0.43247486595E+03  0.51779651358E+03  0.12700000000E+03 0.  0.
<mgrwt>
<rscale>  0 0.57472878E+03</rscale>
<asrwt>0</asrwt>
<pdfrwt beam="1">  1        2 0.15689584E+00 0.57472878E+03</pdfrwt>
<pdfrwt beam="2">  1       -2 0.10741338E-01 0.57472878E+03</pdfrwt>
<totfact> 0.15046763E+03</totfact>
</mgrwt>
</event>
<event>
 4    1  0.1399921E-004  0.4220612E+03  0.7818608E-02  0.1036398E+00
          2   -1    0    0  501    0  0.00000000000E+00  0.00000000000E+00  0.11379515210E+03  0.11379515213E+03  0.25500000000E-02 0.  1.
         -2   -1    0    0    0  501 -0.00000000000E+00 -0.00000000000E+00 -0.39135156249E+03  0.39135156250E+03  0.25500000000E-02 0. -1.
    5000001    1    1    2    0    0  0.74456333823E+01  0.71942014322E+02 -0.32097508389E+03  0.35268271203E+03  0.12700000000E+03 0.  0.
   -5000001    1    1    2    0    0 -0.74456333823E+01 -0.71942014322E+02  0.43418673502E+02  0.15246400260E+03  0.12700000000E+03 0.  0.
<mgrwt>
<rscale>  0 0.42206118E+03</rscale>
<asrwt>0</asrwt>
<pdfrwt beam="1">  1        2 0.16256451E-01 0.42206118E+03</pdfrwt>
<pdfrwt beam="2">  1       -2 0.55907365E-01 0.42206118E+03</pdfrwt>
<totfact> 0.10926858E+03</totfact>
</mgrwt>
</event>
<event>
 4    1  0.1399921E-004  0.4476553E+03  0.7818608E-02  0.1028424E+00
         -2   -1    0    0    0  501 -0.00000000000E+00  0.00000000000E+00  0.36888698415E+02  0.36888698503E+02  0.25500000000E-02 0. -1.
          2   -1    0    0  501    0  0.00000000000E+00 -0.00000000000E+00 -0.13581072144E+04  0.13581072144E+04  0.25500000000E-02 0.  1.
    5000001    1    1    2    0    0  0.11749751550E+03  0.73365188538E+02 -0.10394801995E+04  0.10563314831E+04  0.12700000000E+03 0.  0.
   -5000001    1    1    2    0    0 -0.11749751550E+03 -0.73365188538E+02 -0.28173831648E+03  0.33866442980E+03  0.12700000000E+03 0.  0.
<mgrwt>
<rscale>  0 0.44765526E+03</rscale>
<asrwt>0</asrwt>
<pdfrwt beam="1">  1        2 0.19401529E+00 0.44765526E+03</pdfrwt>
<pdfrwt beam="2">  1       -2 0.52698149E-02 0.44765526E+03</pdfrwt>
<totfact> 0.33417181E+03</totfact>
</mgrwt>
</event>
<event>
 4    1  0.1399921E-004  0.2724475E+03  0.7818608E-02  0.1099887E+00
          2   -1    0    0  501    0  0.00000000000E+00  0.00000000000E+00  0.10417956428E+04  0.10417956428E+04  0.25500000000E-02 0.  1.
         -2   -1    0    0    0  501 -0.00000000000E+00 -0.00000000000E+00 -0.17812422592E+02  0.17812422774E+02  0.25500000000E-02 0. -1.
    5000001    1    1    2    0    0  0.45290371532E+02  0.17355018494E+02  0.54578307197E+03  0.56245939949E+03  0.12700000000E+03 0.  0.
   -5000001    1    1    2    0    0 -0.45290371532E+02 -0.17355018494E+02  0.47820014821E+03  0.49714866606E+03  0.12700000000E+03 0.  0.
<mgrwt>
<rscale>  0 0.27244746E+03</rscale>
<asrwt>0</asrwt>
<pdfrwt beam="1">  1        2 0.14882794E+00 0.27244746E+03</pdfrwt>
<pdfrwt beam="2">  1       -2 0.25446319E-02 0.27244746E+03</pdfrwt>
<totfact> 0.14847524E+04</totfact>
</mgrwt>
</event>
<event>
 4    1  0.1399921E-004  0.4581491E+03  0.7818608E-02  0.1025319E+00
         -2   -1    0    0    0  501 -0.00000000000E+00  0.00000000000E+00  0.20471814209E+02  0.20471814368E+02  0.25500000000E-02 0. -1.
          2   -1    0    0  501    0  0.00000000000E+00 -0.00000000000E+00 -0.25632881280E+04  0.25632881280E+04  0.25500000000E-02 0.  1.
    5000001    1    1    2    0    0 -0.12203578100E+03 -0.11846163369E+03 -0.78561087355E+03  0.81378088890E+03  0.12700000000E+03 0.  0.
   -5000001    1    1    2    0    0  0.12203578100E+03  0.11846163369E+03 -0.17572054403E+04  0.17699790535E+04  0.12700000000E+03 0.  0.
<mgrwt>
<rscale>  0 0.45814914E+03</rscale>
<asrwt>0</asrwt>
<pdfrwt beam="1">  1        2 0.36618381E+00 0.45814914E+03</pdfrwt>
<pdfrwt beam="2">  1       -2 0.29245465E-02 0.45814914E+03</pdfrwt>
<totfact> 0.20211776E+03</totfact>
</mgrwt>
</event>
<event>
 4    1  0.1399921E-004  0.3790947E+03  0.7818608E-02  0.1051269E+00
          2   -1    0    0  501    0  0.00000000000E+00  0.00000000000E+00  0.71096766989E+02  0.71096767035E+02  0.25500000000E-02 0.  1.
         -2   -1    0    0    0  501 -0.00000000000E+00 -0.00000000000E+00 -0.50534213298E+03  0.50534213298E+03  0.25500000000E-02 0. -1.
    5000001    1    1    2    0    0  0.11492818624E+02 -0.52997840075E+02 -0.19692768926E+02  0.13949072041E+03  0.12700000000E+03 0.  0.
   -5000001    1    1    2    0    0 -0.11492818624E+02  0.52997840075E+02 -0.41455259706E+03  0.43694817961E+03  0.12700000000E+03 0.  0.
<mgrwt>
<rscale>  0 0.37909467E+03</rscale>
<asrwt>0</asrwt>
<pdfrwt beam="1">  1        2 0.10156681E-01 0.37909467E+03</pdfrwt>
<pdfrwt beam="2">  1       -2 0.72191731E-01 0.37909467E+03</pdfrwt>
<totfact> 0.11294940E+03</totfact>
</mgrwt>
</event>
<event>
 4    1  0.1399921E-004  0.3213703E+03  0.7818608E-02  0.1075020E+00
         -2   -1    0    0    0  501 -0.00000000000E+00  0.00000000000E+00  0.81019901009E+02  0.81019901049E+02  0.25500000000E-02 0. -1.
          2   -1    0    0  501    0  0.00000000000E+00 -0.00000000000E+00 -0.31868363760E+03  0.31868363761E+03  0.25500000000E-02 0.  1.
    5000001    1    1    2    0    0  0.90629030772E+02  0.35362271016E+02 -0.10010921732E+03  0.18871928047E+03  0.12700000000E+03 0.  0.
   -5000001    1    1    2    0    0 -0.90629030772E+02 -0.35362271016E+02 -0.13755451927E+03  0.21098425819E+03  0.12700000000E+03 0.  0.
<mgrwt>
<rscale>  0 0.32137030E+03</rscale>
<asrwt>0</asrwt>
<pdfrwt beam="1">  1        2 0.45526233E-01 0.32137030E+03</pdfrwt>
<pdfrwt beam="2">  1       -2 0.11574272E-01 0.32137030E+03</pdfrwt>
<totfact> 0.58200173E+03</totfact>
</mgrwt>
</event>
<event>
 4    1  0.1399921E-004  0.5198732E+03  0.7818608E-02  0.1008718E+00
          2   -1    0    0  501    0  0.00000000000E+00  0.00000000000E+00  0.26490903277E+04  0.26490903277E+04  0.25500000000E-02 0.  1.
         -2   -1    0    0    0  501 -0.00000000000E+00 -0.00000000000E+00 -0.25505748844E+02  0.25505748971E+02  0.25500000000E-02 0. -1.
    5000001    1    1    2    0    0 -0.15470363583E+03  0.15007484815E+02  0.46206468136E+03  0.50377694399E+03  0.12700000000E+03 0.  0.
   -5000001    1    1    2    0    0  0.15470363583E+03 -0.15007484815E+02  0.21615198975E+04  0.21708191327E+04  0.12700000000E+03 0.  0.
<mgrwt>
<rscale>  0 0.51987319E+03</rscale>
<asrwt>0</asrwt>
<pdfrwt beam="1">  1        2 0.37844155E+00 0.51987319E+03</pdfrwt>
<pdfrwt beam="2">  1       -2 0.36436777E-02 0.51987319E+03</pdfrwt>
<totfact> 0.13022578E+03</totfact>
</mgrwt>
</event>
<event>
 4    1  0.1399921E-004  0.5157008E+03  0.7818608E-02  0.1009760E+00
          2   -1    0    0  501    0  0.00000000000E+00  0.00000000000E+00  0.12745736245E+04  0.12745736245E+04  0.25500000000E-02 0.  1.
         -2   -1    0    0    0  501 -0.00000000000E+00 -0.00000000000E+00 -0.52163978253E+02  0.52163978315E+02  0.25500000000E-02 0. -1.
    5000001    1    1    2    0    0 -0.19681796545E+03 -0.88635360773E+02  0.76904911765E+03  0.80880101635E+03  0.12700000000E+03 0.  0.
   -5000001    1    1    2    0    0  0.19681796545E+03  0.88635360773E+02  0.45336052859E+03  0.51793658646E+03  0.12700000000E+03 0.  0.
<mgrwt>
<rscale>  0 0.51570081E+03</rscale>
<asrwt>0</asrwt>
<pdfrwt beam="1">  1        2 0.18208196E+00 0.51570081E+03</pdfrwt>
<pdfrwt beam="2">  1       -2 0.74519964E-02 0.51570081E+03</pdfrwt>
<totfact> 0.21554794E+03</totfact>
</mgrwt>
</event>
<event>
 4    1  0.1399921E-004  0.3806800E+03  0.7818608E-02  0.1050683E+00
          2   -1    0    0  501    0  0.00000000000E+00  0.00000000000E+00  0.15373264461E+03  0.15373264464E+03  0.25500000000E-02 0.  1.
         -2   -1    0    0    0  501 -0.00000000000E+00 -0.00000000000E+00 -0.23566442767E+03  0.23566442769E+03  0.25500000000E-02 0. -1.
    5000001    1    1    2    0    0  0.11539788604E+03  0.52747281266E+02  0.23738962864E+02  0.18108419628E+03  0.12700000000E+03 0.  0.
   -5000001    1    1    2    0    0 -0.11539788604E+03 -0.52747281266E+02 -0.10567074592E+03  0.20831287605E+03  0.12700000000E+03 0.  0.
<mgrwt>
<rscale>  0 0.38068000E+03</rscale>
<asrwt>0</asrwt>
<pdfrwt beam="1">  1        2 0.21961806E-01 0.38068000E+03</pdfrwt>
<pdfrwt beam="2">  1       -2 0.33666347E-01 0.38068000E+03</pdfrwt>
<totfact> 0.20739043E+03</totfact>
</mgrwt>
</event>
<event>
 4    1  0.1399921E-004  0.3240065E+03  0.7818608E-02  0.1073820E+00
          2   -1    0    0  501    0  0.00000000000E+00  0.00000000000E+00  0.60965129516E+03  0.60965129516E+03  0.25500000000E-02 0.  1.
         -2   -1    0    0    0  501 -0.00000000000E+00 -0.00000000000E+00 -0.43049286395E+02  0.43049286470E+02  0.25500000000E-02 0. -1.
    5000001    1    1    2    0    0 -0.51001510547E+02  0.68854835337E+02  0.38939883921E+03  0.41845262384E+03  0.12700000000E+03 0.  0.
   -5000001    1    1    2    0    0  0.51001510547E+02 -0.68854835337E+02  0.17720316956E+03  0.23424795779E+03  0.12700000000E+03 0.  0.
<mgrwt>
<rscale>  0 0.32400650E+03</rscale>
<asrwt>0</asrwt>
<pdfrwt beam="1">  1        2 0.87093047E-01 0.32400650E+03</pdfrwt>
<pdfrwt beam="2">  1       -2 0.61498978E-02 0.32400650E+03</pdfrwt>
<totfact> 0.77111253E+03</totfact>
</mgrwt>
</event>
<event>
 4    1  0.1399921E-004  0.4042879E+03  0.7818608E-02  0.1042305E+00
         -2   -1    0    0    0  501 -0.00000000000E+00  0.00000000000E+00  0.76941209056E+02  0.76941209098E+02  0.25500000000E-02 0. -1.
          2   -1    0    0  501    0  0.00000000000E+00 -0.00000000000E+00 -0.53108302245E+03  0.53108302245E+03  0.25500000000E-02 0.  1.
    5000001    1    1    2    0    0  0.11535922685E+03  0.60834032451E+02 -0.35925198176E+03  0.40274001182E+03  0.12700000000E+03 0.  0.
   -5000001    1    1    2    0    0 -0.11535922685E+03 -0.60834032451E+02 -0.94889831637E+02  0.20528421973E+03  0.12700000000E+03 0.  0.
<mgrwt>
<rscale>  0 0.40428787E+03</rscale>
<asrwt>0</asrwt>
<pdfrwt beam="1">  1        2 0.75869002E-01 0.40428787E+03</pdfrwt>
<pdfrwt beam="2">  1       -2 0.10991602E-01 0.40428787E+03</pdfrwt>
<totfact> 0.36295745E+03</totfact>
</mgrwt>
</event>
<event>
 4    1  0.1399921E-004  0.3143733E+03  0.7818608E-02  0.1078268E+00
          2   -1    0    0  501    0  0.00000000000E+00  0.00000000000E+00  0.11610660146E+04  0.11610660146E+04  0.25500000000E-02 0.  1.
         -2   -1    0    0    0  501 -0.00000000000E+00 -0.00000000000E+00 -0.21280135679E+02  0.21280135831E+02  0.25500000000E-02 0. -1.
    5000001    1    1    2    0    0  0.17224505630E+02  0.58245104635E+02  0.83287718639E+03  0.84469082120E+03  0.12700000000E+03 0.  0.
   -5000001    1    1    2    0    0 -0.17224505630E+02 -0.58245104635E+02  0.30690869250E+03  0.33765532921E+03  0.12700000000E+03 0.  0.
<mgrwt>
<rscale>  0 0.31437330E+03</rscale>
<asrwt>0</asrwt>
<pdfrwt beam="1">  1        2 0.16586660E+00 0.31437330E+03</pdfrwt>
<pdfrwt beam="2">  1       -2 0.30400190E-02 0.31437330E+03</pdfrwt>
<totfact> 0.98025957E+03</totfact>
</mgrwt>
</event>
<event>
 4    1  0.1399921E-004  0.3017835E+03  0.7818608E-02  0.1084352E+00
          2   -1    0    0  501    0  0.00000000000E+00  0.00000000000E+00  0.11379368712E+04  0.11379368712E+04  0.25500000000E-02 0.  1.
         -2   -1    0    0    0  501 -0.00000000000E+00 -0.00000000000E+00 -0.20008425744E+02  0.20008425907E+02  0.25500000000E-02 0. -1.
    5000001    1    1    2    0    0 -0.80808589649E+02  0.71912584961E+01  0.58808078649E+03  0.60708298758E+03  0.12700000000E+03 0.  0.
   -5000001    1    1    2    0    0  0.80808589649E+02 -0.71912584961E+01  0.52984765900E+03  0.55086230957E+03  0.12700000000E+03 0.  0.
<mgrwt>
<rscale>  0 0.30178353E+03</rscale>
<asrwt>0</asrwt>
<pdfrwt beam="1">  1        2 0.16256240E+00 0.30178353E+03</pdfrwt>
<pdfrwt beam="2">  1       -2 0.28583467E-02 0.30178353E+03</pdfrwt>
<totfact> 0.11056997E+04</totfact>
</mgrwt>
</event>
<event>
 4    1  0.1399921E-004  0.8345165E+03  0.7818608E-02  0.9511357E-01
         -2   -1    0    0    0  501 -0.00000000000E+00  0.00000000000E+00  0.71000473360E+03  0.71000473360E+03  0.25500000000E-02 0. -1.
          2   -1    0    0  501    0  0.00000000000E+00 -0.00000000000E+00 -0.24521589561E+03  0.24521589562E+03  0.25500000000E-02 0.  1.
    5000001    1    1    2    0    0 -0.65982800641E+02  0.38955289073E+03  0.18289273315E+03  0.45352390950E+03  0.12700000000E+03 0.  0.
   -5000001    1    1    2    0    0  0.65982800641E+02 -0.38955289073E+03  0.28189610484E+03  0.50169671972E+03  0.12700000000E+03 0.  0.
<mgrwt>
<rscale>  0 0.83451650E+03</rscale>
<asrwt>0</asrwt>
<pdfrwt beam="1">  1        2 0.35030843E-01 0.83451650E+03</pdfrwt>
<pdfrwt beam="2">  1       -2 0.10142925E+00 0.83451650E+03</pdfrwt>
<totfact> 0.12004685E+02</totfact>
</mgrwt>
</event>
<event>
 4    1  0.1399921E-004  0.4169043E+03  0.7818608E-02  0.1038079E+00
          2   -1    0    0  501    0  0.00000000000E+00  0.00000000000E+00  0.38194852670E+03  0.38194852671E+03  0.25500000000E-02 0.  1.
         -2   -1    0    0    0  501 -0.00000000000E+00 -0.00000000000E+00 -0.11376477929E+03  0.11376477932E+03  0.25500000000E-02 0. -1.
    5000001    1    1    2    0    0  0.59634591881E+02 -0.15309392260E+03  0.11251635707E+03  0.23618417452E+03  0.12700000000E+03 0.  0.
   -5000001    1    1    2    0    0 -0.59634591881E+02  0.15309392260E+03  0.15566739034E+03  0.25952913151E+03  0.12700000000E+03 0.  0.
<mgrwt>
<rscale>  0 0.41690426E+03</rscale>
<asrwt>0</asrwt>
<pdfrwt beam="1">  1        2 0.54564075E-01 0.41690426E+03</pdfrwt>
<pdfrwt beam="2">  1       -2 0.16252111E-01 0.41690426E+03</pdfrwt>
<totfact> 0.27471433E+03</totfact>
</mgrwt>
</event>
<event>
 4    1  0.1399921E-004  0.4277931E+03  0.7818608E-02  0.1034559E+00
          2   -1    0    0  501    0  0.00000000000E+00  0.00000000000E+00  0.90430407236E+03  0.90430407236E+03  0.25500000000E-02 0.  1.
         -2   -1    0    0    0  501 -0.00000000000E+00 -0.00000000000E+00 -0.50593310670E+02  0.50593310734E+02  0.25500000000E-02 0. -1.
    5000001    1    1    2    0    0  0.96195852153E+02 -0.14125689648E+03  0.38135108571E+03  0.43676630290E+03  0.12700000000E+03 0.  0.
   -5000001    1    1    2    0    0 -0.96195852153E+02  0.14125689648E+03  0.47235967598E+03  0.51813108019E+03  0.12700000000E+03 0.  0.
<mgrwt>
<rscale>  0 0.42779311E+03</rscale>
<asrwt>0</asrwt>
<pdfrwt beam="1">  1        2 0.12918629E+00 0.42779311E+03</pdfrwt>
<pdfrwt beam="2">  1       -2 0.72276164E-02 0.42779311E+03</pdfrwt>
<totfact> 0.37161668E+03</totfact>
</mgrwt>
</event>
<event>
 4    1  0.1399921E-004  0.3225514E+03  0.7818608E-02  0.1074481E+00
          2   -1    0    0  501    0  0.00000000000E+00  0.00000000000E+00  0.16581901991E+04  0.16581901991E+04  0.25500000000E-02 0.  1.
         -2   -1    0    0    0  501 -0.00000000000E+00 -0.00000000000E+00 -0.15685690906E+02  0.15685691113E+02  0.25500000000E-02 0. -1.
    5000001    1    1    2    0    0 -0.84647629643E+02 -0.42576054980E+02  0.66531557557E+03  0.68392379456E+03  0.12700000000E+03 0.  0.
   -5000001    1    1    2    0    0  0.84647629643E+02  0.42576054980E+02  0.97718893266E+03  0.98995209570E+03  0.12700000000E+03 0.  0.
<mgrwt>
<rscale>  0 0.32255145E+03</rscale>
<asrwt>0</asrwt>
<pdfrwt beam="1">  1        2 0.23688423E+00 0.32255145E+03</pdfrwt>
<pdfrwt beam="2">  1       -2 0.22408138E-02 0.32255145E+03</pdfrwt>
<totfact> 0.85191790E+03</totfact>
</mgrwt>
</event>
<event>
 4    1  0.1399921E-004  0.5254787E+03  0.7818608E-02  0.1007335E+00
         -2   -1    0    0    0  501 -0.00000000000E+00  0.00000000000E+00  0.34006746638E+02  0.34006746734E+02  0.25500000000E-02 0. -1.
          2   -1    0    0  501    0  0.00000000000E+00 -0.00000000000E+00 -0.20299491203E+04  0.20299491203E+04  0.25500000000E-02 0.  1.
    5000001    1    1    2    0    0 -0.11417948738E+03  0.11413468612E+03 -0.16414448128E+04  0.16542471869E+04  0.12700000000E+03 0.  0.
   -5000001    1    1    2    0    0  0.11417948738E+03 -0.11413468612E+03 -0.35449756083E+03  0.40970868009E+03  0.12700000000E+03 0.  0.
<mgrwt>
<rscale>  0 0.52547870E+03</rscale>
<asrwt>0</asrwt>
<pdfrwt beam="1">  1        2 0.28999266E+00 0.52547870E+03</pdfrwt>
<pdfrwt beam="2">  1       -2 0.48581079E-02 0.52547870E+03</pdfrwt>
<totfact> 0.17227637E+03</totfact>
</mgrwt>
</event>
<event>
 4    1  0.1399921E-004  0.6426274E+03  0.7818608E-02  0.9820713E-01
          2   -1    0    0  501    0  0.00000000000E+00  0.00000000000E+00  0.20733462412E+03  0.20733462413E+03  0.25500000000E-02 0.  1.
         -2   -1    0    0    0  501 -0.00000000000E+00 -0.00000000000E+00 -0.49795105890E+03  0.49795105891E+03  0.25500000000E-02 0. -1.
    5000001    1    1    2    0    0  0.18203013535E+03 -0.13013519507E+03  0.65924404988E+02  0.26560340048E+03  0.12700000000E+03 0.  0.
   -5000001    1    1    2    0    0 -0.18203013535E+03  0.13013519507E+03 -0.35654083977E+03  0.43968228256E+03  0.12700000000E+03 0.  0.
<mgrwt>
<rscale>  0 0.64262741E+03</rscale>
<asrwt>0</asrwt>
<pdfrwt beam="1">  1        2 0.29619232E-01 0.64262741E+03</pdfrwt>
<pdfrwt beam="2">  1       -2 0.71135865E-01 0.64262741E+03</pdfrwt>
<totfact> 0.32716423E+02</totfact>
</mgrwt>
</event>
<event>
 4    1  0.1399921E-004  0.4468933E+03  0.7818608E-02  0.1028653E+00
         -2   -1    0    0    0  501 -0.00000000000E+00  0.00000000000E+00  0.14566163404E+02  0.14566163627E+02  0.25500000000E-02 0. -1.
          2   -1    0    0  501    0  0.00000000000E+00 -0.00000000000E+00 -0.34276981517E+04  0.34276981517E+04  0.25500000000E-02 0.  1.
    5000001    1    1    2    0    0 -0.95673560435E+02  0.15279475170E+03 -0.14288700759E+04  0.14457864158E+04  0.12700000000E+03 0.  0.
   -5000001    1    1    2    0    0  0.95673560435E+02 -0.15279475170E+03 -0.19842619123E+04  0.19964778995E+04  0.12700000000E+03 0.  0.
<mgrwt>
<rscale>  0 0.44689333E+03</rscale>
<asrwt>0</asrwt>
<pdfrwt beam="1">  1        2 0.48967065E+00 0.44689333E+03</pdfrwt>
<pdfrwt beam="2">  1       -2 0.20808827E-02 0.44689333E+03</pdfrwt>
<totfact> 0.11485122E+03</totfact>
</mgrwt>
</event>
<event>
 4    1  0.1399921E-004  0.3129841E+03  0.7818608E-02  0.1078924E+00
         -2   -1    0    0    0  501 -0.00000000000E+00  0.00000000000E+00  0.28058328648E+02  0.28058328764E+02  0.25500000000E-02 0. -1.
          2   -1    0    0  501    0  0.00000000000E+00 -0.00000000000E+00 -0.87281606631E+03  0.87281606632E+03  0.25500000000E-02 0.  1.
    5000001    1    1    2    0    0  0.65368438608E+02  0.13810694158E+02 -0.60206176644E+03  0.61892740983E+03  0.12700000000E+03 0.  0.
   -5000001    1    1    2    0    0 -0.65368438608E+02 -0.13810694158E+02 -0.24269597123E+03  0.28194698525E+03  0.12700000000E+03 0.  0.
<mgrwt>
<rscale>  0 0.31298409E+03</rscale>
<asrwt>0</asrwt>
<pdfrwt beam="1">  1        2 0.12468799E+00 0.31298409E+03</pdfrwt>
<pdfrwt beam="2">  1       -2 0.40083332E-02 0.31298409E+03</pdfrwt>
<totfact> 0.95792458E+03</totfact>
</mgrwt>
</event>
<event>
 4    1  0.1399921E-004  0.3809492E+03  0.7818608E-02  0.1050583E+00
         -2   -1    0    0    0  501 -0.00000000000E+00  0.00000000000E+00  0.32768069191E+02  0.32768069290E+02  0.25500000000E-02 0. -1.
          2   -1    0    0  501    0  0.00000000000E+00 -0.00000000000E+00 -0.11071928287E+04  0.11071928287E+04  0.25500000000E-02 0.  1.
    5000001    1    1    2    0    0  0.12611745786E+03 -0.63866813712E+02 -0.49854312537E+03  0.53353428280E+03  0.12700000000E+03 0.  0.
   -5000001    1    1    2    0    0 -0.12611745786E+03  0.63866813712E+02 -0.57588163410E+03  0.60642661515E+03  0.12700000000E+03 0.  0.
<mgrwt>
<rscale>  0 0.38094919E+03</rscale>
<asrwt>0</asrwt>
<pdfrwt beam="1">  1        2 0.15817038E+00 0.38094919E+03</pdfrwt>
<pdfrwt beam="2">  1       -2 0.46811534E-02 0.38094919E+03</pdfrwt>
<totfact> 0.54947065E+03</totfact>
</mgrwt>
</event>
<event>
 4    1  0.1399921E-004  0.4816424E+03  0.7818608E-02  0.1018685E+00
         -2   -1    0    0    0  501 -0.00000000000E+00  0.00000000000E+00  0.10142372752E+03  0.10142372755E+03  0.25500000000E-02 0.  1.
          2   -1    0    0  501    0  0.00000000000E+00 -0.00000000000E+00 -0.57180751841E+03  0.57180751842E+03  0.25500000000E-02 0. -1.
    5000001    1    1    2    0    0  0.12495070495E+03  0.14113252068E+03 -0.12394051168E+03  0.25888475717E+03  0.12700000000E+03 0.  0.
   -5000001    1    1    2    0    0 -0.12495070495E+03 -0.14113252068E+03 -0.34644327922E+03  0.41434648879E+03  0.12700000000E+03 0.  0.
<mgrwt>
<rscale>  0 0.48164240E+03</rscale>
<asrwt>0</asrwt>
<pdfrwt beam="1">  1        2 0.81686787E-01 0.48164240E+03</pdfrwt>
<pdfrwt beam="2">  1       -2 0.14489104E-01 0.48164240E+03</pdfrwt>
<totfact> 0.21227503E+03</totfact>
</mgrwt>
</event>
<event>
 4    1  0.1399921E-004  0.8684314E+03  0.7818608E-02  0.9465928E-01
          2   -1    0    0  501    0  0.00000000000E+00  0.00000000000E+00  0.22422356519E+03  0.22422356520E+03  0.25500000000E-02 0.  1.
         -2   -1    0    0    0  501 -0.00000000000E+00 -0.00000000000E+00 -0.84087175589E+03  0.84087175590E+03  0.25500000000E-02 0. -1.
    5000001    1    1    2    0    0  0.10080336205E+03  0.33238057961E+03 -0.58739696619E+03  0.69411984800E+03  0.12700000000E+03 0.  0.
   -5000001    1    1    2    0    0 -0.10080336205E+03 -0.33238057961E+03 -0.29251224515E+02  0.37097547309E+03  0.12700000000E+03 0.  0.
<mgrwt>
<rscale>  0 0.86843137E+03</rscale>
<asrwt>0</asrwt>
<pdfrwt beam="1">  1        2 0.32031938E-01 0.86843137E+03</pdfrwt>
<pdfrwt beam="2">  1       -2 0.12012454E+00 0.86843137E+03</pdfrwt>
<totfact> 0.87930688E+01</totfact>
</mgrwt>
</event>
<event>
 4    1  0.1399921E-004  0.4664098E+03  0.7818608E-02  0.1022938E+00
          2   -1    0    0  501    0  0.00000000000E+00  0.00000000000E+00  0.49758135982E+03  0.49758135983E+03  0.25500000000E-02 0.  1.
         -2   -1    0    0    0  501 -0.00000000000E+00 -0.00000000000E+00 -0.10929773783E+03  0.10929773786E+03  0.25500000000E-02 0. -1.
    5000001    1    1    2    0    0 -0.14819751514E+03 -0.45103535477E+02  0.38769266690E+02  0.20403158688E+03  0.12700000000E+03 0.  0.
   -5000001    1    1    2    0    0  0.14819751514E+03  0.45103535477E+02  0.34951435530E+03  0.40284751081E+03  0.12700000000E+03 0.  0.
<mgrwt>
<rscale>  0 0.46640976E+03</rscale>
<asrwt>0</asrwt>
<pdfrwt beam="1">  1        2 0.71083052E-01 0.46640976E+03</pdfrwt>
<pdfrwt beam="2">  1       -2 0.15613962E-01 0.46640976E+03</pdfrwt>
<totfact> 0.21943773E+03</totfact>
</mgrwt>
</event>
<event>
 4    1  0.1399921E-004  0.8270371E+03  0.7818608E-02  0.9521686E-01
          2   -1    0    0  501    0  0.00000000000E+00  0.00000000000E+00  0.21281942463E+04  0.21281942463E+04  0.25500000000E-02 0.  1.
         -2   -1    0    0    0  501 -0.00000000000E+00 -0.00000000000E+00 -0.80348680632E+02  0.80348680673E+02  0.25500000000E-02 0. -1.
    5000001    1    1    2    0    0  0.37936832949E+03  0.72177776405E+02  0.82162771415E+03  0.91669573005E+03  0.12700000000E+03 0.  0.
   -5000001    1    1    2    0    0 -0.37936832949E+03 -0.72177776405E+02  0.12262178515E+04  0.12918471969E+04  0.12700000000E+03 0.  0.
<mgrwt>
<rscale>  0 0.82703712E+03</rscale>
<asrwt>0</asrwt>
<pdfrwt beam="1">  1        2 0.30402772E+00 0.82703712E+03</pdfrwt>
<pdfrwt beam="2">  1       -2 0.11478384E-01 0.82703712E+03</pdfrwt>
<totfact> 0.38384320E+02</totfact>
</mgrwt>
</event>
<event>
 4    1  0.1399921E-004  0.4713352E+03  0.7818608E-02  0.1021544E+00
         -2   -1    0    0    0  501 -0.00000000000E+00  0.00000000000E+00  0.92700528568E+02  0.92700528604E+02  0.25500000000E-02 0. -1.
          2   -1    0    0  501    0  0.00000000000E+00 -0.00000000000E+00 -0.59912506644E+03  0.59912506644E+03  0.25500000000E-02 0.  1.
    5000001    1    1    2    0    0 -0.29535299062E+02  0.19559977974E+03 -0.27771189089E+03  0.36384681126E+03  0.12700000000E+03 0.  0.
   -5000001    1    1    2    0    0  0.29535299062E+02 -0.19559977974E+03 -0.22871264698E+03  0.32797878379E+03  0.12700000000E+03 0.  0.
<mgrwt>
<rscale>  0 0.47133517E+03</rscale>
<asrwt>0</asrwt>
<pdfrwt beam="1">  1        2 0.85589293E-01 0.47133517E+03</pdfrwt>
<pdfrwt beam="2">  1       -2 0.13242933E-01 0.47133517E+03</pdfrwt>
<totfact> 0.23344062E+03</totfact>
</mgrwt>
</event>
<event>
 4    1  0.1399921E-004  0.4053809E+03  0.7818608E-02  0.1041932E+00
          2   -1    0    0  501    0  0.00000000000E+00  0.00000000000E+00  0.28700553223E+03  0.28700553225E+03  0.25500000000E-02 0.  1.
         -2   -1    0    0    0  501 -0.00000000000E+00 -0.00000000000E+00 -0.14314507239E+03  0.14314507241E+03  0.25500000000E-02 0. -1.
    5000001    1    1    2    0    0 -0.15120287710E+03 -0.43135415202E+02  0.55787046444E+02  0.20967634258E+03  0.12700000000E+03 0.  0.
   -5000001    1    1    2    0    0  0.15120287710E+03  0.43135415202E+02  0.88073413400E+02  0.22047426207E+03  0.12700000000E+03 0.  0.
<mgrwt>
<rscale>  0 0.40538095E+03</rscale>
<asrwt>0</asrwt>
<pdfrwt beam="1">  1        2 0.41000791E-01 0.40538095E+03</pdfrwt>
<pdfrwt beam="2">  1       -2 0.20449296E-01 0.40538095E+03</pdfrwt>
<totfact> 0.25346766E+03</totfact>
</mgrwt>
</event>
<event>
 4    1  0.1399921E-004  0.3647656E+03  0.7818608E-02  0.1056713E+00
         -2   -1    0    0    0  501 -0.00000000000E+00  0.00000000000E+00  0.14454156015E+03  0.14454156017E+03  0.25500000000E-02 0. -1.
          2   -1    0    0  501    0  0.00000000000E+00 -0.00000000000E+00 -0.23013094429E+03  0.23013094430E+03  0.25500000000E-02 0.  1.
    5000001    1    1    2    0    0 -0.52262780716E+02  0.11599362095E+03 -0.74429998279E+02  0.19456295381E+03  0.12700000000E+03 0.  0.
   -5000001    1    1    2    0    0  0.52262780716E+02 -0.11599362095E+03 -0.11159385860E+02  0.18010955067E+03  0.12700000000E+03 0.  0.
<mgrwt>
<rscale>  0 0.36476560E+03</rscale>
<asrwt>0</asrwt>
<pdfrwt beam="1">  1        2 0.32875849E-01 0.36476560E+03</pdfrwt>
<pdfrwt beam="2">  1       -2 0.20648794E-01 0.36476560E+03</pdfrwt>
<totfact> 0.31684217E+03</totfact>
</mgrwt>
</event>
<event>
 4    1  0.1399921E-004  0.4809122E+03  0.7818608E-02  0.1018885E+00
         -2   -1    0    0    0  501 -0.00000000000E+00  0.00000000000E+00  0.17318603396E+03  0.17318603398E+03  0.25500000000E-02 0. -1.
          2   -1    0    0  501    0  0.00000000000E+00 -0.00000000000E+00 -0.33385564393E+03  0.33385564394E+03  0.25500000000E-02 0.  1.
    5000001    1    1    2    0    0 -0.12159883321E+03  0.16383749650E+03 -0.72091200781E+02  0.25090863422E+03  0.12700000000E+03 0.  0.
   -5000001    1    1    2    0    0  0.12159883321E+03 -0.16383749650E+03 -0.88578409193E+02  0.25613304370E+03  0.12700000000E+03 0.  0.
<mgrwt>
<rscale>  0 0.48091220E+03</rscale>
<asrwt>0</asrwt>
<pdfrwt beam="1">  1        2 0.47693663E-01 0.48091220E+03</pdfrwt>
<pdfrwt beam="2">  1       -2 0.24740862E-01 0.48091220E+03</pdfrwt>
<totfact> 0.15398617E+03</totfact>
</mgrwt>
</event>
<event>
 4    1  0.1399921E-004  0.4423987E+03  0.7818608E-02  0.1030013E+00
         -2   -1    0    0    0  501 -0.00000000000E+00  0.00000000000E+00  0.17252159655E+03  0.17252159657E+03  0.25500000000E-02 0.  1.
          2   -1    0    0  501    0  0.00000000000E+00 -0.00000000000E+00 -0.28361172508E+03  0.28361172509E+03  0.25500000000E-02 0. -1.
    5000001    1    1    2    0    0  0.11352032442E+03  0.12626460669E+03  0.94233647378E+01  0.21224376260E+03  0.12700000000E+03 0.  0.
   -5000001    1    1    2    0    0 -0.11352032442E+03 -0.12626460669E+03 -0.12051349326E+03  0.24388955906E+03  0.12700000000E+03 0.  0.
<mgrwt>
<rscale>  0 0.44239868E+03</rscale>
<asrwt>0</asrwt>
<pdfrwt beam="1">  1        2 0.40515961E-01 0.44239868E+03</pdfrwt>
<pdfrwt beam="2">  1       -2 0.24645942E-01 0.44239868E+03</pdfrwt>
<totfact> 0.18524046E+03</totfact>
</mgrwt>
</event>
<event>
 4    1  0.1399921E-004  0.5134653E+03  0.7818608E-02  0.1010323E+00
          2   -1    0    0  501    0  0.00000000000E+00  0.00000000000E+00  0.13473944075E+04  0.13473944075E+04  0.25500000000E-02 0.  1.
         -2   -1    0    0    0  501 -0.00000000000E+00 -0.00000000000E+00 -0.48917862909E+02  0.48917862975E+02  0.25500000000E-02 0. -1.
    5000001    1    1    2    0    0 -0.20242817160E+03 -0.78628562673E+02  0.50996305001E+03  0.56863954127E+03  0.12700000000E+03 0.  0.
   -5000001    1    1    2    0    0  0.20242817160E+03  0.78628562673E+02  0.78851349453E+03  0.82767272916E+03  0.12700000000E+03 0.  0.
<mgrwt>
<rscale>  0 0.51346531E+03</rscale>
<asrwt>0</asrwt>
<pdfrwt beam="1">  1        2 0.19248494E+00 0.51346531E+03</pdfrwt>
<pdfrwt beam="2">  1       -2 0.69882654E-02 0.51346531E+03</pdfrwt>
<totfact> 0.21792821E+03</totfact>
</mgrwt>
</event>
<event>
 4    1  0.1399921E-004  0.5075108E+03  0.7818608E-02  0.1011837E+00
         -2   -1    0    0    0  501 -0.00000000000E+00  0.00000000000E+00  0.33719895272E+02  0.33719895368E+02  0.25500000000E-02 0. -1.
          2   -1    0    0  501    0  0.00000000000E+00 -0.00000000000E+00 -0.19096082643E+04  0.19096082643E+04  0.25500000000E-02 0.  1.
    5000001    1    1    2    0    0  0.16183253508E+03  0.82747761370E+01 -0.15059556953E+04  0.15199637488E+04  0.12700000000E+03 0.  0.
   -5000001    1    1    2    0    0 -0.16183253508E+03 -0.82747761370E+01 -0.36993267367E+03  0.42336441085E+03  0.12700000000E+03 0.  0.
<mgrwt>
<rscale>  0 0.50751075E+03</rscale>
<asrwt>0</asrwt>
<pdfrwt beam="1">  1        2 0.27280111E+00 0.50751075E+03</pdfrwt>
<pdfrwt beam="2">  1       -2 0.48171291E-02 0.50751075E+03</pdfrwt>
<totfact> 0.20061716E+03</totfact>
</mgrwt>
</event>
<event>
 4    1  0.1399921E-004  0.6397086E+03  0.7818608E-02  0.9826284E-01
         -2   -1    0    0    0  501 -0.00000000000E+00  0.00000000000E+00  0.59879596241E+02  0.59879596295E+02  0.25500000000E-02 0. -1.
          2   -1    0    0  501    0  0.00000000000E+00 -0.00000000000E+00 -0.17085415610E+04  0.17085415610E+04  0.25500000000E-02 0.  1.
    5000001    1    1    2    0    0  0.14766144645E+03  0.21452032408E+03 -0.11988549290E+04  0.12333714010E+04  0.12700000000E+03 0.  0.
   -5000001    1    1    2    0    0 -0.14766144645E+03 -0.21452032408E+03 -0.44980703577E+03  0.53504975623E+03  0.12700000000E+03 0.  0.
<mgrwt>
<rscale>  0 0.63970862E+03</rscale>
<asrwt>0</asrwt>
<pdfrwt beam="1">  1        2 0.24407734E+00 0.63970862E+03</pdfrwt>
<pdfrwt beam="2">  1       -2 0.85542291E-02 0.63970862E+03</pdfrwt>
<totfact> 0.10218302E+03</totfact>
</mgrwt>
</event>
<event>
 4    1  0.1399921E-004  0.4125150E+03  0.7818608E-02  0.1039530E+00
          2   -1    0    0  501    0  0.00000000000E+00  0.00000000000E+00  0.36141696632E+04  0.36141696632E+04  0.25500000000E-02 0. -1.
         -2   -1    0    0    0  501 -0.00000000000E+00 -0.00000000000E+00 -0.11770936475E+02  0.11770936751E+02  0.25500000000E-02 0.  1.
    5000001    1    1    2    0    0  0.85697116867E+02 -0.13042418325E+03  0.22000196998E+04  0.22092012455E+04  0.12700000000E+03 0.  0.
   -5000001    1    1    2    0    0 -0.85697116867E+02  0.13042418325E+03  0.14023790269E+04  0.14167393545E+04  0.12700000000E+03 0.  0.
<mgrwt>
<rscale>  0 0.41251503E+03</rscale>
<asrwt>0</asrwt>
<pdfrwt beam="1">  1        2 0.51630971E+00 0.41251503E+03</pdfrwt>
<pdfrwt beam="2">  1       -2 0.16815632E-02 0.41251503E+03</pdfrwt>
<totfact> 0.12287880E+03</totfact>
</mgrwt>
</event>
<event>
 4    1  0.1399921E-004  0.3387170E+03  0.7818608E-02  0.1067344E+00
         -2   -1    0    0    0  501 -0.00000000000E+00  0.00000000000E+00  0.42324995671E+02  0.42324995747E+02  0.25500000000E-02 0. -1.
          2   -1    0    0  501    0  0.00000000000E+00 -0.00000000000E+00 -0.67766804990E+03  0.67766804990E+03  0.25500000000E-02 0.  1.
    5000001    1    1    2    0    0  0.70899269256E+02 -0.35732786258E+02 -0.14962754219E+03  0.21170956468E+03  0.12700000000E+03 0.  0.
   -5000001    1    1    2    0    0 -0.70899269256E+02  0.35732786258E+02 -0.48571551204E+03  0.50828348097E+03  0.12700000000E+03 0.  0.
<mgrwt>
<rscale>  0 0.33871698E+03</rscale>
<asrwt>0</asrwt>
<pdfrwt beam="1">  1        2 0.96809715E-01 0.33871698E+03</pdfrwt>
<pdfrwt beam="2">  1       -2 0.60464283E-02 0.33871698E+03</pdfrwt>
<totfact> 0.70041309E+03</totfact>
</mgrwt>
</event>
<event>
 4    1  0.1399921E-004  0.3370334E+03  0.7818608E-02  0.1068067E+00
         -2   -1    0    0    0  501 -0.00000000000E+00  0.00000000000E+00  0.48471504758E+02  0.48471504825E+02  0.25500000000E-02 0. -1.
          2   -1    0    0  501    0  0.00000000000E+00 -0.00000000000E+00 -0.58586746512E+03  0.58586746512E+03  0.25500000000E-02 0.  1.
    5000001    1    1    2    0    0  0.65616075372E+02 -0.87246101127E+02 -0.30398599816E+03  0.34706460290E+03  0.12700000000E+03 0.  0.
   -5000001    1    1    2    0    0 -0.65616075372E+02  0.87246101127E+02 -0.23340996220E+03  0.28727436705E+03  0.12700000000E+03 0.  0.
<mgrwt>
<rscale>  0 0.33703340E+03</rscale>
<asrwt>0</asrwt>
<pdfrwt beam="1">  1        2 0.83695348E-01 0.33703340E+03</pdfrwt>
<pdfrwt beam="2">  1       -2 0.69245010E-02 0.33703340E+03</pdfrwt>
<totfact> 0.67244479E+03</totfact>
</mgrwt>
</event>
<event>
 4    1  0.1399921E-004  0.5255018E+03  0.7818608E-02  0.1007329E+00
         -2   -1    0    0    0  501 -0.00000000000E+00  0.00000000000E+00  0.12752443051E+03  0.12752443053E+03  0.25500000000E-02 0. -1.
          2   -1    0    0  501    0  0.00000000000E+00 -0.00000000000E+00 -0.54137107174E+03  0.54137107175E+03  0.25500000000E-02 0.  1.
    5000001    1    1    2    0    0 -0.99455164914E+02 -0.84769980326E+02 -0.44786843273E+03  0.48352085005E+03  0.12700000000E+03 0.  0.
   -5000001    1    1    2    0    0  0.99455164914E+02  0.84769980326E+02  0.34021791499E+02  0.18537465223E+03  0.12700000000E+03 0.  0.
<mgrwt>
<rscale>  0 0.52550181E+03</rscale>
<asrwt>0</asrwt>
<pdfrwt beam="1">  1        2 0.77338724E-01 0.52550181E+03</pdfrwt>
<pdfrwt beam="2">  1       -2 0.18217776E-01 0.52550181E+03</pdfrwt>
<totfact> 0.15350674E+03</totfact>
</mgrwt>
</event>
<event>
 4    1  0.1399921E-004  0.9702827E+03  0.7818608E-02  0.9341752E-01
         -2   -1    0    0    0  501 -0.00000000000E+00  0.00000000000E+00  0.15455007301E+03  0.15455007303E+03  0.25500000000E-02 0. -1.
          2   -1    0    0  501    0  0.00000000000E+00 -0.00000000000E+00 -0.15228858501E+04  0.15228858501E+04  0.25500000000E-02 0.  1.
    5000001    1    1    2    0    0  0.41625637795E+03 -0.21431830790E+03 -0.67447882127E+03  0.83081429311E+03  0.12700000000E+03 0.  0.
   -5000001    1    1    2    0    0 -0.41625637795E+03  0.21431830790E+03 -0.69385695586E+03  0.84662163005E+03  0.12700000000E+03 0.  0.
<mgrwt>
<rscale>  0 0.97028268E+03</rscale>
<asrwt>0</asrwt>
<pdfrwt beam="1">  1        2 0.21755511E+00 0.97028268E+03</pdfrwt>
<pdfrwt beam="2">  1       -2 0.22078583E-01 0.97028268E+03</pdfrwt>
<totfact> 0.25436883E+02</totfact>
</mgrwt>
</event>
<event>
 4    1  0.1399921E-004  0.3403223E+03  0.7818608E-02  0.1066659E+00
          2   -1    0    0  501    0  0.00000000000E+00  0.00000000000E+00  0.19940783590E+02  0.19940783753E+02  0.25500000000E-02 0.  1.
         -2   -1    0    0    0  501 -0.00000000000E+00 -0.00000000000E+00 -0.14520400166E+04  0.14520400167E+04  0.25500000000E-02 0. -1.
    5000001    1    1    2    0    0  0.10833645579E+03  0.31134368757E+02 -0.66873217631E+03  0.68995496970E+03  0.12700000000E+03 0.  0.
   -5000001    1    1    2    0    0 -0.10833645579E+03 -0.31134368757E+02 -0.76336705674E+03  0.78202583071E+03  0.12700000000E+03 0.  0.
<mgrwt>
<rscale>  0 0.34032229E+03</rscale>
<asrwt>0</asrwt>
<pdfrwt beam="1">  1        2 0.28486843E-02 0.34032229E+03</pdfrwt>
<pdfrwt beam="2">  1       -2 0.20743422E+00 0.34032229E+03</pdfrwt>
<totfact> 0.43668192E+02</totfact>
</mgrwt>
</event>
<event>
 4    1  0.1399921E-004  0.1007133E+04  0.7818608E-02  0.9300756E-01
          2   -1    0    0  501    0  0.00000000000E+00  0.00000000000E+00  0.30501414675E+04  0.30501414675E+04  0.25500000000E-02 0.  1.
         -2   -1    0    0    0  501 -0.00000000000E+00 -0.00000000000E+00 -0.83136886988E+02  0.83136887027E+02  0.25500000000E-02 0. -1.
    5000001    1    1    2    0    0 -0.27431786349E+03  0.38715437577E+03  0.18286992728E+04  0.18935175815E+04  0.12700000000E+03 0.  0.
   -5000001    1    1    2    0    0  0.27431786349E+03 -0.38715437577E+03  0.11383053077E+04  0.12397607731E+04  0.12700000000E+03 0.  0.
<mgrwt>
<rscale>  0 0.10071331E+04</rscale>
<asrwt>0</asrwt>
<pdfrwt beam="1">  1        2 0.43573451E+00 0.10071331E+04</pdfrwt>
<pdfrwt beam="2">  1       -2 0.11876698E-01 0.10071331E+04</pdfrwt>
<totfact> 0.11687907E+02</totfact>
</mgrwt>
</event>
<event>
 4    1  0.1399921E-004  0.6028285E+03  0.7818608E-02  0.9899555E-01
          2   -1    0    0  501    0  0.00000000000E+00  0.00000000000E+00  0.91813116980E+03  0.91813116980E+03  0.25500000000E-02 0.  1.
         -2   -1    0    0    0  501 -0.00000000000E+00 -0.00000000000E+00 -0.98951600510E+02  0.98951600543E+02  0.25500000000E-02 0. -1.
    5000001    1    1    2    0    0 -0.18226550170E+02  0.12996793414E+03  0.81415419614E+03  0.83438595753E+03  0.12700000000E+03 0.  0.
   -5000001    1    1    2    0    0  0.18226550170E+02 -0.12996793414E+03  0.50253731437E+01  0.18269681281E+03  0.12700000000E+03 0.  0.
<mgrwt>
<rscale>  0 0.60282850E+03</rscale>
<asrwt>0</asrwt>
<pdfrwt beam="1">  1        2 0.13116160E+00 0.60282850E+03</pdfrwt>
<pdfrwt beam="2">  1       -2 0.14135943E-01 0.60282850E+03</pdfrwt>
<totfact> 0.12298425E+03</totfact>
</mgrwt>
</event>
<event>
 4    1  0.1399921E-004  0.3080189E+03  0.7818608E-02  0.1081299E+00
          2   -1    0    0  501    0  0.00000000000E+00  0.00000000000E+00  0.39487124379E+03  0.39487124379E+03  0.25500000000E-02 0.  1.
         -2   -1    0    0    0  501 -0.00000000000E+00 -0.00000000000E+00 -0.60067470082E+02  0.60067470136E+02  0.25500000000E-02 0. -1.
    5000001    1    1    2    0    0 -0.76504139379E+02  0.32580724311E+02  0.20579008243E+03  0.25572044299E+03  0.12700000000E+03 0.  0.
   -5000001    1    1    2    0    0  0.76504139379E+02 -0.32580724311E+02  0.12901369128E+03  0.19921827094E+03  0.12700000000E+03 0.  0.
<mgrwt>
<rscale>  0 0.30801894E+03</rscale>
<asrwt>0</asrwt>
<pdfrwt beam="1">  1        2 0.56410179E-01 0.30801894E+03</pdfrwt>
<pdfrwt beam="2">  1       -2 0.85810669E-02 0.30801894E+03</pdfrwt>
<totfact> 0.74260119E+03</totfact>
</mgrwt>
</event>
<event>
 4    1  0.1399921E-004  0.4597043E+03  0.7818608E-02  0.1024867E+00
          2   -1    0    0  501    0  0.00000000000E+00  0.00000000000E+00  0.17390459487E+04  0.17390459487E+04  0.25500000000E-02 0.  1.
         -2   -1    0    0    0  501 -0.00000000000E+00 -0.00000000000E+00 -0.30379885991E+02  0.30379886098E+02  0.25500000000E-02 0. -1.
    5000001    1    1    2    0    0  0.17504161479E+03 -0.70713078170E+02  0.72883319463E+03  0.76352258116E+03  0.12700000000E+03 0.  0.
   -5000001    1    1    2    0    0 -0.17504161479E+03  0.70713078170E+02  0.97983286812E+03  0.10059032537E+04  0.12700000000E+03 0.  0.
<mgrwt>
<rscale>  0 0.45970433E+03</rscale>
<asrwt>0</asrwt>
<pdfrwt beam="1">  1        2 0.24843510E+00 0.45970433E+03</pdfrwt>
<pdfrwt beam="2">  1       -2 0.43399844E-02 0.45970433E+03</pdfrwt>
<totfact> 0.28709600E+03</totfact>
</mgrwt>
</event>
<event>
 4    1  0.1399921E-004  0.4202738E+03  0.7818608E-02  0.1036977E+00
         -2   -1    0    0    0  501 -0.00000000000E+00  0.00000000000E+00  0.21889701376E+02  0.21889701525E+02  0.25500000000E-02 0. -1.
          2   -1    0    0  501    0  0.00000000000E+00 -0.00000000000E+00 -0.20172736294E+04  0.20172736294E+04  0.25500000000E-02 0.  1.
    5000001    1    1    2    0    0  0.14898783475E+03  0.33272707169E+02 -0.66420578960E+03  0.69325520473E+03  0.12700000000E+03 0.  0.
   -5000001    1    1    2    0    0 -0.14898783475E+03 -0.33272707169E+02 -0.13311781384E+04  0.13459081262E+04  0.12700000000E+03 0.  0.
<mgrwt>
<rscale>  0 0.42027380E+03</rscale>
<asrwt>0</asrwt>
<pdfrwt beam="1">  1        2 0.28818183E+00 0.42027380E+03</pdfrwt>
<pdfrwt beam="2">  1       -2 0.31271015E-02 0.42027380E+03</pdfrwt>
<totfact> 0.34372468E+03</totfact>
</mgrwt>
</event>
<event>
 4    1  0.1399921E-004  0.3863601E+03  0.7818608E-02  0.1048608E+00
          2   -1    0    0  501    0  0.00000000000E+00  0.00000000000E+00  0.20966684500E+03  0.20966684502E+03  0.25500000000E-02 0.  1.
         -2   -1    0    0    0  501 -0.00000000000E+00 -0.00000000000E+00 -0.17798966333E+03  0.17798966335E+03  0.25500000000E-02 0. -1.
    5000001    1    1    2    0    0 -0.11935403815E+03  0.78602316455E+02  0.43604911261E+02  0.19609716689E+03  0.12700000000E+03 0.  0.
   -5000001    1    1    2    0    0  0.11935403815E+03 -0.78602316455E+02 -0.11927729588E+02  0.19155934148E+03  0.12700000000E+03 0.  0.
<mgrwt>
<rscale>  0 0.38636010E+03</rscale>
<asrwt>0</asrwt>
<pdfrwt beam="1">  1        2 0.29952407E-01 0.38636010E+03</pdfrwt>
<pdfrwt beam="2">  1       -2 0.25427094E-01 0.38636010E+03</pdfrwt>
<totfact> 0.24395701E+03</totfact>
</mgrwt>
</event>
<event>
 4    1  0.1399921E-004  0.7128200E+03  0.7818608E-02  0.9695556E-01
          2   -1    0    0  501    0  0.00000000000E+00  0.00000000000E+00  0.55980623027E+03  0.55980623027E+03  0.25500000000E-02 0.  1.
         -2   -1    0    0    0  501 -0.00000000000E+00 -0.00000000000E+00 -0.22691437073E+03  0.22691437074E+03  0.25500000000E-02 0. -1.
    5000001    1    1    2    0    0 -0.30615455317E+02 -0.33158928030E+03  0.16290013668E+03  0.39185993856E+03  0.12700000000E+03 0.  0.
   -5000001    1    1    2    0    0  0.30615455317E+02  0.33158928030E+03  0.16999172286E+03  0.39486066246E+03  0.12700000000E+03 0.  0.
<mgrwt>
<rscale>  0 0.71281997E+03</rscale>
<asrwt>0</asrwt>
<pdfrwt beam="1">  1        2 0.79972318E-01 0.71281997E+03</pdfrwt>
<pdfrwt beam="2">  1       -2 0.32416339E-01 0.71281997E+03</pdfrwt>
<totfact> 0.52450646E+02</totfact>
</mgrwt>
</event>
<event>
 4    1  0.1399921E-004  0.5159024E+03  0.7818608E-02  0.1009710E+00
          2   -1    0    0  501    0  0.00000000000E+00  0.00000000000E+00  0.77240381223E+03  0.77240381224E+03  0.25500000000E-02 0.  1.
         -2   -1    0    0    0  501 -0.00000000000E+00 -0.00000000000E+00 -0.86145119723E+02  0.86145119761E+02  0.25500000000E-02 0. -1.
    5000001    1    1    2    0    0  0.35463127611E+02  0.20542329014E+03  0.20435860429E+03  0.31835169341E+03  0.12700000000E+03 0.  0.
   -5000001    1    1    2    0    0 -0.35463127611E+02 -0.20542329014E+03  0.48190008822E+03  0.54019723859E+03  0.12700000000E+03 0.  0.
<mgrwt>
<rscale>  0 0.51590239E+03</rscale>
<asrwt>0</asrwt>
<pdfrwt beam="1">  1        2 0.11034341E+00 0.51590239E+03</pdfrwt>
<pdfrwt beam="2">  1       -2 0.12306445E-01 0.51590239E+03</pdfrwt>
<totfact> 0.19393269E+03</totfact>
</mgrwt>
</event>
<event>
 4    1  0.1399921E-004  0.3266739E+03  0.7818608E-02  0.1072618E+00
          2   -1    0    0  501    0  0.00000000000E+00  0.00000000000E+00  0.15547254034E+03  0.15547254036E+03  0.25500000000E-02 0.  1.
         -2   -1    0    0    0  501 -0.00000000000E+00 -0.00000000000E+00 -0.17159920969E+03  0.17159920971E+03  0.25500000000E-02 0. -1.
    5000001    1    1    2    0    0  0.79611294266E+02 -0.61135909134E+02  0.13744087019E+02  0.16246063366E+03  0.12700000000E+03 0.  0.
   -5000001    1    1    2    0    0 -0.79611294266E+02  0.61135909134E+02 -0.29870756363E+02  0.16461111641E+03  0.12700000000E+03 0.  0.
<mgrwt>
<rscale>  0 0.32667394E+03</rscale>
<asrwt>0</asrwt>
<pdfrwt beam="1">  1        2 0.22210363E-01 0.32667394E+03</pdfrwt>
<pdfrwt beam="2">  1       -2 0.24514173E-01 0.32667394E+03</pdfrwt>
<totfact> 0.36289931E+03</totfact>
</mgrwt>
</event>
<event>
 4    1  0.1399921E-004  0.4520072E+03  0.7818608E-02  0.1027125E+00
          2   -1    0    0  501    0  0.00000000000E+00  0.00000000000E+00  0.11175327815E+04  0.11175327815E+04  0.25500000000E-02 0.  1.
         -2   -1    0    0    0  501 -0.00000000000E+00 -0.00000000000E+00 -0.45705698752E+02  0.45705698823E+02  0.25500000000E-02 0. -1.
    5000001    1    1    2    0    0  0.11193021307E+03 -0.13791462925E+03  0.38585867576E+03  0.44335621708E+03  0.12700000000E+03 0.  0.
   -5000001    1    1    2    0    0 -0.11193021307E+03  0.13791462925E+03  0.68596840702E+03  0.71988226328E+03  0.12700000000E+03 0.  0.
<mgrwt>
<rscale>  0 0.45200715E+03</rscale>
<asrwt>0</asrwt>
<pdfrwt beam="1">  1        2 0.15964752E+00 0.45200715E+03</pdfrwt>
<pdfrwt beam="2">  1       -2 0.65293864E-02 0.45200715E+03</pdfrwt>
<totfact> 0.32461614E+03</totfact>
</mgrwt>
</event>
<event>
 4    1  0.1399921E-004  0.4185336E+03  0.7818608E-02  0.1037545E+00
         -2   -1    0    0    0  501 -0.00000000000E+00  0.00000000000E+00  0.12504582675E+03  0.12504582677E+03  0.25500000000E-02 0. -1.
          2   -1    0    0  501    0  0.00000000000E+00 -0.00000000000E+00 -0.35021237364E+03  0.35021237365E+03  0.25500000000E-02 0.  1.
    5000001    1    1    2    0    0  0.15915388953E+03  0.43911968228E+02 -0.89720580383E+02  0.22679727523E+03  0.12700000000E+03 0.  0.
   -5000001    1    1    2    0    0 -0.15915388953E+03 -0.43911968228E+02 -0.13544596651E+03  0.24846092520E+03  0.12700000000E+03 0.  0.
<mgrwt>
<rscale>  0 0.41853361E+03</rscale>
<asrwt>0</asrwt>
<pdfrwt beam="1">  1        2 0.50030339E-01 0.41853361E+03</pdfrwt>
<pdfrwt beam="2">  1       -2 0.17863690E-01 0.41853361E+03</pdfrwt>
<totfact> 0.25740077E+03</totfact>
</mgrwt>
</event>
<event>
 4    1  0.1399921E-004  0.3883229E+03  0.7818608E-02  0.1047900E+00
         -2   -1    0    0    0  501 -0.00000000000E+00  0.00000000000E+00  0.23441115574E+03  0.23441115575E+03  0.25500000000E-02 0. -1.
          2   -1    0    0  501    0  0.00000000000E+00 -0.00000000000E+00 -0.16082281593E+03  0.16082281595E+03  0.25500000000E-02 0.  1.
    5000001    1    1    2    0    0 -0.15701644729E+02  0.12648406512E+03 -0.37476459183E+02  0.18378858879E+03  0.12700000000E+03 0.  0.
   -5000001    1    1    2    0    0  0.15701644729E+02 -0.12648406512E+03  0.11106479899E+03  0.21144538291E+03  0.12700000000E+03 0.  0.
<mgrwt>
<rscale>  0 0.38832287E+03</rscale>
<asrwt>0</asrwt>
<pdfrwt beam="1">  1        2 0.22974688E-01 0.38832287E+03</pdfrwt>
<pdfrwt beam="2">  1       -2 0.33487308E-01 0.38832287E+03</pdfrwt>
<totfact> 0.19901384E+03</totfact>
</mgrwt>
</event>
<event>
 4    1  0.1399921E-004  0.3696892E+03  0.7818608E-02  0.1054812E+00
         -2   -1    0    0    0  501 -0.00000000000E+00  0.00000000000E+00  0.80218487602E+03  0.80218487603E+03  0.25500000000E-02 0. -1.
          2   -1    0    0  501    0  0.00000000000E+00 -0.00000000000E+00 -0.42593092467E+02  0.42593092543E+02  0.25500000000E-02 0.  1.
    5000001    1    1    2    0    0  0.28947554623E+02 -0.90793340901E+02  0.16352876284E+03  0.22792991894E+03  0.12700000000E+03 0.  0.
   -5000001    1    1    2    0    0 -0.28947554623E+02  0.90793340901E+02  0.59606302072E+03  0.61684804964E+03  0.12700000000E+03 0.  0.
<mgrwt>
<rscale>  0 0.36968925E+03</rscale>
<asrwt>0</asrwt>
<pdfrwt beam="1">  1        2 0.60847279E-02 0.36968925E+03</pdfrwt>
<pdfrwt beam="2">  1       -2 0.11459783E+00 0.36968925E+03</pdfrwt>
<totfact> 0.75793935E+02</totfact>
</mgrwt>
</event>
<event>
 4    1  0.1399921E-004  0.4173939E+03  0.7818608E-02  0.1037918E+00
          2   -1    0    0  501    0  0.00000000000E+00  0.00000000000E+00  0.24326686341E+04  0.24326686341E+04  0.25500000000E-02 0.  1.
         -2   -1    0    0    0  501 -0.00000000000E+00 -0.00000000000E+00 -0.17903965528E+02  0.17903965709E+02  0.25500000000E-02 0. -1.
    5000001    1    1    2    0    0 -0.50319712625E+02  0.96412700307E+02  0.47412736970E+03  0.50274570606E+03  0.12700000000E+03 0.  0.
   -5000001    1    1    2    0    0  0.50319712625E+02 -0.96412700307E+02  0.19406372989E+04  0.19478268937E+04  0.12700000000E+03 0.  0.
<mgrwt>
<rscale>  0 0.41739389E+03</rscale>
<asrwt>0</asrwt>
<pdfrwt beam="1">  1        2 0.34752397E+00 0.41739389E+03</pdfrwt>
<pdfrwt beam="2">  1       -2 0.25577103E-02 0.41739389E+03</pdfrwt>
<totfact> 0.28869365E+03</totfact>
</mgrwt>
</event>
<event>
 4    1  0.1399921E-004  0.4928227E+03  0.7818608E-02  0.1015669E+00
         -2   -1    0    0    0  501 -0.00000000000E+00  0.00000000000E+00  0.15692898449E+03  0.15692898451E+03  0.25500000000E-02 0. -1.
          2   -1    0    0  501    0  0.00000000000E+00 -0.00000000000E+00 -0.38691736831E+03  0.38691736831E+03  0.25500000000E-02 0.  1.
    5000001    1    1    2    0    0 -0.19109220577E+03  0.44409743419E+02 -0.20119063847E+03  0.30837498184E+03  0.12700000000E+03 0.  0.
   -5000001    1    1    2    0    0  0.19109220577E+03 -0.44409743419E+02 -0.28797745349E+02  0.23547137098E+03  0.12700000000E+03 0.  0.
<mgrwt>
<rscale>  0 0.49282268E+03</rscale>
<asrwt>0</asrwt>
<pdfrwt beam="1">  1        2 0.55273909E-01 0.49282268E+03</pdfrwt>
<pdfrwt beam="2">  1       -2 0.22418427E-01 0.49282268E+03</pdfrwt>
<totfact> 0.15594931E+03</totfact>
</mgrwt>
</event>
<event>
 4    1  0.1399921E-004  0.3124784E+03  0.7818608E-02  0.1079164E+00
         -2   -1    0    0    0  501 -0.00000000000E+00  0.00000000000E+00  0.12585660363E+02  0.12585660622E+02  0.25500000000E-02 0. -1.
          2   -1    0    0  501    0  0.00000000000E+00 -0.00000000000E+00 -0.19395632981E+04  0.19395632982E+04  0.25500000000E-02 0.  1.
    5000001    1    1    2    0    0  0.18763321435E+02  0.87681864193E+02 -0.10605764273E+04  0.10719102246E+04  0.12700000000E+03 0.  0.
   -5000001    1    1    2    0    0 -0.18763321435E+02 -0.87681864193E+02 -0.86640121052E+03  0.88023873417E+03  0.12700000000E+03 0.  0.
<mgrwt>
<rscale>  0 0.31247838E+03</rscale>
<asrwt>0</asrwt>
<pdfrwt beam="1">  1        2 0.27708028E+00 0.31247838E+03</pdfrwt>
<pdfrwt beam="2">  1       -2 0.17979527E-02 0.31247838E+03</pdfrwt>
<totfact> 0.85658134E+03</totfact>
</mgrwt>
</event>
<event>
 4    1  0.1399921E-004  0.3269269E+03  0.7818608E-02  0.1072505E+00
          2   -1    0    0  501    0  0.00000000000E+00  0.00000000000E+00  0.62037038816E+03  0.62037038816E+03  0.25500000000E-02 0.  1.
         -2   -1    0    0    0  501 -0.00000000000E+00 -0.00000000000E+00 -0.43071526242E+02  0.43071526317E+02  0.25500000000E-02 0. -1.
    5000001    1    1    2    0    0 -0.17107046153E+02 -0.75887206698E+02  0.15191758792E+03  0.21274273828E+03  0.12700000000E+03 0.  0.
   -5000001    1    1    2    0    0  0.17107046153E+02  0.75887206698E+02  0.42538127399E+03  0.45069917621E+03  0.12700000000E+03 0.  0.
<mgrwt>
<rscale>  0 0.32692690E+03</rscale>
<asrwt>0</asrwt>
<pdfrwt beam="1">  1        2 0.88624341E-01 0.32692690E+03</pdfrwt>
<pdfrwt beam="2">  1       -2 0.61530752E-02 0.32692690E+03</pdfrwt>
<totfact> 0.75534016E+03</totfact>
</mgrwt>
</event>
<event>
 4    1  0.1399921E-004  0.3050787E+03  0.7818608E-02  0.1082729E+00
          2   -1    0    0  501    0  0.00000000000E+00  0.00000000000E+00  0.14039786571E+04  0.14039786571E+04  0.25500000000E-02 0.  1.
         -2   -1    0    0    0  501 -0.00000000000E+00 -0.00000000000E+00 -0.16573080708E+02  0.16573080904E+02  0.25500000000E-02 0. -1.
    5000001    1    1    2    0    0  0.13285069215E+02  0.26206793806E+02  0.32482257706E+03  0.35000285095E+03  0.12700000000E+03 0.  0.
   -5000001    1    1    2    0    0 -0.13285069215E+02 -0.26206793806E+02  0.10625829993E+04  0.10705488870E+04  0.12700000000E+03 0.  0.
<mgrwt>
<rscale>  0 0.30507869E+03</rscale>
<asrwt>0</asrwt>
<pdfrwt beam="1">  1        2 0.20056839E+00 0.30507869E+03</pdfrwt>
<pdfrwt beam="2">  1       -2 0.23675829E-02 0.30507869E+03</pdfrwt>
<totfact> 0.10547710E+04</totfact>
</mgrwt>
</event>
<event>
 4    1  0.1399921E-004  0.4365398E+03  0.7818608E-02  0.1031814E+00
         -2   -1    0    0    0  501 -0.00000000000E+00  0.00000000000E+00  0.10133539539E+03  0.10133539542E+03  0.25500000000E-02 0. -1.
          2   -1    0    0  501    0  0.00000000000E+00 -0.00000000000E+00 -0.47013932016E+03  0.47013932017E+03  0.25500000000E-02 0.  1.
    5000001    1    1    2    0    0  0.11332706357E+03  0.10458278468E+03 -0.69289087858E+02  0.21144871691E+03  0.12700000000E+03 0.  0.
   -5000001    1    1    2    0    0 -0.11332706357E+03 -0.10458278468E+03 -0.29951483692E+03  0.36002599868E+03  0.12700000000E+03 0.  0.
<mgrwt>
<rscale>  0 0.43653982E+03</rscale>
<asrwt>0</asrwt>
<pdfrwt beam="1">  1        2 0.67162759E-01 0.43653982E+03</pdfrwt>
<pdfrwt beam="2">  1       -2 0.14476485E-01 0.43653982E+03</pdfrwt>
<totfact> 0.26522554E+03</totfact>
</mgrwt>
</event>
<event>
 4    1  0.1399921E-004  0.4559897E+03  0.7818608E-02  0.1025951E+00
         -2   -1    0    0    0  501 -0.00000000000E+00  0.00000000000E+00  0.17807867706E+02  0.17807867889E+02  0.25500000000E-02 0. -1.
          2   -1    0    0  501    0  0.00000000000E+00 -0.00000000000E+00 -0.29190275856E+04  0.29190275856E+04  0.25500000000E-02 0.  1.
    5000001    1    1    2    0    0 -0.68249174464E+02 -0.17456868836E+03 -0.12777334649E+04  0.12976378479E+04  0.12700000000E+03 0.  0.
   -5000001    1    1    2    0    0  0.68249174464E+02  0.17456868836E+03 -0.16234862530E+04  0.16391976056E+04  0.12700000000E+03 0.  0.
<mgrwt>
<rscale>  0 0.45598973E+03</rscale>
<asrwt>0</asrwt>
<pdfrwt beam="1">  1        2 0.41700364E+00 0.45598973E+03</pdfrwt>
<pdfrwt beam="2">  1       -2 0.25439830E-02 0.45598973E+03</pdfrwt>
<totfact> 0.16267288E+03</totfact>
</mgrwt>
</event>
<event>
 4    1  0.1399921E-004  0.5416478E+03  0.7818608E-02  0.1003446E+00
          2   -1    0    0  501    0  0.00000000000E+00  0.00000000000E+00  0.14083470775E+04  0.14083470775E+04  0.25500000000E-02 0.  1.
         -2   -1    0    0    0  501 -0.00000000000E+00 -0.00000000000E+00 -0.52079192892E+02  0.52079192954E+02  0.25500000000E-02 0. -1.
    5000001    1    1    2    0    0 -0.22925185637E+01  0.68317282741E+02  0.60082627748E+02  0.15624157232E+03  0.12700000000E+03 0.  0.
   -5000001    1    1    2    0    0  0.22925185637E+01 -0.68317282741E+02  0.12961852568E+04  0.13041846981E+04  0.12700000000E+03 0.  0.
<mgrwt>
<rscale>  0 0.54164778E+03</rscale>
<asrwt>0</asrwt>
<pdfrwt beam="1">  1        2 0.20119243E+00 0.54164778E+03</pdfrwt>
<pdfrwt beam="2">  1       -2 0.74398852E-02 0.54164778E+03</pdfrwt>
<totfact> 0.18312762E+03</totfact>
</mgrwt>
</event>
<event>
 4    1  0.1399921E-004  0.4221097E+03  0.7818608E-02  0.1036382E+00
          2   -1    0    0  501    0  0.00000000000E+00  0.00000000000E+00  0.50394970443E+03  0.50394970443E+03  0.25500000000E-02 0.  1.
         -2   -1    0    0    0  501 -0.00000000000E+00 -0.00000000000E+00 -0.88390070722E+02  0.88390070759E+02  0.25500000000E-02 0. -1.
    5000001    1    1    2    0    0 -0.88769741075E+02  0.14311431868E+03  0.19752768828E+03  0.28897744338E+03  0.12700000000E+03 0.  0.
   -5000001    1    1    2    0    0  0.88769741075E+02 -0.14311431868E+03  0.21803194542E+03  0.30336233181E+03  0.12700000000E+03 0.  0.
<mgrwt>
<rscale>  0 0.42210970E+03</rscale>
<asrwt>0</asrwt>
<pdfrwt beam="1">  1        2 0.71992813E-01 0.42210970E+03</pdfrwt>
<pdfrwt beam="2">  1       -2 0.12627153E-01 0.42210970E+03</pdfrwt>
<totfact> 0.30741356E+03</totfact>
</mgrwt>
</event>
<event>
 4    1  0.1399921E-004  0.4817293E+03  0.7818608E-02  0.1018661E+00
          2   -1    0    0  501    0  0.00000000000E+00  0.00000000000E+00  0.65652341001E+02  0.65652341051E+02  0.25500000000E-02 0.  1.
         -2   -1    0    0    0  501 -0.00000000000E+00 -0.00000000000E+00 -0.88368166578E+03  0.88368166578E+03  0.25500000000E-02 0. -1.
    5000001    1    1    2    0    0  0.15823840632E+03 -0.10559934666E+03 -0.55774751411E+03  0.60282825477E+03  0.12700000000E+03 0.  0.
   -5000001    1    1    2    0    0 -0.15823840632E+03  0.10559934666E+03 -0.26028181067E+03  0.34650575206E+03  0.12700000000E+03 0.  0.
<mgrwt>
<rscale>  0 0.48172926E+03</rscale>
<asrwt>0</asrwt>
<pdfrwt beam="1">  1        2 0.93789064E-02 0.48172926E+03</pdfrwt>
<pdfrwt beam="2">  1       -2 0.12624023E+00 0.48172926E+03</pdfrwt>
<totfact> 0.34174852E+02</totfact>
</mgrwt>
</event>
<event>
 4    1  0.1399921E-004  0.3588420E+03  0.7818608E-02  0.1059043E+00
         -2   -1    0    0    0  501 -0.00000000000E+00  0.00000000000E+00  0.98687077926E+01  0.98687081220E+01  0.25500000000E-02 0. -1.
          2   -1    0    0  501    0  0.00000000000E+00 -0.00000000000E+00 -0.32620169705E+04  0.32620169705E+04  0.25500000000E-02 0.  1.
    5000001    1    1    2    0    0  0.33139029034E+01  0.10534561284E+03 -0.98430001952E+03  0.99804018382E+03  0.12700000000E+03 0.  0.
   -5000001    1    1    2    0    0 -0.33139029034E+01 -0.10534561284E+03 -0.22678482431E+04  0.22738454948E+04  0.12700000000E+03 0.  0.
<mgrwt>
<rscale>  0 0.35884199E+03</rscale>
<asrwt>0</asrwt>
<pdfrwt beam="1">  1        2 0.46600173E+00 0.35884199E+03</pdfrwt>
<pdfrwt beam="2">  1       -2 0.14098175E-02 0.35884199E+03</pdfrwt>
<totfact> 0.25653248E+03</totfact>
</mgrwt>
</event>
<event>
 4    1  0.1399921E-004  0.4401841E+03  0.7818608E-02  0.1030690E+00
          2   -1    0    0  501    0  0.00000000000E+00  0.00000000000E+00  0.13210808033E+04  0.13210808033E+04  0.25500000000E-02 0.  1.
         -2   -1    0    0    0  501 -0.00000000000E+00 -0.00000000000E+00 -0.36667341832E+02  0.36667341921E+02  0.25500000000E-02 0. -1.
    5000001    1    1    2    0    0  0.58490409322E+02 -0.15072126830E+03  0.39985267638E+03  0.44961004383E+03  0.12700000000E+03 0.  0.
   -5000001    1    1    2    0    0 -0.58490409322E+02  0.15072126830E+03  0.88456078510E+03  0.90813810141E+03  0.12700000000E+03 0.  0.
<mgrwt>
<rscale>  0 0.44018415E+03</rscale>
<asrwt>0</asrwt>
<pdfrwt beam="1">  1        2 0.18872581E+00 0.44018415E+03</pdfrwt>
<pdfrwt beam="2">  1       -2 0.52381921E-02 0.44018415E+03</pdfrwt>
<totfact> 0.35294503E+03</totfact>
</mgrwt>
</event>
<event>
 4    1  0.1399921E-004  0.3390906E+03  0.7818608E-02  0.1067184E+00
         -2   -1    0    0    0  501 -0.00000000000E+00  0.00000000000E+00  0.96226996627E+02  0.96226996661E+02  0.25500000000E-02 0. -1.
          2   -1    0    0  501    0  0.00000000000E+00 -0.00000000000E+00 -0.29872709528E+03  0.29872709529E+03  0.25500000000E-02 0.  1.
    5000001    1    1    2    0    0  0.35012673220E+02 -0.89658352468E+02 -0.33814395262E+02  0.16290156776E+03  0.12700000000E+03 0.  0.
   -5000001    1    1    2    0    0 -0.35012673220E+02  0.89658352468E+02 -0.16868570339E+03  0.23205252419E+03  0.12700000000E+03 0.  0.
<mgrwt>
<rscale>  0 0.33909061E+03</rscale>
<asrwt>0</asrwt>
<pdfrwt beam="1">  1        2 0.42675299E-01 0.33909061E+03</pdfrwt>
<pdfrwt beam="2">  1       -2 0.13746714E-01 0.33909061E+03</pdfrwt>
<totfact> 0.47231383E+03</totfact>
</mgrwt>
</event>
<event>
 4    1  0.1399921E-004  0.5228211E+03  0.7818608E-02  0.1007988E+00
          2   -1    0    0  501    0  0.00000000000E+00  0.00000000000E+00  0.47919336405E+03  0.47919336405E+03  0.25500000000E-02 0.  1.
         -2   -1    0    0    0  501 -0.00000000000E+00 -0.00000000000E+00 -0.14260520075E+03  0.14260520077E+03  0.25500000000E-02 0. -1.
    5000001    1    1    2    0    0  0.12226284961E+03 -0.15845737959E+03  0.37202076563E+02  0.23993736692E+03  0.12700000000E+03 0.  0.
   -5000001    1    1    2    0    0 -0.12226284961E+03  0.15845737959E+03  0.29938608673E+03  0.38186119791E+03  0.12700000000E+03 0.  0.
<mgrwt>
<rscale>  0 0.52282106E+03</rscale>
<asrwt>0</asrwt>
<pdfrwt beam="1">  1        2 0.68456194E-01 0.52282106E+03</pdfrwt>
<pdfrwt beam="2">  1       -2 0.20372172E-01 0.52282106E+03</pdfrwt>
<totfact> 0.14536043E+03</totfact>
</mgrwt>
</event>
<event>
 4    1  0.1399921E-004  0.2657937E+03  0.7818608E-02  0.1103711E+00
         -2   -1    0    0    0  501 -0.00000000000E+00  0.00000000000E+00  0.14931337128E+03  0.14931337130E+03  0.25500000000E-02 0. -1.
          2   -1    0    0  501    0  0.00000000000E+00 -0.00000000000E+00 -0.11828528578E+03  0.11828528581E+03  0.25500000000E-02 0.  1.
    5000001    1    1    2    0    0 -0.22691884028E+02  0.11173912599E+02  0.45596655469E+02  0.13728740989E+03  0.12700000000E+03 0.  0.
   -5000001    1    1    2    0    0  0.22691884028E+02 -0.11173912599E+02 -0.14568569971E+02  0.13031124723E+03  0.12700000000E+03 0.  0.
<mgrwt>
<rscale>  0 0.26579372E+03</rscale>
<asrwt>0</asrwt>
<pdfrwt beam="1">  1        2 0.16897898E-01 0.26579372E+03</pdfrwt>
<pdfrwt beam="2">  1       -2 0.21330482E-01 0.26579372E+03</pdfrwt>
<totfact> 0.62955447E+03</totfact>
</mgrwt>
</event>
<event>
 4    1  0.1399921E-004  0.4066516E+03  0.7818608E-02  0.1041500E+00
          2   -1    0    0  501    0  0.00000000000E+00  0.00000000000E+00  0.96502634250E+03  0.96502634250E+03  0.25500000000E-02 0.  1.
         -2   -1    0    0    0  501 -0.00000000000E+00 -0.00000000000E+00 -0.42839647202E+02  0.42839647278E+02  0.25500000000E-02 0. -1.
    5000001    1    1    2    0    0 -0.33038669948E+01  0.10317099959E+03  0.16206011807E+03  0.23032076017E+03  0.12700000000E+03 0.  0.
   -5000001    1    1    2    0    0  0.33038669948E+01 -0.10317099959E+03  0.76012657723E+03  0.77754522962E+03  0.12700000000E+03 0.  0.
<mgrwt>
<rscale>  0 0.40665164E+03</rscale>
<asrwt>0</asrwt>
<pdfrwt beam="1">  1        2 0.13786087E+00 0.40665164E+03</pdfrwt>
<pdfrwt beam="2">  1       -2 0.61199512E-02 0.40665164E+03</pdfrwt>
<totfact> 0.44139864E+03</totfact>
</mgrwt>
</event>
<event>
 4    1  0.1399921E-004  0.3022672E+03  0.7818608E-02  0.1084113E+00
         -2   -1    0    0    0  501 -0.00000000000E+00  0.00000000000E+00  0.10838544547E+02  0.10838544847E+02  0.25500000000E-02 0.  1.
          2   -1    0    0  501    0  0.00000000000E+00 -0.00000000000E+00 -0.21074203891E+04  0.21074203891E+04  0.25500000000E-02 0. -1.
    5000001    1    1    2    0    0  0.14911938577E+02 -0.28211029210E+02 -0.15771039219E+04  0.15825308871E+04  0.12700000000E+03 0.  0.
   -5000001    1    1    2    0    0 -0.14911938577E+02  0.28211029210E+02 -0.51947792267E+03  0.53572804689E+03  0.12700000000E+03 0.  0.
<mgrwt>
<rscale>  0 0.30226723E+03</rscale>
<asrwt>0</asrwt>
<pdfrwt beam="1">  1        2 0.30105979E+00 0.30226723E+03</pdfrwt>
<pdfrwt beam="2">  1       -2 0.15483649E-02 0.30226723E+03</pdfrwt>
<totfact> 0.88279697E+03</totfact>
</mgrwt>
</event>
<event>
 4    1  0.1399921E-004  0.3615995E+03  0.7818608E-02  0.1057952E+00
          2   -1    0    0  501    0  0.00000000000E+00  0.00000000000E+00  0.70526106720E+03  0.70526106721E+03  0.25500000000E-02 0.  1.
         -2   -1    0    0    0  501 -0.00000000000E+00 -0.00000000000E+00 -0.46349573033E+02  0.46349573103E+02  0.25500000000E-02 0. -1.
    5000001    1    1    2    0    0  0.70142149573E+02 -0.21253008495E+02  0.54931265844E+03  0.56854639937E+03  0.12700000000E+03 0.  0.
   -5000001    1    1    2    0    0 -0.70142149573E+02  0.21253008495E+02  0.10959883573E+03  0.18306424094E+03  0.12700000000E+03 0.  0.
<mgrwt>
<rscale>  0 0.36159950E+03</rscale>
<asrwt>0</asrwt>
<pdfrwt beam="1">  1        2 0.10075159E+00 0.36159950E+03</pdfrwt>
<pdfrwt beam="2">  1       -2 0.66213673E-02 0.36159950E+03</pdfrwt>
<totfact> 0.58106303E+03</totfact>
</mgrwt>
</event>
<event>
 4    1  0.1399921E-004  0.4669419E+03  0.7818608E-02  0.1022787E+00
         -2   -1    0    0    0  501 -0.00000000000E+00  0.00000000000E+00  0.52058980947E+02  0.52058981010E+02  0.25500000000E-02 0. -1.
          2   -1    0    0  501    0  0.00000000000E+00 -0.00000000000E+00 -0.10470563108E+04  0.10470563108E+04  0.25500000000E-02 0.  1.
    5000001    1    1    2    0    0  0.25048227109E+02 -0.14888377653E+03 -0.20363476718E+03  0.28353114644E+03  0.12700000000E+03 0.  0.
   -5000001    1    1    2    0    0 -0.25048227109E+02  0.14888377653E+03 -0.79136256267E+03  0.81558414537E+03  0.12700000000E+03 0.  0.
<mgrwt>
<rscale>  0 0.46694190E+03</rscale>
<asrwt>0</asrwt>
<pdfrwt beam="1">  1        2 0.14957946E+00 0.46694190E+03</pdfrwt>
<pdfrwt beam="2">  1       -2 0.74369979E-02 0.46694190E+03</pdfrwt>
<totfact> 0.29078546E+03</totfact>
</mgrwt>
</event>
<event>
 4    1  0.1399921E-004  0.3394019E+03  0.7818608E-02  0.1067051E+00
         -2   -1    0    0    0  501 -0.00000000000E+00  0.00000000000E+00  0.10667267699E+03  0.10667267702E+03  0.25500000000E-02 0. -1.
          2   -1    0    0  501    0  0.00000000000E+00 -0.00000000000E+00 -0.26996996661E+03  0.26996996662E+03  0.25500000000E-02 0.  1.
    5000001    1    1    2    0    0 -0.23123776472E+02  0.11009692138E+03 -0.77589734849E+02  0.18656153969E+03  0.12700000000E+03 0.  0.
   -5000001    1    1    2    0    0  0.23123776472E+02 -0.11009692138E+03 -0.85707554767E+02  0.19008110395E+03  0.12700000000E+03 0.  0.
<mgrwt>
<rscale>  0 0.33940194E+03</rscale>
<asrwt>0</asrwt>
<pdfrwt beam="1">  1        2 0.38567138E-01 0.33940194E+03</pdfrwt>
<pdfrwt beam="2">  1       -2 0.15238954E-01 0.33940194E+03</pdfrwt>
<totfact> 0.44453610E+03</totfact>
</mgrwt>
</event>
<event>
 4    1  0.1399921E-004  0.3031374E+03  0.7818608E-02  0.1083683E+00
          2   -1    0    0  501    0  0.00000000000E+00  0.00000000000E+00  0.59888762235E+03  0.59888762236E+03  0.25500000000E-02 0.  1.
         -2   -1    0    0    0  501 -0.00000000000E+00 -0.00000000000E+00 -0.38359565530E+02  0.38359565615E+02  0.25500000000E-02 0. -1.
    5000001    1    1    2    0    0 -0.18814994596E+02  0.73018556177E+02  0.20871737120E+03  0.25569054462E+03  0.12700000000E+03 0.  0.
   -5000001    1    1    2    0    0  0.18814994596E+02 -0.73018556177E+02  0.35181068562E+03  0.38155664335E+03  0.12700000000E+03 0.  0.
<mgrwt>
<rscale>  0 0.30313739E+03</rscale>
<asrwt>0</asrwt>
<pdfrwt beam="1">  1        2 0.85555370E-01 0.30313739E+03</pdfrwt>
<pdfrwt beam="2">  1       -2 0.54799383E-02 0.30313739E+03</pdfrwt>
<totfact> 0.93763393E+03</totfact>
</mgrwt>
</event>
<event>
 4    1  0.1399921E-004  0.3783213E+03  0.7818608E-02  0.1051556E+00
         -2   -1    0    0    0  501 -0.00000000000E+00  0.00000000000E+00  0.29713638912E+02  0.29713639021E+02  0.25500000000E-02 0. -1.
          2   -1    0    0  501    0  0.00000000000E+00 -0.00000000000E+00 -0.12042194840E+04  0.12042194840E+04  0.25500000000E-02 0.  1.
    5000001    1    1    2    0    0  0.30349766144E+02 -0.11923282418E+03 -0.36808961137E+03  0.40835834345E+03  0.12700000000E+03 0.  0.
   -5000001    1    1    2    0    0 -0.30349766144E+02  0.11923282418E+03 -0.80641623372E+03  0.82557477958E+03  0.12700000000E+03 0.  0.
<mgrwt>
<rscale>  0 0.37832125E+03</rscale>
<asrwt>0</asrwt>
<pdfrwt beam="1">  1        2 0.17203132E+00 0.37832125E+03</pdfrwt>
<pdfrwt beam="2">  1       -2 0.42448063E-02 0.37832125E+03</pdfrwt>
<totfact> 0.56295639E+03</totfact>
</mgrwt>
</event>
<event>
 4    1  0.1399921E-004  0.5034071E+03  0.7818608E-02  0.1012893E+00
         -2   -1    0    0    0  501 -0.00000000000E+00  0.00000000000E+00  0.23804078833E+03  0.23804078834E+03  0.25500000000E-02 0. -1.
          2   -1    0    0  501    0  0.00000000000E+00 -0.00000000000E+00 -0.26615049157E+03  0.26615049159E+03  0.25500000000E-02 0.  1.
    5000001    1    1    2    0    0  0.20785806230E+03 -0.42322320210E+02  0.33236496322E+02  0.24945904982E+03  0.12700000000E+03 0.  0.
   -5000001    1    1    2    0    0 -0.20785806230E+03  0.42322320210E+02 -0.61346199570E+02  0.25473223010E+03  0.12700000000E+03 0.  0.
<mgrwt>
<rscale>  0 0.50340708E+03</rscale>
<asrwt>0</asrwt>
<pdfrwt beam="1">  1        2 0.38021499E-01 0.50340708E+03</pdfrwt>
<pdfrwt beam="2">  1       -2 0.34005827E-01 0.50340708E+03</pdfrwt>
<totfact> 0.11035457E+03</totfact>
</mgrwt>
</event>
<event>
 4    1  0.1399921E-004  0.3715102E+03  0.7818608E-02  0.1054117E+00
         -2   -1    0    0    0  501 -0.00000000000E+00  0.00000000000E+00  0.39412710561E+02  0.39412710644E+02  0.25500000000E-02 0.  1.
          2   -1    0    0  501    0  0.00000000000E+00 -0.00000000000E+00 -0.87547800903E+03  0.87547800903E+03  0.25500000000E-02 0. -1.
    5000001    1    1    2    0    0  0.12479749589E+03  0.45003361766E+02 -0.34942104985E+03  0.39474521863E+03  0.12700000000E+03 0.  0.
   -5000001    1    1    2    0    0 -0.12479749589E+03 -0.45003361766E+02 -0.48664424862E+03  0.52014550105E+03  0.12700000000E+03 0.  0.
<mgrwt>
<rscale>  0 0.37151022E+03</rscale>
<asrwt>0</asrwt>
<pdfrwt beam="1">  1        2 0.12506827E+00 0.37151022E+03</pdfrwt>
<pdfrwt beam="2">  1       -2 0.56303878E-02 0.37151022E+03</pdfrwt>
<totfact> 0.57064405E+03</totfact>
</mgrwt>
</event>
<event>
 4    1  0.1399921E-004  0.1107164E+04  0.7818608E-02  0.9198238E-01
          2   -1    0    0  501    0  0.00000000000E+00  0.00000000000E+00  0.40527045457E+03  0.40527045457E+03  0.25500000000E-02 0.  1.
         -2   -1    0    0    0  501 -0.00000000000E+00 -0.00000000000E+00 -0.75616874294E+03  0.75616874294E+03  0.25500000000E-02 0. -1.
    5000001    1    1    2    0    0  0.49547123325E+01 -0.24922090333E+03  0.32565879387E+03  0.42932302274E+03  0.12700000000E+03 0.  0.
   -5000001    1    1    2    0    0 -0.49547123325E+01  0.24922090333E+03 -0.67655708224E+03  0.73211617477E+03  0.12700000000E+03 0.  0.
<mgrwt>
<rscale>  0 0.11071637E+04</rscale>
<asrwt>0</asrwt>
<pdfrwt beam="1">  1        2 0.57895779E-01 0.11071637E+04</pdfrwt>
<pdfrwt beam="2">  1       -2 0.10802411E+00 0.11071637E+04</pdfrwt>
<totfact> 0.58102497E+01</totfact>
</mgrwt>
</event>
<event>
 4    1  0.1399921E-004  0.4071069E+03  0.7818608E-02  0.1041346E+00
          2   -1    0    0  501    0  0.00000000000E+00  0.00000000000E+00  0.43493893037E+03  0.43493893038E+03  0.25500000000E-02 0.  1.
         -2   -1    0    0    0  501 -0.00000000000E+00 -0.00000000000E+00 -0.95263976323E+02  0.95263976357E+02  0.25500000000E-02 0. -1.
    5000001    1    1    2    0    0  0.51695077500E+02  0.14363187042E+03  0.22811776548E+03  0.30243877093E+03  0.12700000000E+03 0.  0.
   -5000001    1    1    2    0    0 -0.51695077500E+02 -0.14363187042E+03  0.11155718857E+03  0.22776413581E+03  0.12700000000E+03 0.  0.
<mgrwt>
<rscale>  0 0.40710692E+03</rscale>
<asrwt>0</asrwt>
<pdfrwt beam="1">  1        2 0.62134132E-01 0.40710692E+03</pdfrwt>
<pdfrwt beam="2">  1       -2 0.13609140E-01 0.40710692E+03</pdfrwt>
<totfact> 0.32004373E+03</totfact>
</mgrwt>
</event>
<event>
 4    1  0.1399921E-004  0.3027978E+03  0.7818608E-02  0.1083850E+00
          2   -1    0    0  501    0  0.00000000000E+00  0.00000000000E+00  0.20017655658E+04  0.20017655658E+04  0.25500000000E-02 0.  1.
         -2   -1    0    0    0  501 -0.00000000000E+00 -0.00000000000E+00 -0.11450705169E+02  0.11450705452E+02  0.25500000000E-02 0. -1.
    5000001    1    1    2    0    0  0.47142307533E+02 -0.30510571039E+02  0.59406103731E+03  0.61007442838E+03  0.12700000000E+03 0.  0.
   -5000001    1    1    2    0    0 -0.47142307533E+02  0.30510571039E+02  0.13962538233E+04  0.14031418429E+04  0.12700000000E+03 0.  0.
<mgrwt>
<rscale>  0 0.30279780E+03</rscale>
<asrwt>0</asrwt>
<pdfrwt beam="1">  1        2 0.28596671E+00 0.30279780E+03</pdfrwt>
<pdfrwt beam="2">  1       -2 0.16358139E-02 0.30279780E+03</pdfrwt>
<totfact> 0.91736962E+03</totfact>
</mgrwt>
</event>
<event>
 4    1  0.1399921E-004  0.5142778E+03  0.7818608E-02  0.1010118E+00
          2   -1    0    0  501    0  0.00000000000E+00  0.00000000000E+00  0.37528626315E+03  0.37528626316E+03  0.25500000000E-02 0.  1.
         -2   -1    0    0    0  501 -0.00000000000E+00 -0.00000000000E+00 -0.17618663679E+03  0.17618663680E+03  0.25500000000E-02 0. -1.
    5000001    1    1    2    0    0  0.18580817239E+03 -0.12398469019E+03  0.89123186042E+02  0.27197209897E+03  0.12700000000E+03 0.  0.
   -5000001    1    1    2    0    0 -0.18580817239E+03  0.12398469019E+03  0.10997644032E+03  0.27950080099E+03  0.12700000000E+03 0.  0.
<mgrwt>
<rscale>  0 0.51427784E+03</rscale>
<asrwt>0</asrwt>
<pdfrwt beam="1">  1        2 0.53612323E-01 0.51427784E+03</pdfrwt>
<pdfrwt beam="2">  1       -2 0.25169520E-01 0.51427784E+03</pdfrwt>
<totfact> 0.13133460E+03</totfact>
</mgrwt>
</event>
<event>
 4    1  0.1399921E-004  0.2959959E+03  0.7818608E-02  0.1087260E+00
          2   -1    0    0  501    0  0.00000000000E+00  0.00000000000E+00  0.50120416425E+03  0.50120416426E+03  0.25500000000E-02 0.  1.
         -2   -1    0    0    0  501 -0.00000000000E+00 -0.00000000000E+00 -0.43701530181E+02  0.43701530255E+02  0.25500000000E-02 0. -1.
    5000001    1    1    2    0    0 -0.67734229928E+02  0.34415691010E+02  0.23136985900E+03  0.27465137419E+03  0.12700000000E+03 0.  0.
   -5000001    1    1    2    0    0  0.67734229928E+02 -0.34415691010E+02  0.22613277508E+03  0.27025432033E+03  0.12700000000E+03 0.  0.
<mgrwt>
<rscale>  0 0.29599587E+03</rscale>
<asrwt>0</asrwt>
<pdfrwt beam="1">  1        2 0.71600591E-01 0.29599587E+03</pdfrwt>
<pdfrwt beam="2">  1       -2 0.62430760E-02 0.29599587E+03</pdfrwt>
<totfact> 0.93719102E+03</totfact>
</mgrwt>
</event>
<event>
 4    1  0.1399921E-004  0.4210031E+03  0.7818608E-02  0.1036740E+00
         -2   -1    0    0    0  501 -0.00000000000E+00  0.00000000000E+00  0.18682849854E+03  0.18682849856E+03  0.25500000000E-02 0. -1.
          2   -1    0    0  501    0  0.00000000000E+00 -0.00000000000E+00 -0.23717421943E+03  0.23717421944E+03  0.25500000000E-02 0.  1.
    5000001    1    1    2    0    0  0.12103993527E+03  0.13107194602E+02  0.91233698422E+02  0.19817934354E+03  0.12700000000E+03 0.  0.
   -5000001    1    1    2    0    0 -0.12103993527E+03 -0.13107194602E+02 -0.14157941931E+03  0.22582337446E+03  0.12700000000E+03 0.  0.
<mgrwt>
<rscale>  0 0.42100310E+03</rscale>
<asrwt>0</asrwt>
<pdfrwt beam="1">  1        2 0.33882031E-01 0.42100310E+03</pdfrwt>
<pdfrwt beam="2">  1       -2 0.26689786E-01 0.42100310E+03</pdfrwt>
<totfact> 0.19540491E+03</totfact>
</mgrwt>
</event>
<event>
 4    1  0.1399921E-004  0.4693769E+03  0.7818608E-02  0.1022096E+00
          2   -1    0    0  501    0  0.00000000000E+00  0.00000000000E+00  0.27895135850E+03  0.27895135851E+03  0.25500000000E-02 0.  1.
         -2   -1    0    0    0  501 -0.00000000000E+00 -0.00000000000E+00 -0.19744902631E+03  0.19744902633E+03  0.25500000000E-02 0. -1.
    5000001    1    1    2    0    0  0.14079478405E+03 -0.11078874867E+03 -0.43266445372E+02  0.22382650277E+03  0.12700000000E+03 0.  0.
   -5000001    1    1    2    0    0 -0.14079478405E+03  0.11078874867E+03  0.12476877756E+03  0.25257388206E+03  0.12700000000E+03 0.  0.
<mgrwt>
<rscale>  0 0.46937692E+03</rscale>
<asrwt>0</asrwt>
<pdfrwt beam="1">  1        2 0.39850194E-01 0.46937692E+03</pdfrwt>
<pdfrwt beam="2">  1       -2 0.28207004E-01 0.46937692E+03</pdfrwt>
<totfact> 0.14803280E+03</totfact>
</mgrwt>
</event>
<event>
 4    1  0.1399921E-004  0.3500940E+03  0.7818608E-02  0.1062576E+00
         -2   -1    0    0    0  501 -0.00000000000E+00  0.00000000000E+00  0.15862990144E+02  0.15862990349E+02  0.25500000000E-02 0. -1.
          2   -1    0    0  501    0  0.00000000000E+00 -0.00000000000E+00 -0.19316312476E+04  0.19316312476E+04  0.25500000000E-02 0.  1.
    5000001    1    1    2    0    0 -0.70636804221E+02 -0.96368416622E+02 -0.10433443347E+04  0.10578151212E+04  0.12700000000E+03 0.  0.
   -5000001    1    1    2    0    0  0.70636804221E+02  0.96368416622E+02 -0.87242392273E+03  0.88967911675E+03  0.12700000000E+03 0.  0.
<mgrwt>
<rscale>  0 0.35009397E+03</rscale>
<asrwt>0</asrwt>
<pdfrwt beam="1">  1        2 0.27594717E+00 0.35009397E+03</pdfrwt>
<pdfrwt beam="2">  1       -2 0.22661427E-02 0.35009397E+03</pdfrwt>
<totfact> 0.61411577E+03</totfact>
</mgrwt>
</event>
<event>
 4    1  0.1399921E-004  0.4635794E+03  0.7818608E-02  0.1023748E+00
         -2   -1    0    0    0  501 -0.00000000000E+00  0.00000000000E+00  0.38860986732E+02  0.38860986816E+02  0.25500000000E-02 0. -1.
          2   -1    0    0  501    0  0.00000000000E+00 -0.00000000000E+00 -0.13825295133E+04  0.13825295133E+04  0.25500000000E-02 0.  1.
    5000001    1    1    2    0    0 -0.38525879287E+02  0.14412269324E+03 -0.29205748788E+03  0.35168475984E+03  0.12700000000E+03 0.  0.
   -5000001    1    1    2    0    0  0.38525879287E+02 -0.14412269324E+03 -0.10516110387E+04  0.10697057402E+04  0.12700000000E+03 0.  0.
<mgrwt>
<rscale>  0 0.46357938E+03</rscale>
<asrwt>0</asrwt>
<pdfrwt beam="1">  1        2 0.19750419E+00 0.46357938E+03</pdfrwt>
<pdfrwt beam="2">  1       -2 0.55515704E-02 0.46357938E+03</pdfrwt>
<totfact> 0.29924863E+03</totfact>
</mgrwt>
</event>
<event>
 4    1  0.1399921E-004  0.3009540E+03  0.7818608E-02  0.1084765E+00
          2   -1    0    0  501    0  0.00000000000E+00  0.00000000000E+00  0.52926812967E+02  0.52926813028E+02  0.25500000000E-02 0.  1.
         -2   -1    0    0    0  501 -0.00000000000E+00 -0.00000000000E+00 -0.42782338085E+03  0.42782338086E+03  0.25500000000E-02 0. -1.
    5000001    1    1    2    0    0 -0.50191139443E+02 -0.49158658621E+02 -0.12398012129E+03  0.19088162476E+03  0.12700000000E+03 0.  0.
   -5000001    1    1    2    0    0  0.50191139443E+02  0.49158658621E+02 -0.25091644659E+03  0.28986856912E+03  0.12700000000E+03 0.  0.
<mgrwt>
<rscale>  0 0.30095400E+03</rscale>
<asrwt>0</asrwt>
<pdfrwt beam="1">  1        2 0.75609735E-02 0.30095400E+03</pdfrwt>
<pdfrwt beam="2">  1       -2 0.61117624E-01 0.30095400E+03</pdfrwt>
<totfact> 0.23289797E+03</totfact>
</mgrwt>
</event>
<event>
 4    1  0.1399921E-004  0.3358935E+03  0.7818608E-02  0.1068559E+00
         -2   -1    0    0    0  501 -0.00000000000E+00  0.00000000000E+00  0.34895724288E+02  0.34895724381E+02  0.25500000000E-02 0. -1.
          2   -1    0    0  501    0  0.00000000000E+00 -0.00000000000E+00 -0.80829684515E+03  0.80829684516E+03  0.25500000000E-02 0.  1.
    5000001    1    1    2    0    0 -0.77380333431E+02  0.22994745941E+02 -0.57389252668E+03  0.59329428323E+03  0.12700000000E+03 0.  0.
   -5000001    1    1    2    0    0  0.77380333431E+02 -0.22994745941E+02 -0.19950859419E+03  0.24989828630E+03  0.12700000000E+03 0.  0.
<mgrwt>
<rscale>  0 0.33589346E+03</rscale>
<asrwt>0</asrwt>
<pdfrwt beam="1">  1        2 0.11547097E+00 0.33589346E+03</pdfrwt>
<pdfrwt beam="2">  1       -2 0.49851040E-02 0.33589346E+03</pdfrwt>
<totfact> 0.75984757E+03</totfact>
</mgrwt>
</event>
<event>
 4    1  0.1399921E-004  0.4768016E+03  0.7818608E-02  0.1020018E+00
          2   -1    0    0  501    0  0.00000000000E+00  0.00000000000E+00  0.80561561544E+03  0.80561561545E+03  0.25500000000E-02 0.  1.
         -2   -1    0    0    0  501 -0.00000000000E+00 -0.00000000000E+00 -0.70548455214E+02  0.70548455260E+02  0.25500000000E-02 0. -1.
    5000001    1    1    2    0    0  0.63440425821E+02 -0.17350514125E+03  0.21850526600E+03  0.31305314715E+03  0.12700000000E+03 0.  0.
   -5000001    1    1    2    0    0 -0.63440425821E+02  0.17350514125E+03  0.51656189423E+03  0.56311092356E+03  0.12700000000E+03 0.  0.
<mgrwt>
<rscale>  0 0.47680158E+03</rscale>
<asrwt>0</asrwt>
<pdfrwt beam="1">  1        2 0.11508795E+00 0.47680158E+03</pdfrwt>
<pdfrwt beam="2">  1       -2 0.10078351E-01 0.47680158E+03</pdfrwt>
<totfact> 0.25453498E+03</totfact>
</mgrwt>
</event>
<event>
 4    1  0.1399921E-004  0.3482060E+03  0.7818608E-02  0.1063354E+00
         -2   -1    0    0    0  501 -0.00000000000E+00  0.00000000000E+00  0.42508616854E+03  0.42508616855E+03  0.25500000000E-02 0. -1.
          2   -1    0    0  501    0  0.00000000000E+00 -0.00000000000E+00 -0.71307560088E+02  0.71307560134E+02  0.25500000000E-02 0.  1.
    5000001    1    1    2    0    0 -0.27012962652E+02  0.10228931824E+03  0.98936913433E+02  0.19264038418E+03  0.12700000000E+03 0.  0.
   -5000001    1    1    2    0    0  0.27012962652E+02 -0.10228931824E+03  0.25484169502E+03  0.30375334450E+03  0.12700000000E+03 0.  0.
<mgrwt>
<rscale>  0 0.34820602E+03</rscale>
<asrwt>0</asrwt>
<pdfrwt beam="1">  1        2 0.10186794E-01 0.34820602E+03</pdfrwt>
<pdfrwt beam="2">  1       -2 0.60726595E-01 0.34820602E+03</pdfrwt>
<totfact> 0.16238293E+03</totfact>
</mgrwt>
</event>
<event>
 4    1  0.1399921E-004  0.5755543E+03  0.7818608E-02  0.9957462E-01
         -2   -1    0    0    0  501 -0.00000000000E+00  0.00000000000E+00  0.49082452884E+02  0.49082452951E+02  0.25500000000E-02 0. -1.
          2   -1    0    0  501    0  0.00000000000E+00 -0.00000000000E+00 -0.16872771051E+04  0.16872771051E+04  0.25500000000E-02 0.  1.
    5000001    1    1    2    0    0 -0.12015405616E+03 -0.21126481910E+03 -0.55580279889E+03  0.61977058034E+03  0.12700000000E+03 0.  0.
   -5000001    1    1    2    0    0  0.12015405616E+03  0.21126481910E+03 -0.10823918533E+04  0.11165889777E+04  0.12700000000E+03 0.  0.
<mgrwt>
<rscale>  0 0.57555434E+03</rscale>
<asrwt>0</asrwt>
<pdfrwt beam="1">  1        2 0.24103955E+00 0.57555434E+03</pdfrwt>
<pdfrwt beam="2">  1       -2 0.70117800E-02 0.57555434E+03</pdfrwt>
<totfact> 0.14414594E+03</totfact>
</mgrwt>
</event>
<event>
 4    1  0.1399921E-004  0.3703019E+03  0.7818608E-02  0.1054578E+00
          2   -1    0    0  501    0  0.00000000000E+00  0.00000000000E+00  0.13898850221E+04  0.13898850221E+04  0.25500000000E-02 0.  1.
         -2   -1    0    0    0  501 -0.00000000000E+00 -0.00000000000E+00 -0.24664539128E+02  0.24664539260E+02  0.25500000000E-02 0. -1.
    5000001    1    1    2    0    0  0.44511396258E+02 -0.11572554469E+03  0.48126351504E+03  0.51294954625E+03  0.12700000000E+03 0.  0.
   -5000001    1    1    2    0    0 -0.44511396258E+02  0.11572554469E+03  0.88395696790E+03  0.90160001508E+03  0.12700000000E+03 0.  0.
<mgrwt>
<rscale>  0 0.37030190E+03</rscale>
<asrwt>0</asrwt>
<pdfrwt beam="1">  1        2 0.19855505E+00 0.37030190E+03</pdfrwt>
<pdfrwt beam="2">  1       -2 0.35235047E-02 0.37030190E+03</pdfrwt>
<totfact> 0.59384604E+03</totfact>
</mgrwt>
</event>
<event>
 4    1  0.1399921E-004  0.3554632E+03  0.7818608E-02  0.1060395E+00
          2   -1    0    0  501    0  0.00000000000E+00  0.00000000000E+00  0.67666523396E+03  0.67666523397E+03  0.25500000000E-02 0.  1.
         -2   -1    0    0    0  501 -0.00000000000E+00 -0.00000000000E+00 -0.46682639822E+02  0.46682639891E+02  0.25500000000E-02 0. -1.
    5000001    1    1    2    0    0 -0.11072510613E+03 -0.43202886724E+02  0.38928714398E+03  0.42638013441E+03  0.12700000000E+03 0.  0.
   -5000001    1    1    2    0    0  0.11072510613E+03  0.43202886724E+02  0.24069545016E+03  0.29696773945E+03  0.12700000000E+03 0.  0.
<mgrwt>
<rscale>  0 0.35546319E+03</rscale>
<asrwt>0</asrwt>
<pdfrwt beam="1">  1        2 0.96666465E-01 0.35546319E+03</pdfrwt>
<pdfrwt beam="2">  1       -2 0.66689483E-02 0.35546319E+03</pdfrwt>
<totfact> 0.60354034E+03</totfact>
</mgrwt>
</event>
<event>
 4    1  0.1399921E-004  0.6318383E+03  0.7818608E-02  0.9841468E-01
          2   -1    0    0  501    0  0.00000000000E+00  0.00000000000E+00  0.60811763573E+03  0.60811763574E+03  0.25500000000E-02 0.  1.
         -2   -1    0    0    0  501 -0.00000000000E+00 -0.00000000000E+00 -0.16412104527E+03  0.16412104528E+03  0.25500000000E-02 0. -1.
    5000001    1    1    2    0    0  0.86626487256E+02 -0.27438951576E+03  0.25829909493E+03  0.40699038944E+03  0.12700000000E+03 0.  0.
   -5000001    1    1    2    0    0 -0.86626487256E+02  0.27438951576E+03  0.18569749554E+03  0.36524829158E+03  0.12700000000E+03 0.  0.
<mgrwt>
<rscale>  0 0.63183828E+03</rscale>
<asrwt>0</asrwt>
<pdfrwt beam="1">  1        2 0.86873947E-01 0.63183828E+03</pdfrwt>
<pdfrwt beam="2">  1       -2 0.23445864E-01 0.63183828E+03</pdfrwt>
<totfact> 0.86178074E+02</totfact>
</mgrwt>
</event>
<event>
 4    1  0.1399921E-004  0.4572352E+03  0.7818608E-02  0.1025586E+00
         -2   -1    0    0    0  501 -0.00000000000E+00  0.00000000000E+00  0.17017245146E+03  0.17017245148E+03  0.25500000000E-02 0. -1.
          2   -1    0    0  501    0  0.00000000000E+00 -0.00000000000E+00 -0.30713554701E+03  0.30713554702E+03  0.25500000000E-02 0.  1.
    5000001    1    1    2    0    0  0.61635461662E+02 -0.15487414024E+03  0.26920205802E+02  0.21127855293E+03  0.12700000000E+03 0.  0.
   -5000001    1    1    2    0    0 -0.61635461662E+02  0.15487414024E+03 -0.16388330135E+03  0.26602944557E+03  0.12700000000E+03 0.  0.
<mgrwt>
<rscale>  0 0.45723521E+03</rscale>
<asrwt>0</asrwt>
<pdfrwt beam="1">  1        2 0.43876507E-01 0.45723521E+03</pdfrwt>
<pdfrwt beam="2">  1       -2 0.24310350E-01 0.45723521E+03</pdfrwt>
<totfact> 0.17401454E+03</totfact>
</mgrwt>
</event>
<event>
 4    1  0.1399921E-004  0.4278318E+03  0.7818608E-02  0.1034547E+00
         -2   -1    0    0    0  501 -0.00000000000E+00  0.00000000000E+00  0.28524438334E+03  0.28524438336E+03  0.25500000000E-02 0. -1.
          2   -1    0    0  501    0  0.00000000000E+00 -0.00000000000E+00 -0.16042386596E+03  0.16042386598E+03  0.25500000000E-02 0.  1.
    5000001    1    1    2    0    0 -0.10433076234E+03  0.13603494746E+03  0.78567942014E+02  0.22735948719E+03  0.12700000000E+03 0.  0.
   -5000001    1    1    2    0    0  0.10433076234E+03 -0.13603494746E+03  0.46252575372E+02  0.21830876215E+03  0.12700000000E+03 0.  0.
<mgrwt>
<rscale>  0 0.42783177E+03</rscale>
<asrwt>0</asrwt>
<pdfrwt beam="1">  1        2 0.22917695E-01 0.42783177E+03</pdfrwt>
<pdfrwt beam="2">  1       -2 0.40749198E-01 0.42783177E+03</pdfrwt>
<totfact> 0.13764537E+03</totfact>
</mgrwt>
</event>
<event>
 4    1  0.1399921E-004  0.3996428E+03  0.7818608E-02  0.1043903E+00
          2   -1    0    0  501    0  0.00000000000E+00  0.00000000000E+00  0.11923513625E+03  0.11923513628E+03  0.25500000000E-02 0.  1.
         -2   -1    0    0    0  501 -0.00000000000E+00 -0.00000000000E+00 -0.33487272678E+03  0.33487272679E+03  0.25500000000E-02 0. -1.
    5000001    1    1    2    0    0  0.65173755059E+02  0.13474517369E+03 -0.65368043195E+02  0.20689577389E+03  0.12700000000E+03 0.  0.
   -5000001    1    1    2    0    0 -0.65173755059E+02 -0.13474517369E+03 -0.15026954733E+03  0.24721208918E+03  0.12700000000E+03 0.  0.
<mgrwt>
<rscale>  0 0.39964282E+03</rscale>
<asrwt>0</asrwt>
<pdfrwt beam="1">  1        2 0.17033591E-01 0.39964282E+03</pdfrwt>
<pdfrwt beam="2">  1       -2 0.47838960E-01 0.39964282E+03</pdfrwt>
<totfact> 0.14169453E+03</totfact>
</mgrwt>
</event>
<event>
 4    1  0.1399921E-004  0.3474845E+03  0.7818608E-02  0.1063652E+00
          2   -1    0    0  501    0  0.00000000000E+00  0.00000000000E+00  0.13167364696E+03  0.13167364699E+03  0.25500000000E-02 0.  1.
         -2   -1    0    0    0  501 -0.00000000000E+00 -0.00000000000E+00 -0.22925140696E+03  0.22925140697E+03  0.25500000000E-02 0. -1.
    5000001    1    1    2    0    0  0.86872689315E+02  0.76066125093E+02 -0.76745559973E+02  0.18802074490E+03  0.12700000000E+03 0.  0.
   -5000001    1    1    2    0    0 -0.86872689315E+02 -0.76066125093E+02 -0.20832200024E+02  0.17290430907E+03  0.12700000000E+03 0.  0.
<mgrwt>
<rscale>  0 0.34748450E+03</rscale>
<asrwt>0</asrwt>
<pdfrwt beam="1">  1        2 0.18810521E-01 0.34748450E+03</pdfrwt>
<pdfrwt beam="2">  1       -2 0.32750201E-01 0.34748450E+03</pdfrwt>
<totfact> 0.26054744E+03</totfact>
</mgrwt>
</event>
<event>
 4    1  0.1399921E-004  0.4861904E+03  0.7818608E-02  0.1017448E+00
          2   -1    0    0  501    0  0.00000000000E+00  0.00000000000E+00  0.35381326357E+03  0.35381326358E+03  0.25500000000E-02 0.  1.
         -2   -1    0    0    0  501 -0.00000000000E+00 -0.00000000000E+00 -0.16702390331E+03  0.16702390333E+03  0.25500000000E-02 0. -1.
    5000001    1    1    2    0    0  0.20160604830E+03 -0.13385003043E+02  0.14297587927E+03  0.27820003427E+03  0.12700000000E+03 0.  0.
   -5000001    1    1    2    0    0 -0.20160604830E+03  0.13385003043E+02  0.43813480994E+02  0.24263713263E+03  0.12700000000E+03 0.  0.
<mgrwt>
<rscale>  0 0.48619038E+03</rscale>
<asrwt>0</asrwt>
<pdfrwt beam="1">  1        2 0.50544753E-01 0.48619038E+03</pdfrwt>
<pdfrwt beam="2">  1       -2 0.23860557E-01 0.48619038E+03</pdfrwt>
<totfact> 0.15411351E+03</totfact>
</mgrwt>
</event>
<event>
 4    1  0.1399921E-004  0.6090254E+03  0.7818608E-02  0.9886856E-01
         -2   -1    0    0    0  501 -0.00000000000E+00  0.00000000000E+00  0.13673648970E+04  0.13673648970E+04  0.25500000000E-02 0.  1.
          2   -1    0    0  501    0  0.00000000000E+00 -0.00000000000E+00 -0.67815096182E+02  0.67815096230E+02  0.25500000000E-02 0. -1.
    5000001    1    1    2    0    0  0.37413492613E+02 -0.26865396747E+03  0.77936756440E+03  0.83493564069E+03  0.12700000000E+03 0.  0.
   -5000001    1    1    2    0    0 -0.37413492613E+02  0.26865396747E+03  0.52018223642E+03  0.60024435254E+03  0.12700000000E+03 0.  0.
<mgrwt>
<rscale>  0 0.60902539E+03</rscale>
<asrwt>0</asrwt>
<pdfrwt beam="1">  1        2 0.96878712E-02 0.60902539E+03</pdfrwt>
<pdfrwt beam="2">  1       -2 0.19533784E+00 0.60902539E+03</pdfrwt>
<totfact> 0.10119622E+02</totfact>
</mgrwt>
</event>
<event>
 4    1  0.1399921E-004  0.3054134E+03  0.7818608E-02  0.1082565E+00
          2   -1    0    0  501    0  0.00000000000E+00  0.00000000000E+00  0.19687205621E+03  0.19687205623E+03  0.25500000000E-02 0.  1.
         -2   -1    0    0    0  501 -0.00000000000E+00 -0.00000000000E+00 -0.11844920362E+03  0.11844920364E+03  0.25500000000E-02 0. -1.
    5000001    1    1    2    0    0  0.82337663117E+02 -0.52763873871E+00  0.60131262573E+02  0.16286355611E+03  0.12700000000E+03 0.  0.
   -5000001    1    1    2    0    0 -0.82337663117E+02  0.52763873871E+00  0.18291590023E+02  0.15245770376E+03  0.12700000000E+03 0.  0.
<mgrwt>
<rscale>  0 0.30541341E+03</rscale>
<asrwt>0</asrwt>
<pdfrwt beam="1">  1        2 0.28124580E-01 0.30541341E+03</pdfrwt>
<pdfrwt beam="2">  1       -2 0.16921315E-01 0.30541341E+03</pdfrwt>
<totfact> 0.52587208E+03</totfact>
</mgrwt>
</event>
<event>
 4    1  0.1399921E-004  0.4109872E+03  0.7818608E-02  0.1040040E+00
          2   -1    0    0  501    0  0.00000000000E+00  0.00000000000E+00  0.72430396109E+03  0.72430396110E+03  0.25500000000E-02 0. -1.
         -2   -1    0    0    0  501 -0.00000000000E+00 -0.00000000000E+00 -0.58300957756E+02  0.58300957811E+02  0.25500000000E-02 0.  1.
    5000001    1    1    2    0    0  0.28500293670E+02  0.12452100616E+03  0.14467866892E+03  0.23103823267E+03  0.12700000000E+03 0.  0.
   -5000001    1    1    2    0    0 -0.28500293670E+02 -0.12452100616E+03  0.52132433441E+03  0.55156668624E+03  0.12700000000E+03 0.  0.
<mgrwt>
<rscale>  0 0.41098718E+03</rscale>
<asrwt>0</asrwt>
<pdfrwt beam="1">  1        2 0.10347199E+00 0.41098718E+03</pdfrwt>
<pdfrwt beam="2">  1       -2 0.83287082E-02 0.41098718E+03</pdfrwt>
<totfact> 0.39350936E+03</totfact>
</mgrwt>
</event>
<event>
 4    1  0.1399921E-004  0.1134077E+04  0.7818608E-02  0.9172600E-01
          2   -1    0    0  501    0  0.00000000000E+00  0.00000000000E+00  0.41242873294E+03  0.41242873295E+03  0.25500000000E-02 0.  1.
         -2   -1    0    0    0  501 -0.00000000000E+00 -0.00000000000E+00 -0.77960812979E+03  0.77960812979E+03  0.25500000000E-02 0. -1.
    5000001    1    1    2    0    0 -0.41222869706E+03  0.50983105548E+02  0.19955587997E+03  0.47799929389E+03  0.12700000000E+03 0.  0.
   -5000001    1    1    2    0    0  0.41222869706E+03 -0.50983105548E+02 -0.56673527682E+03  0.71403756884E+03  0.12700000000E+03 0.  0.
<mgrwt>
<rscale>  0 0.11340772E+04</rscale>
<asrwt>0</asrwt>
<pdfrwt beam="1">  1        2 0.58918390E-01 0.11340772E+04</pdfrwt>
<pdfrwt beam="2">  1       -2 0.11137259E+00 0.11340772E+04</pdfrwt>
<totfact> 0.52823018E+01</totfact>
</mgrwt>
</event>
<event>
 4    1  0.1399921E-004  0.4078465E+03  0.7818608E-02  0.1041096E+00
          2   -1    0    0  501    0  0.00000000000E+00  0.00000000000E+00  0.37618819810E+03  0.37618819811E+03  0.25500000000E-02 0.  1.
         -2   -1    0    0    0  501 -0.00000000000E+00 -0.00000000000E+00 -0.11054227640E+03  0.11054227643E+03  0.25500000000E-02 0. -1.
    5000001    1    1    2    0    0  0.13664867762E+03  0.81693367909E+02  0.12036148738E+03  0.23656406130E+03  0.12700000000E+03 0.  0.
   -5000001    1    1    2    0    0 -0.13664867762E+03 -0.81693367909E+02  0.14528443432E+03  0.25016641324E+03  0.12700000000E+03 0.  0.
<mgrwt>
<rscale>  0 0.40784654E+03</rscale>
<asrwt>0</asrwt>
<pdfrwt beam="1">  1        2 0.53741171E-01 0.40784654E+03</pdfrwt>
<pdfrwt beam="2">  1       -2 0.15791754E-01 0.40784654E+03</pdfrwt>
<totfact> 0.29305363E+03</totfact>
</mgrwt>
</event>
<event>
 4    1  0.1399921E-004  0.3725338E+03  0.7818608E-02  0.1053728E+00
         -2   -1    0    0    0  501 -0.00000000000E+00  0.00000000000E+00  0.67407145322E+02  0.67407145370E+02  0.25500000000E-02 0. -1.
          2   -1    0    0  501    0  0.00000000000E+00 -0.00000000000E+00 -0.51471330616E+03  0.51471330617E+03  0.25500000000E-02 0.  1.
    5000001    1    1    2    0    0  0.10899726844E+02 -0.83100938815E+02 -0.39152717302E+03  0.42005606446E+03  0.12700000000E+03 0.  0.
   -5000001    1    1    2    0    0 -0.10899726844E+02  0.83100938815E+02 -0.55778987823E+02  0.16206438708E+03  0.12700000000E+03 0.  0.
<mgrwt>
<rscale>  0 0.37253378E+03</rscale>
<asrwt>0</asrwt>
<pdfrwt beam="1">  1        2 0.73530470E-01 0.37253378E+03</pdfrwt>
<pdfrwt beam="2">  1       -2 0.96295925E-02 0.37253378E+03</pdfrwt>
<totfact> 0.46435383E+03</totfact>
</mgrwt>
</event>
<event>
 4    1  0.1399921E-004  0.3786479E+03  0.7818608E-02  0.1051435E+00
         -2   -1    0    0    0  501 -0.00000000000E+00  0.00000000000E+00  0.65176108082E+02  0.65176108132E+02  0.25500000000E-02 0. -1.
          2   -1    0    0  501    0  0.00000000000E+00 -0.00000000000E+00 -0.54994929946E+03  0.54994929946E+03  0.25500000000E-02 0.  1.
    5000001    1    1    2    0    0  0.79199842073E+02  0.94917440209E+02 -0.13422866717E+03  0.22232469618E+03  0.12700000000E+03 0.  0.
   -5000001    1    1    2    0    0 -0.79199842073E+02 -0.94917440209E+02 -0.35054452421E+03  0.39280071142E+03  0.12700000000E+03 0.  0.
<mgrwt>
<rscale>  0 0.37864788E+03</rscale>
<asrwt>0</asrwt>
<pdfrwt beam="1">  1        2 0.78564183E-01 0.37864788E+03</pdfrwt>
<pdfrwt beam="2">  1       -2 0.93108729E-02 0.37864788E+03</pdfrwt>
<totfact> 0.45479506E+03</totfact>
</mgrwt>
</event>
<event>
 4    1  0.1399921E-004  0.3834234E+03  0.7818608E-02  0.1049676E+00
         -2   -1    0    0    0  501 -0.00000000000E+00  0.00000000000E+00  0.82787118204E+02  0.82787118243E+02  0.25500000000E-02 0. -1.
          2   -1    0    0  501    0  0.00000000000E+00 -0.00000000000E+00 -0.44395036046E+03  0.44395036047E+03  0.25500000000E-02 0.  1.
    5000001    1    1    2    0    0 -0.19970442496E+02  0.78953991804E+02 -0.34308138494E+03  0.37478845779E+03  0.12700000000E+03 0.  0.
   -5000001    1    1    2    0    0  0.19970442496E+02 -0.78953991804E+02 -0.18081857311E+02  0.15194902092E+03  0.12700000000E+03 0.  0.
<mgrwt>
<rscale>  0 0.38342337E+03</rscale>
<asrwt>0</asrwt>
<pdfrwt beam="1">  1        2 0.63421479E-01 0.38342337E+03</pdfrwt>
<pdfrwt beam="2">  1       -2 0.11826731E-01 0.38342337E+03</pdfrwt>
<totfact> 0.39335459E+03</totfact>
</mgrwt>
</event>
<event>
 4    1  0.1399921E-004  0.3356791E+03  0.7818608E-02  0.1068651E+00
          2   -1    0    0  501    0  0.00000000000E+00  0.00000000000E+00  0.15574755231E+04  0.15574755231E+04  0.25500000000E-02 0.  1.
         -2   -1    0    0    0  501 -0.00000000000E+00 -0.00000000000E+00 -0.18087037259E+02  0.18087037438E+02  0.25500000000E-02 0. -1.
    5000001    1    1    2    0    0  0.20354669195E+02  0.10782764577E+03  0.76999875485E+03  0.78807880077E+03  0.12700000000E+03 0.  0.
   -5000001    1    1    2    0    0 -0.20354669195E+02 -0.10782764577E+03  0.76938973099E+03  0.78748375977E+03  0.12700000000E+03 0.  0.
<mgrwt>
<rscale>  0 0.33567912E+03</rscale>
<asrwt>0</asrwt>
<pdfrwt beam="1">  1        2 0.22249649E+00 0.33567912E+03</pdfrwt>
<pdfrwt beam="2">  1       -2 0.25838626E-02 0.33567912E+03</pdfrwt>
<totfact> 0.77482022E+03</totfact>
</mgrwt>
</event>
<event>
 4    1  0.1399921E-004  0.3158094E+03  0.7818608E-02  0.1077594E+00
          2   -1    0    0  501    0  0.00000000000E+00  0.00000000000E+00  0.68563921717E+03  0.68563921718E+03  0.25500000000E-02 0.  1.
         -2   -1    0    0    0  501 -0.00000000000E+00 -0.00000000000E+00 -0.36365909091E+02  0.36365909181E+02  0.25500000000E-02 0. -1.
    5000001    1    1    2    0    0  0.60126576986E+02 -0.55428413993E+02  0.42983636594E+03  0.45560489003E+03  0.12700000000E+03 0.  0.
   -5000001    1    1    2    0    0 -0.60126576986E+02  0.55428413993E+02  0.21943694214E+03  0.26640023633E+03  0.12700000000E+03 0.  0.
<mgrwt>
<rscale>  0 0.31580939E+03</rscale>
<asrwt>0</asrwt>
<pdfrwt beam="1">  1        2 0.97948453E-01 0.31580939E+03</pdfrwt>
<pdfrwt beam="2">  1       -2 0.51951302E-02 0.31580939E+03</pdfrwt>
<totfact> 0.87020617E+03</totfact>
</mgrwt>
</event>
<event>
 4    1  0.1399921E-004  0.4114423E+03  0.7818608E-02  0.1039888E+00
          2   -1    0    0  501    0  0.00000000000E+00  0.00000000000E+00  0.12387836374E+04  0.12387836374E+04  0.25500000000E-02 0. -1.
         -2   -1    0    0    0  501 -0.00000000000E+00 -0.00000000000E+00 -0.34163497228E+02  0.34163497323E+02  0.25500000000E-02 0.  1.
    5000001    1    1    2    0    0 -0.18385422743E+02 -0.54027300004E+02  0.10708567093E+04  0.10798703926E+04  0.12700000000E+03 0.  0.
   -5000001    1    1    2    0    0  0.18385422743E+02  0.54027300004E+02  0.13376343084E+03  0.19307674211E+03  0.12700000000E+03 0.  0.
<mgrwt>
<rscale>  0 0.41144225E+03</rscale>
<asrwt>0</asrwt>
<pdfrwt beam="1">  1        2 0.17696911E+00 0.41144225E+03</pdfrwt>
<pdfrwt beam="2">  1       -2 0.48804991E-02 0.41144225E+03</pdfrwt>
<totfact> 0.43579923E+03</totfact>
</mgrwt>
</event>
<event>
 4    1  0.1399921E-004  0.2980375E+03  0.7818608E-02  0.1086226E+00
          2   -1    0    0  501    0  0.00000000000E+00  0.00000000000E+00  0.73234079133E+03  0.73234079133E+03  0.25500000000E-02 0.  1.
         -2   -1    0    0    0  501 -0.00000000000E+00 -0.00000000000E+00 -0.30322747728E+02  0.30322747835E+02  0.25500000000E-02 0. -1.
    5000001    1    1    2    0    0 -0.71981314671E+02 -0.14568613892E+02  0.28408223551E+03  0.31972686891E+03  0.12700000000E+03 0.  0.
   -5000001    1    1    2    0    0  0.71981314671E+02  0.14568613892E+02  0.41793580809E+03  0.44293667026E+03  0.12700000000E+03 0.  0.
<mgrwt>
<rscale>  0 0.29803748E+03</rscale>
<asrwt>0</asrwt>
<pdfrwt beam="1">  1        2 0.10462011E+00 0.29803748E+03</pdfrwt>
<pdfrwt beam="2">  1       -2 0.43318212E-02 0.29803748E+03</pdfrwt>
<totfact> 0.10581373E+04</totfact>
</mgrwt>
</event>
<event>
 4    1  0.1399921E-004  0.3492081E+03  0.7818608E-02  0.1062941E+00
          2   -1    0    0  501    0  0.00000000000E+00  0.00000000000E+00  0.30932046703E+03  0.30932046704E+03  0.25500000000E-02 0.  1.
         -2   -1    0    0    0  501 -0.00000000000E+00 -0.00000000000E+00 -0.98559832651E+02  0.98559832684E+02  0.25500000000E-02 0. -1.
    5000001    1    1    2    0    0  0.87443566419E+02 -0.60007413507E+02  0.17052065705E+03  0.23759958220E+03  0.12700000000E+03 0.  0.
   -5000001    1    1    2    0    0 -0.87443566419E+02  0.60007413507E+02  0.40239977335E+02  0.17028071752E+03  0.12700000000E+03 0.  0.
<mgrwt>
<rscale>  0 0.34920810E+03</rscale>
<asrwt>0</asrwt>
<pdfrwt beam="1">  1        2 0.44188639E-01 0.34920810E+03</pdfrwt>
<pdfrwt beam="2">  1       -2 0.14079976E-01 0.34920810E+03</pdfrwt>
<totfact> 0.43752112E+03</totfact>
</mgrwt>
</event>
<event>
 4    1  0.1399921E-004  0.5673817E+03  0.7818608E-02  0.9975489E-01
         -2   -1    0    0    0  501 -0.00000000000E+00  0.00000000000E+00  0.82475527126E+02  0.82475527165E+02  0.25500000000E-02 0. -1.
          2   -1    0    0  501    0  0.00000000000E+00 -0.00000000000E+00 -0.97581065401E+03  0.97581065401E+03  0.25500000000E-02 0.  1.
    5000001    1    1    2    0    0  0.22305432956E+03 -0.75010143786E+02 -0.26999618337E+03  0.38000880863E+03  0.12700000000E+03 0.  0.
   -5000001    1    1    2    0    0 -0.22305432956E+03  0.75010143786E+02 -0.62333894351E+03  0.67827737254E+03  0.12700000000E+03 0.  0.
<mgrwt>
<rscale>  0 0.56738170E+03</rscale>
<asrwt>0</asrwt>
<pdfrwt beam="1">  1        2 0.13940151E+00 0.56738170E+03</pdfrwt>
<pdfrwt beam="2">  1       -2 0.11782219E-01 0.56738170E+03</pdfrwt>
<totfact> 0.15311369E+03</totfact>
</mgrwt>
</event>
<event>
 4    1  0.1399921E-004  0.4062027E+03  0.7818608E-02  0.1041653E+00
         -2   -1    0    0    0  501 -0.00000000000E+00  0.00000000000E+00  0.11870269250E+03  0.11870269253E+03  0.25500000000E-02 0.  1.
          2   -1    0    0  501    0  0.00000000000E+00 -0.00000000000E+00 -0.34750821177E+03  0.34750821178E+03  0.25500000000E-02 0. -1.
    5000001    1    1    2    0    0  0.13294231881E+03  0.77083411458E+02 -0.69867772551E+02  0.21124871146E+03  0.12700000000E+03 0.  0.
   -5000001    1    1    2    0    0 -0.13294231881E+03 -0.77083411458E+02 -0.15893774671E+03  0.25496219285E+03  0.12700000000E+03 0.  0.
<mgrwt>
<rscale>  0 0.40620271E+03</rscale>
<asrwt>0</asrwt>
<pdfrwt beam="1">  1        2 0.49644030E-01 0.40620271E+03</pdfrwt>
<pdfrwt beam="2">  1       -2 0.16957528E-01 0.40620271E+03</pdfrwt>
<totfact> 0.28343854E+03</totfact>
</mgrwt>
</event>
<event>
 4    1  0.1399921E-004  0.4420565E+03  0.7818608E-02  0.1030118E+00
         -2   -1    0    0    0  501 -0.00000000000E+00  0.00000000000E+00  0.52371406385E+02  0.52371406447E+02  0.25500000000E-02 0. -1.
          2   -1    0    0  501    0  0.00000000000E+00 -0.00000000000E+00 -0.93282745904E+03  0.93282745904E+03  0.25500000000E-02 0.  1.
    5000001    1    1    2    0    0  0.12213113582E+03  0.14847208736E+02 -0.14466183721E+03  0.22845678166E+03  0.12700000000E+03 0.  0.
   -5000001    1    1    2    0    0 -0.12213113582E+03 -0.14847208736E+02 -0.73579421545E+03  0.75674208383E+03  0.12700000000E+03 0.  0.
<mgrwt>
<rscale>  0 0.44205649E+03</rscale>
<asrwt>0</asrwt>
<pdfrwt beam="1">  1        2 0.13326106E+00 0.44205649E+03</pdfrwt>
<pdfrwt beam="2">  1       -2 0.74816301E-02 0.44205649E+03</pdfrwt>
<totfact> 0.33778886E+03</totfact>
</mgrwt>
</event>
<event>
 4    1  0.1399921E-004  0.1062913E+04  0.7818608E-02  0.9242113E-01
          2   -1    0    0  501    0  0.00000000000E+00  0.00000000000E+00  0.34634897721E+04  0.34634897721E+04  0.25500000000E-02 0.  1.
         -2   -1    0    0    0  501 -0.00000000000E+00 -0.00000000000E+00 -0.81549561792E+02  0.81549561832E+02  0.25500000000E-02 0. -1.
    5000001    1    1    2    0    0  0.39951620910E+03 -0.25113353135E+03  0.23876685956E+04  0.24371646588E+04  0.12700000000E+03 0.  0.
   -5000001    1    1    2    0    0 -0.39951620910E+03  0.25113353135E+03  0.99427161477E+03  0.11078746751E+04  0.12700000000E+03 0.  0.
<mgrwt>
<rscale>  0 0.10629131E+04</rscale>
<asrwt>0</asrwt>
<pdfrwt beam="1">  1        2 0.49478413E+00 0.10629131E+04</pdfrwt>
<pdfrwt beam="2">  1       -2 0.11649940E-01 0.10629131E+04</pdfrwt>
<totfact> 0.69356191E+01</totfact>
</mgrwt>
</event>
<event>
 4    1  0.1399921E-004  0.3921089E+03  0.7818608E-02  0.1046547E+00
          2   -1    0    0  501    0  0.00000000000E+00  0.00000000000E+00  0.24314645304E+04  0.24314645304E+04  0.25500000000E-02 0. -1.
         -2   -1    0    0    0  501 -0.00000000000E+00 -0.00000000000E+00 -0.15808312548E+02  0.15808312754E+02  0.25500000000E-02 0.  1.
    5000001    1    1    2    0    0 -0.10055630252E+03  0.10382094785E+03  0.97280389660E+03  0.99164851658E+03  0.12700000000E+03 0.  0.
   -5000001    1    1    2    0    0  0.10055630252E+03 -0.10382094785E+03  0.14428523213E+04  0.14556243266E+04  0.12700000000E+03 0.  0.
<mgrwt>
<rscale>  0 0.39210892E+03</rscale>
<asrwt>0</asrwt>
<pdfrwt beam="1">  1        2 0.34735221E+00 0.39210892E+03</pdfrwt>
<pdfrwt beam="2">  1       -2 0.22583295E-02 0.39210892E+03</pdfrwt>
<totfact> 0.34864337E+03</totfact>
</mgrwt>
</event>
<event>
 4    1  0.1399921E-004  0.4300056E+03  0.7818608E-02  0.1033858E+00
          2   -1    0    0  501    0  0.00000000000E+00  0.00000000000E+00  0.85557640101E+03  0.85557640101E+03  0.25500000000E-02 0.  1.
         -2   -1    0    0    0  501 -0.00000000000E+00 -0.00000000000E+00 -0.54029311112E+02  0.54029311172E+02  0.25500000000E-02 0. -1.
    5000001    1    1    2    0    0 -0.87621903255E+02  0.14441344833E+03  0.48443928210E+03  0.52852933696E+03  0.12700000000E+03 0.  0.
   -5000001    1    1    2    0    0  0.87621903255E+02 -0.14441344833E+03  0.31710780780E+03  0.38107637523E+03  0.12700000000E+03 0.  0.
<mgrwt>
<rscale>  0 0.43000560E+03</rscale>
<asrwt>0</asrwt>
<pdfrwt beam="1">  1        2 0.12222521E+00 0.43000560E+03</pdfrwt>
<pdfrwt beam="2">  1       -2 0.77184724E-02 0.43000560E+03</pdfrwt>
<totfact> 0.36031123E+03</totfact>
</mgrwt>
</event>
<event>
 4    1  0.1399921E-004  0.2947783E+03  0.7818608E-02  0.1087880E+00
          2   -1    0    0  501    0  0.00000000000E+00  0.00000000000E+00  0.48145876415E+03  0.48145876415E+03  0.25500000000E-02 0.  1.
         -2   -1    0    0    0  501 -0.00000000000E+00 -0.00000000000E+00 -0.45120281045E+02  0.45120281117E+02  0.25500000000E-02 0. -1.
    5000001    1    1    2    0    0 -0.59812655673E+02  0.20058329774E+02  0.14638828105E+03  0.20380976228E+03  0.12700000000E+03 0.  0.
   -5000001    1    1    2    0    0  0.59812655673E+02 -0.20058329774E+02  0.28995020205E+03  0.32276928299E+03  0.12700000000E+03 0.  0.
<mgrwt>
<rscale>  0 0.29477825E+03</rscale>
<asrwt>0</asrwt>
<pdfrwt beam="1">  1        2 0.68779830E-01 0.29477825E+03</pdfrwt>
<pdfrwt beam="2">  1       -2 0.64457539E-02 0.29477825E+03</pdfrwt>
<totfact> 0.93255054E+03</totfact>
</mgrwt>
</event>
<event>
 4    1  0.1399921E-004  0.3229702E+03  0.7818608E-02  0.1074290E+00
         -2   -1    0    0    0  501 -0.00000000000E+00  0.00000000000E+00  0.97863846772E+01  0.97863850094E+01  0.25500000000E-02 0. -1.
          2   -1    0    0  501    0  0.00000000000E+00 -0.00000000000E+00 -0.26646647228E+04  0.26646647228E+04  0.25500000000E-02 0.  1.
    5000001    1    1    2    0    0  0.11602851221E+02 -0.66051708804E+02 -0.71606155481E+03  0.73032226083E+03  0.12700000000E+03 0.  0.
   -5000001    1    1    2    0    0 -0.11602851221E+02  0.66051708804E+02 -0.19388167833E+04  0.19441288470E+04  0.12700000000E+03 0.  0.
<mgrwt>
<rscale>  0 0.32297018E+03</rscale>
<asrwt>0</asrwt>
<pdfrwt beam="1">  1        2 0.38066592E+00 0.32297018E+03</pdfrwt>
<pdfrwt beam="2">  1       -2 0.13980567E-02 0.32297018E+03</pdfrwt>
<totfact> 0.54128575E+03</totfact>
</mgrwt>
</event>
<event>
 4    1  0.1399921E-004  0.4255977E+03  0.7818608E-02  0.1035260E+00
          2   -1    0    0  501    0  0.00000000000E+00  0.00000000000E+00  0.29507893617E+03  0.29507893618E+03  0.25500000000E-02 0.  1.
         -2   -1    0    0    0  501 -0.00000000000E+00 -0.00000000000E+00 -0.15346183491E+03  0.15346183493E+03  0.25500000000E-02 0. -1.
    5000001    1    1    2    0    0 -0.11276002027E+03  0.87119003982E+02  0.16995328499E+03  0.25557320303E+03  0.12700000000E+03 0.  0.
   -5000001    1    1    2    0    0  0.11276002027E+03 -0.87119003982E+02 -0.28336183733E+02  0.19296756809E+03  0.12700000000E+03 0.  0.
<mgrwt>
<rscale>  0 0.42559772E+03</rscale>
<asrwt>0</asrwt>
<pdfrwt beam="1">  1        2 0.42154134E-01 0.42559772E+03</pdfrwt>
<pdfrwt beam="2">  1       -2 0.21923119E-01 0.42559772E+03</pdfrwt>
<totfact> 0.21799706E+03</totfact>
</mgrwt>
</event>
<event>
 4    1  0.1399921E-004  0.3012496E+03  0.7818608E-02  0.1084618E+00
         -2   -1    0    0    0  501 -0.00000000000E+00  0.00000000000E+00  0.13558383851E+03  0.13558383854E+03  0.25500000000E-02 0. -1.
          2   -1    0    0  501    0  0.00000000000E+00 -0.00000000000E+00 -0.16733430203E+03  0.16733430205E+03  0.25500000000E-02 0.  1.
    5000001    1    1    2    0    0 -0.75724578949E+02 -0.28578611280E+02 -0.13052888139E+02  0.15116324543E+03  0.12700000000E+03 0.  0.
   -5000001    1    1    2    0    0  0.75724578949E+02  0.28578611280E+02 -0.18697575383E+02  0.15175489516E+03  0.12700000000E+03 0.  0.
<mgrwt>
<rscale>  0 0.30124958E+03</rscale>
<asrwt>0</asrwt>
<pdfrwt beam="1">  1        2 0.23904900E-01 0.30124958E+03</pdfrwt>
<pdfrwt beam="2">  1       -2 0.19369120E-01 0.30124958E+03</pdfrwt>
<totfact> 0.50143643E+03</totfact>
</mgrwt>
</event>
<event>
 4    1  0.1399921E-004  0.2592881E+03  0.7818608E-02  0.1107572E+00
          2   -1    0    0  501    0  0.00000000000E+00  0.00000000000E+00  0.17916231507E+04  0.17916231507E+04  0.25500000000E-02 0.  1.
         -2   -1    0    0    0  501 -0.00000000000E+00 -0.00000000000E+00 -0.93812009460E+01  0.93812012926E+01  0.25500000000E-02 0. -1.
    5000001    1    1    2    0    0 -0.24653953172E+02  0.62690126585E+01  0.85216214236E+03  0.86194920663E+03  0.12700000000E+03 0.  0.
   -5000001    1    1    2    0    0  0.24653953172E+02 -0.62690126585E+01  0.93007980742E+03  0.93905514540E+03  0.12700000000E+03 0.  0.
<mgrwt>
<rscale>  0 0.25928808E+03</rscale>
<asrwt>0</asrwt>
<pdfrwt beam="1">  1        2 0.25594614E+00 0.25928808E+03</pdfrwt>
<pdfrwt beam="2">  1       -2 0.13401717E-02 0.25928808E+03</pdfrwt>
<totfact> 0.15508245E+04</totfact>
</mgrwt>
</event>
<event>
 4    1  0.1399921E-004  0.3401426E+03  0.7818608E-02  0.1066735E+00
          2   -1    0    0  501    0  0.00000000000E+00  0.00000000000E+00  0.29891899015E+03  0.29891899016E+03  0.25500000000E-02 0.  1.
         -2   -1    0    0    0  501 -0.00000000000E+00 -0.00000000000E+00 -0.96762845101E+02  0.96762845134E+02  0.25500000000E-02 0. -1.
    5000001    1    1    2    0    0 -0.98939432046E+02  0.24674167927E+02  0.15803645808E+03  0.22694128725E+03  0.12700000000E+03 0.  0.
   -5000001    1    1    2    0    0  0.98939432046E+02 -0.24674167927E+02  0.44119686968E+02  0.16874054805E+03  0.12700000000E+03 0.  0.
<mgrwt>
<rscale>  0 0.34014263E+03</rscale>
<asrwt>0</asrwt>
<pdfrwt beam="1">  1        2 0.42702714E-01 0.34014263E+03</pdfrwt>
<pdfrwt beam="2">  1       -2 0.13823263E-01 0.34014263E+03</pdfrwt>
<totfact> 0.46772840E+03</totfact>
</mgrwt>
</event>
<event>
 4    1  0.1399921E-004  0.4608458E+03  0.7818608E-02  0.1024536E+00
          2   -1    0    0  501    0  0.00000000000E+00  0.00000000000E+00  0.28285841006E+04  0.28285841006E+04  0.25500000000E-02 0. -1.
         -2   -1    0    0    0  501 -0.00000000000E+00 -0.00000000000E+00 -0.18770770095E+02  0.18770770269E+02  0.25500000000E-02 0.  1.
    5000001    1    1    2    0    0 -0.17170792939E+02 -0.19020055796E+03  0.15423169016E+04  0.15592759581E+04  0.12700000000E+03 0.  0.
   -5000001    1    1    2    0    0  0.17170792939E+02  0.19020055796E+03  0.12674964289E+04  0.12880789128E+04  0.12700000000E+03 0.  0.
<mgrwt>
<rscale>  0 0.46084575E+03</rscale>
<asrwt>0</asrwt>
<pdfrwt beam="1">  1        2 0.40408356E+00 0.46084575E+03</pdfrwt>
<pdfrwt beam="2">  1       -2 0.26815378E-02 0.46084575E+03</pdfrwt>
<totfact> 0.16775687E+03</totfact>
</mgrwt>
</event>
<event>
 4    1  0.1399921E-004  0.4085916E+03  0.7818608E-02  0.1040845E+00
         -2   -1    0    0    0  501 -0.00000000000E+00  0.00000000000E+00  0.72686370540E+02  0.72686370584E+02  0.25500000000E-02 0. -1.
          2   -1    0    0  501    0  0.00000000000E+00 -0.00000000000E+00 -0.57420354397E+03  0.57420354398E+03  0.25500000000E-02 0.  1.
    5000001    1    1    2    0    0  0.90571257936E+02 -0.11054579379E+03 -0.36475305342E+03  0.41182194607E+03  0.12700000000E+03 0.  0.
   -5000001    1    1    2    0    0 -0.90571257936E+02  0.11054579379E+03 -0.13676412002E+03  0.23506796849E+03  0.12700000000E+03 0.  0.
<mgrwt>
<rscale>  0 0.40859159E+03</rscale>
<asrwt>0</asrwt>
<pdfrwt beam="1">  1        2 0.82029075E-01 0.40859159E+03</pdfrwt>
<pdfrwt beam="2">  1       -2 0.10383768E-01 0.40859159E+03</pdfrwt>
<totfact> 0.36402077E+03</totfact>
</mgrwt>
</event>
<event>
 4    1  0.1399921E-004  0.5734080E+03  0.7818608E-02  0.9962166E-01
         -2   -1    0    0    0  501 -0.00000000000E+00  0.00000000000E+00  0.42185980234E+03  0.42185980234E+03  0.25500000000E-02 0. -1.
          2   -1    0    0  501    0  0.00000000000E+00 -0.00000000000E+00 -0.19484950366E+03  0.19484950368E+03  0.25500000000E-02 0.  1.
    5000001    1    1    2    0    0  0.39227863848E+02 -0.24592529138E+03  0.45042011794E+02  0.28315341614E+03  0.12700000000E+03 0.  0.
   -5000001    1    1    2    0    0 -0.39227863848E+02  0.24592529138E+03  0.18196828688E+03  0.33355588988E+03  0.12700000000E+03 0.  0.
<mgrwt>
<rscale>  0 0.57340796E+03</rscale>
<asrwt>0</asrwt>
<pdfrwt beam="1">  1        2 0.27835643E-01 0.57340796E+03</pdfrwt>
<pdfrwt beam="2">  1       -2 0.60265687E-01 0.57340796E+03</pdfrwt>
<totfact> 0.50129674E+02</totfact>
</mgrwt>
</event>
<event>
 4    1  0.1399921E-004  0.1106018E+04  0.7818608E-02  0.9199347E-01
          2   -1    0    0  501    0  0.00000000000E+00  0.00000000000E+00  0.93293440727E+02  0.93293440762E+02  0.25500000000E-02 0.  1.
         -2   -1    0    0    0  501 -0.00000000000E+00 -0.00000000000E+00 -0.32780301576E+04  0.32780301576E+04  0.25500000000E-02 0. -1.
    5000001    1    1    2    0    0 -0.31366128534E+03  0.13901126132E+03 -0.28564646041E+04  0.28797962718E+04  0.12700000000E+03 0.  0.
   -5000001    1    1    2    0    0  0.31366128534E+03 -0.13901126132E+03 -0.32827211271E+03  0.49152732649E+03  0.12700000000E+03 0.  0.
<mgrwt>
<rscale>  0 0.11060176E+04</rscale>
<asrwt>0</asrwt>
<pdfrwt beam="1">  1        2 0.13327636E-01 0.11060176E+04</pdfrwt>
<pdfrwt beam="2">  1       -2 0.46828995E+00 0.11060176E+04</pdfrwt>
<totfact> 0.12438733E+00</totfact>
</mgrwt>
</event>
<event>
 4    1  0.1399921E-004  0.7039087E+03  0.7818608E-02  0.9710571E-01
         -2   -1    0    0    0  501 -0.00000000000E+00  0.00000000000E+00  0.15270299953E+04  0.15270299953E+04  0.25500000000E-02 0. -1.
          2   -1    0    0  501    0  0.00000000000E+00 -0.00000000000E+00 -0.81119460251E+02  0.81119460291E+02  0.25500000000E-02 0.  1.
    5000001    1    1    2    0    0  0.21537439866E+03 -0.17592159547E+03  0.11213432617E+04  0.11622711602E+04  0.12700000000E+03 0.  0.
   -5000001    1    1    2    0    0 -0.21537439866E+03  0.17592159547E+03  0.32456727339E+03  0.44587829540E+03  0.12700000000E+03 0.  0.
<mgrwt>
<rscale>  0 0.70390866E+03</rscale>
<asrwt>0</asrwt>
<pdfrwt beam="1">  1        2 0.11588494E-01 0.70390866E+03</pdfrwt>
<pdfrwt beam="2">  1       -2 0.21814714E+00 0.70390866E+03</pdfrwt>
<totfact> 0.57368848E+01</totfact>
</mgrwt>
</event>
<event>
 4    1  0.1399921E-004  0.3914432E+03  0.7818608E-02  0.1046784E+00
          2   -1    0    0  501    0  0.00000000000E+00  0.00000000000E+00  0.66432137667E+03  0.66432137668E+03  0.25500000000E-02 0.  1.
         -2   -1    0    0    0  501 -0.00000000000E+00 -0.00000000000E+00 -0.57663277827E+02  0.57663277883E+02  0.25500000000E-02 0. -1.
    5000001    1    1    2    0    0  0.13729535009E+03  0.48567675129E+02  0.24591118236E+03  0.31274613001E+03  0.12700000000E+03 0.  0.
   -5000001    1    1    2    0    0 -0.13729535009E+03 -0.48567675129E+02  0.36074691648E+03  0.40923852455E+03  0.12700000000E+03 0.  0.
<mgrwt>
<rscale>  0 0.39144322E+03</rscale>
<asrwt>0</asrwt>
<pdfrwt beam="1">  1        2 0.94903051E-01 0.39144322E+03</pdfrwt>
<pdfrwt beam="2">  1       -2 0.82376113E-02 0.39144322E+03</pdfrwt>
<totfact> 0.44391277E+03</totfact>
</mgrwt>
</event>
<event>
 4    1  0.1399921E-004  0.2891009E+03  0.7818608E-02  0.1090820E+00
          2   -1    0    0  501    0  0.00000000000E+00  0.00000000000E+00  0.13450204721E+04  0.13450204721E+04  0.25500000000E-02 0.  1.
         -2   -1    0    0    0  501 -0.00000000000E+00 -0.00000000000E+00 -0.15534951048E+02  0.15534951257E+02  0.25500000000E-02 0. -1.
    5000001    1    1    2    0    0 -0.12372622033E+00  0.67851234685E+02  0.72464648374E+03  0.73881346208E+03  0.12700000000E+03 0.  0.
   -5000001    1    1    2    0    0  0.12372622033E+00 -0.67851234685E+02  0.60483903732E+03  0.62174196128E+03  0.12700000000E+03 0.  0.
<mgrwt>
<rscale>  0 0.28910086E+03</rscale>
<asrwt>0</asrwt>
<pdfrwt beam="1">  1        2 0.19214586E+00 0.28910086E+03</pdfrwt>
<pdfrwt beam="2">  1       -2 0.22192778E-02 0.28910086E+03</pdfrwt>
<totfact> 0.12437402E+04</totfact>
</mgrwt>
</event>
<event>
 4    1  0.1399921E-004  0.4435211E+03  0.7818608E-02  0.1029672E+00
          2   -1    0    0  501    0  0.00000000000E+00  0.00000000000E+00  0.23781982000E+04  0.23781982000E+04  0.25500000000E-02 0.  1.
         -2   -1    0    0    0  501 -0.00000000000E+00 -0.00000000000E+00 -0.20678569749E+02  0.20678569906E+02  0.25500000000E-02 0. -1.
    5000001    1    1    2    0    0  0.17101130359E+03  0.22307786571E+02  0.86775974922E+03  0.89380002554E+03  0.12700000000E+03 0.  0.
   -5000001    1    1    2    0    0 -0.17101130359E+03 -0.22307786571E+02  0.14897598811E+04  0.15050767444E+04  0.12700000000E+03 0.  0.
<mgrwt>
<rscale>  0 0.44352108E+03</rscale>
<asrwt>0</asrwt>
<pdfrwt beam="1">  1        2 0.33974252E+00 0.44352108E+03</pdfrwt>
<pdfrwt beam="2">  1       -2 0.29540821E-02 0.44352108E+03</pdfrwt>
<totfact> 0.24730699E+03</totfact>
</mgrwt>
</event>
<event>
 4    1  0.1399921E-004  0.3855878E+03  0.7818608E-02  0.1048888E+00
         -2   -1    0    0    0  501 -0.00000000000E+00  0.00000000000E+00  0.16468692903E+02  0.16468693101E+02  0.25500000000E-02 0. -1.
          2   -1    0    0  501    0  0.00000000000E+00 -0.00000000000E+00 -0.22569790232E+04  0.22569790232E+04  0.25500000000E-02 0.  1.
    5000001    1    1    2    0    0  0.73413015970E+02 -0.85198913021E+02 -0.58012459710E+03  0.60441862467E+03  0.12700000000E+03 0.  0.
   -5000001    1    1    2    0    0 -0.73413015970E+02  0.85198913021E+02 -0.16603857331E+04  0.16690290916E+04  0.12700000000E+03 0.  0.
<mgrwt>
<rscale>  0 0.38558784E+03</rscale>
<asrwt>0</asrwt>
<pdfrwt beam="1">  1        2 0.32242538E+00 0.38558784E+03</pdfrwt>
<pdfrwt beam="2">  1       -2 0.23526719E-02 0.38558784E+03</pdfrwt>
<totfact> 0.40101969E+03</totfact>
</mgrwt>
</event>
<event>
 4    1  0.1399921E-004  0.3435477E+03  0.7818608E-02  0.1065295E+00
         -2   -1    0    0    0  501 -0.00000000000E+00  0.00000000000E+00  0.13701419427E+03  0.13701419429E+03  0.25500000000E-02 0. -1.
          2   -1    0    0  501    0  0.00000000000E+00 -0.00000000000E+00 -0.21535182152E+03  0.21535182154E+03  0.25500000000E-02 0.  1.
    5000001    1    1    2    0    0 -0.10418836198E+03 -0.34901811294E+02 -0.76205315389E+02  0.18441692248E+03  0.12700000000E+03 0.  0.
   -5000001    1    1    2    0    0  0.10418836198E+03  0.34901811294E+02 -0.21323118690E+01  0.16794909335E+03  0.12700000000E+03 0.  0.
<mgrwt>
<rscale>  0 0.34354770E+03</rscale>
<asrwt>0</asrwt>
<pdfrwt beam="1">  1        2 0.30764546E-01 0.34354770E+03</pdfrwt>
<pdfrwt beam="2">  1       -2 0.19573457E-01 0.34354770E+03</pdfrwt>
<totfact> 0.37327043E+03</totfact>
</mgrwt>
</event>
<event>
 4    1  0.1399921E-004  0.4329146E+03  0.7818608E-02  0.1032943E+00
          2   -1    0    0  501    0  0.00000000000E+00  0.00000000000E+00  0.46476867527E+03  0.46476867528E+03  0.25500000000E-02 0.  1.
         -2   -1    0    0    0  501 -0.00000000000E+00 -0.00000000000E+00 -0.10081093742E+03  0.10081093745E+03  0.25500000000E-02 0. -1.
    5000001    1    1    2    0    0  0.15514161147E+03  0.63216327387E+02  0.11460446420E+03  0.23943351243E+03  0.12700000000E+03 0.  0.
   -5000001    1    1    2    0    0 -0.15514161147E+03 -0.63216327387E+02  0.24935327365E+03  0.32614610030E+03  0.12700000000E+03 0.  0.
<mgrwt>
<rscale>  0 0.43291461E+03</rscale>
<asrwt>0</asrwt>
<pdfrwt beam="1">  1        2 0.66395526E-01 0.43291461E+03</pdfrwt>
<pdfrwt beam="2">  1       -2 0.14401562E-01 0.43291461E+03</pdfrwt>
<totfact> 0.27094919E+03</totfact>
</mgrwt>
</event>
<event>
 4    1  0.1399921E-004  0.2970066E+03  0.7818608E-02  0.1086747E+00
         -2   -1    0    0    0  501 -0.00000000000E+00  0.00000000000E+00  0.92568800641E+01  0.92568804153E+01  0.25500000000E-02 0. -1.
          2   -1    0    0  501    0  0.00000000000E+00 -0.00000000000E+00 -0.23823608364E+04  0.23823608364E+04  0.25500000000E-02 0.  1.
    5000001    1    1    2    0    0  0.70911636077E+02  0.24389273132E+02 -0.13262402640E+04  0.13344158027E+04  0.12700000000E+03 0.  0.
   -5000001    1    1    2    0    0 -0.70911636077E+02 -0.24389273132E+02 -0.10468636924E+04  0.10572019141E+04  0.12700000000E+03 0.  0.
<mgrwt>
<rscale>  0 0.29700659E+03</rscale>
<asrwt>0</asrwt>
<pdfrwt beam="1">  1        2 0.34033687E+00 0.29700659E+03</pdfrwt>
<pdfrwt beam="2">  1       -2 0.13224130E-02 0.29700659E+03</pdfrwt>
<totfact> 0.81435747E+03</totfact>
</mgrwt>
</event>
<event>
 4    1  0.1399921E-004  0.2922946E+03  0.7818608E-02  0.1089157E+00
         -2   -1    0    0    0  501 -0.00000000000E+00  0.00000000000E+00  0.83051880191E+02  0.83051880231E+02  0.25500000000E-02 0. -1.
          2   -1    0    0  501    0  0.00000000000E+00 -0.00000000000E+00 -0.25717701463E+03  0.25717701464E+03  0.25500000000E-02 0.  1.
    5000001    1    1    2    0    0  0.27991299830E+02 -0.46580021715E+02 -0.14260374118E+03  0.19853976500E+03  0.12700000000E+03 0.  0.
   -5000001    1    1    2    0    0 -0.27991299830E+02  0.46580021715E+02 -0.31521393254E+02  0.14168912986E+03  0.12700000000E+03 0.  0.
<mgrwt>
<rscale>  0 0.29229461E+03</rscale>
<asrwt>0</asrwt>
<pdfrwt beam="1">  1        2 0.36739573E-01 0.29229461E+03</pdfrwt>
<pdfrwt beam="2">  1       -2 0.11864554E-01 0.29229461E+03</pdfrwt>
<totfact> 0.70293477E+03</totfact>
</mgrwt>
</event>
<event>
 4    1  0.1399921E-004  0.6928850E+03  0.7818608E-02  0.9729478E-01
          2   -1    0    0  501    0  0.00000000000E+00  0.00000000000E+00  0.43949689340E+03  0.43949689341E+03  0.25500000000E-02 0.  1.
         -2   -1    0    0    0  501 -0.00000000000E+00 -0.00000000000E+00 -0.27309042325E+03  0.27309042326E+03  0.25500000000E-02 0. -1.
    5000001    1    1    2    0    0 -0.21356568285E+03 -0.23719575341E+03  0.12944013643E+03  0.36709109938E+03  0.12700000000E+03 0.  0.
   -5000001    1    1    2    0    0  0.21356568285E+03  0.23719575341E+03  0.36966333725E+02  0.34549621728E+03  0.12700000000E+03 0.  0.
<mgrwt>
<rscale>  0 0.69288496E+03</rscale>
<asrwt>0</asrwt>
<pdfrwt beam="1">  1        2 0.62785271E-01 0.69288496E+03</pdfrwt>
<pdfrwt beam="2">  1       -2 0.39012917E-01 0.69288496E+03</pdfrwt>
<totfact> 0.48613674E+02</totfact>
</mgrwt>
</event>
<event>
 4    1  0.1399921E-004  0.4985567E+03  0.7818608E-02  0.1014156E+00
          2   -1    0    0  501    0  0.00000000000E+00  0.00000000000E+00  0.16668943324E+04  0.16668943324E+04  0.25500000000E-02 0.  1.
         -2   -1    0    0    0  501 -0.00000000000E+00 -0.00000000000E+00 -0.37278721875E+02  0.37278721963E+02  0.25500000000E-02 0. -1.
    5000001    1    1    2    0    0  0.19304622555E+03  0.69146975192E+02  0.10299799436E+04  0.10578449006E+04  0.12700000000E+03 0.  0.
   -5000001    1    1    2    0    0 -0.19304622555E+03 -0.69146975192E+02  0.59963566687E+03  0.64632815377E+03  0.12700000000E+03 0.  0.
<mgrwt>
<rscale>  0 0.49855668E+03</rscale>
<asrwt>0</asrwt>
<pdfrwt beam="1">  1        2 0.23812779E+00 0.49855668E+03</pdfrwt>
<pdfrwt beam="2">  1       -2 0.53255312E-02 0.49855668E+03</pdfrwt>
<totfact> 0.22756156E+03</totfact>
</mgrwt>
</event>
<event>
 4    1  0.1399921E-004  0.3799092E+03  0.7818608E-02  0.1050967E+00
          2   -1    0    0  501    0  0.00000000000E+00  0.00000000000E+00  0.38993123708E+03  0.38993123709E+03  0.25500000000E-02 0.  1.
         -2   -1    0    0    0  501 -0.00000000000E+00 -0.00000000000E+00 -0.92536205911E+02  0.92536205946E+02  0.25500000000E-02 0. -1.
    5000001    1    1    2    0    0 -0.65465160490E+02 -0.11830013699E+03  0.20064389541E+03  0.27325369607E+03  0.12700000000E+03 0.  0.
   -5000001    1    1    2    0    0  0.65465160490E+02  0.11830013699E+03  0.96751135755E+02  0.20921374696E+03  0.12700000000E+03 0.  0.
<mgrwt>
<rscale>  0 0.37990924E+03</rscale>
<asrwt>0</asrwt>
<pdfrwt beam="1">  1        2 0.55704464E-01 0.37990924E+03</pdfrwt>
<pdfrwt beam="2">  1       -2 0.13219458E-01 0.37990924E+03</pdfrwt>
<totfact> 0.37802885E+03</totfact>
</mgrwt>
</event>
<event>
 4    1  0.1399921E-004  0.2849285E+03  0.7818608E-02  0.1093027E+00
         -2   -1    0    0    0  501 -0.00000000000E+00  0.00000000000E+00  0.12918867099E+03  0.12918867102E+03  0.25500000000E-02 0. -1.
          2   -1    0    0  501    0  0.00000000000E+00 -0.00000000000E+00 -0.15710406047E+03  0.15710406049E+03  0.25500000000E-02 0.  1.
    5000001    1    1    2    0    0  0.70457839262E-01  0.57672071811E+02 -0.43096405106E+02  0.14598757812E+03  0.12700000000E+03 0.  0.
   -5000001    1    1    2    0    0 -0.70457839262E-01 -0.57672071811E+02  0.15181015632E+02  0.14030515339E+03  0.12700000000E+03 0.  0.
<mgrwt>
<rscale>  0 0.28492852E+03</rscale>
<asrwt>0</asrwt>
<pdfrwt beam="1">  1        2 0.22443437E-01 0.28492852E+03</pdfrwt>
<pdfrwt beam="2">  1       -2 0.18455525E-01 0.28492852E+03</pdfrwt>
<totfact> 0.58346298E+03</totfact>
</mgrwt>
</event>
<event>
 4    1  0.1399921E-004  0.5618507E+03  0.7818608E-02  0.9987876E-01
          2   -1    0    0  501    0  0.00000000000E+00  0.00000000000E+00  0.17170508334E+03  0.17170508335E+03  0.25500000000E-02 0.  1.
         -2   -1    0    0    0  501 -0.00000000000E+00 -0.00000000000E+00 -0.45961975984E+03  0.45961975985E+03  0.25500000000E-02 0. -1.
    5000001    1    1    2    0    0  0.21211699894E+03  0.58063361998E+02 -0.27891296162E+03  0.37720871598E+03  0.12700000000E+03 0.  0.
   -5000001    1    1    2    0    0 -0.21211699894E+03 -0.58063361998E+02 -0.90017148844E+01  0.25411612723E+03  0.12700000000E+03 0.  0.
<mgrwt>
<rscale>  0 0.56185069E+03</rscale>
<asrwt>0</asrwt>
<pdfrwt beam="1">  1        2 0.24529298E-01 0.56185069E+03</pdfrwt>
<pdfrwt beam="2">  1       -2 0.65659965E-01 0.56185069E+03</pdfrwt>
<totfact> 0.48262955E+02</totfact>
</mgrwt>
</event>
<event>
 4    1  0.1399921E-004  0.5741142E+03  0.7818608E-02  0.9960616E-01
          2   -1    0    0  501    0  0.00000000000E+00  0.00000000000E+00  0.44232310725E+03  0.44232310726E+03  0.25500000000E-02 0.  1.
         -2   -1    0    0    0  501 -0.00000000000E+00 -0.00000000000E+00 -0.18629315999E+03  0.18629316001E+03  0.25500000000E-02 0. -1.
    5000001    1    1    2    0    0  0.19782510397E+03  0.12142284492E+03  0.61155398847E+01  0.26465955274E+03  0.12700000000E+03 0.  0.
   -5000001    1    1    2    0    0 -0.19782510397E+03 -0.12142284492E+03  0.24991440738E+03  0.36395671452E+03  0.12700000000E+03 0.  0.
<mgrwt>
<rscale>  0 0.57411417E+03</rscale>
<asrwt>0</asrwt>
<pdfrwt beam="1">  1        2 0.63189016E-01 0.57411417E+03</pdfrwt>
<pdfrwt beam="2">  1       -2 0.26613308E-01 0.57411417E+03</pdfrwt>
<totfact> 0.98955761E+02</totfact>
</mgrwt>
</event>
<event>
 4    1  0.1399921E-004  0.3699968E+03  0.7818608E-02  0.1054694E+00
          2   -1    0    0  501    0  0.00000000000E+00  0.00000000000E+00  0.85358002275E+03  0.85358002276E+03  0.25500000000E-02 0.  1.
         -2   -1    0    0    0  501 -0.00000000000E+00 -0.00000000000E+00 -0.40095136235E+02  0.40095136316E+02  0.25500000000E-02 0. -1.
    5000001    1    1    2    0    0  0.20918670310E+01  0.81494541601E+02  0.66519345023E+03  0.68209754614E+03  0.12700000000E+03 0.  0.
   -5000001    1    1    2    0    0 -0.20918670310E+01 -0.81494541601E+02  0.14829143628E+03  0.21157761293E+03  0.12700000000E+03 0.  0.
<mgrwt>
<rscale>  0 0.36999680E+03</rscale>
<asrwt>0</asrwt>
<pdfrwt beam="1">  1        2 0.12193999E+00 0.36999680E+03</pdfrwt>
<pdfrwt beam="2">  1       -2 0.57278771E-02 0.36999680E+03</pdfrwt>
<totfact> 0.57416719E+03</totfact>
</mgrwt>
</event>
<event>
 4    1  0.1399921E-004  0.6095598E+03  0.7818608E-02  0.9885769E-01
          2   -1    0    0  501    0  0.00000000000E+00  0.00000000000E+00  0.60345308412E+03  0.60345308412E+03  0.25500000000E-02 0.  1.
         -2   -1    0    0    0  501 -0.00000000000E+00 -0.00000000000E+00 -0.15393205864E+03  0.15393205866E+03  0.25500000000E-02 0. -1.
    5000001    1    1    2    0    0  0.26232658627E+03  0.35834116300E+02  0.32617910925E+03  0.43888624160E+03  0.12700000000E+03 0.  0.
   -5000001    1    1    2    0    0 -0.26232658627E+03 -0.35834116300E+02  0.12334191623E+03  0.31849890118E+03  0.12700000000E+03 0.  0.
<mgrwt>
<rscale>  0 0.60955976E+03</rscale>
<asrwt>0</asrwt>
<pdfrwt beam="1">  1        2 0.86207584E-01 0.60955976E+03</pdfrwt>
<pdfrwt beam="2">  1       -2 0.21990294E-01 0.60955976E+03</pdfrwt>
<totfact> 0.97463726E+02</totfact>
</mgrwt>
</event>
<event>
 4    1  0.1399921E-004  0.6100518E+03  0.7818608E-02  0.9884768E-01
          2   -1    0    0  501    0  0.00000000000E+00  0.00000000000E+00  0.70812840371E+03  0.70812840372E+03  0.25500000000E-02 0.  1.
         -2   -1    0    0    0  501 -0.00000000000E+00 -0.00000000000E+00 -0.13138973908E+03  0.13138973910E+03  0.25500000000E-02 0. -1.
    5000001    1    1    2    0    0 -0.15712935149E+03  0.13890793852E+03  0.53808042903E+03  0.59130753131E+03  0.12700000000E+03 0.  0.
   -5000001    1    1    2    0    0  0.15712935149E+03 -0.13890793852E+03  0.38658235607E+02  0.24821061151E+03  0.12700000000E+03 0.  0.
<mgrwt>
<rscale>  0 0.61005182E+03</rscale>
<asrwt>0</asrwt>
<pdfrwt beam="1">  1        2 0.10116120E+00 0.61005182E+03</pdfrwt>
<pdfrwt beam="2">  1       -2 0.18769963E-01 0.61005182E+03</pdfrwt>
<totfact> 0.10601830E+03</totfact>
</mgrwt>
</event>
<event>
 4    1  0.1399921E-004  0.3370606E+03  0.7818608E-02  0.1068055E+00
          2   -1    0    0  501    0  0.00000000000E+00  0.00000000000E+00  0.20759207337E+03  0.20759207338E+03  0.25500000000E-02 0.  1.
         -2   -1    0    0    0  501 -0.00000000000E+00 -0.00000000000E+00 -0.13681859214E+03  0.13681859216E+03  0.25500000000E-02 0. -1.
    5000001    1    1    2    0    0  0.10010273683E+03  0.23020558016E+02 -0.70268601869E+01  0.16348969624E+03  0.12700000000E+03 0.  0.
   -5000001    1    1    2    0    0 -0.10010273683E+03 -0.23020558016E+02  0.77800341413E+02  0.18092096931E+03  0.12700000000E+03 0.  0.
<mgrwt>
<rscale>  0 0.33706056E+03</rscale>
<asrwt>0</asrwt>
<pdfrwt beam="1">  1        2 0.29656010E-01 0.33706056E+03</pdfrwt>
<pdfrwt beam="2">  1       -2 0.19545513E-01 0.33706056E+03</pdfrwt>
<totfact> 0.38948007E+03</totfact>
</mgrwt>
</event>
<event>
 4    1  0.1399921E-004  0.5480922E+03  0.7818608E-02  0.1001936E+00
         -2   -1    0    0    0  501 -0.00000000000E+00  0.00000000000E+00  0.21708350736E+03  0.21708350738E+03  0.25500000000E-02 0. -1.
          2   -1    0    0  501    0  0.00000000000E+00 -0.00000000000E+00 -0.34595570614E+03  0.34595570615E+03  0.25500000000E-02 0.  1.
    5000001    1    1    2    0    0 -0.68038221739E+02 -0.23187505645E+03 -0.39759421735E+02  0.27587144296E+03  0.12700000000E+03 0.  0.
   -5000001    1    1    2    0    0  0.68038221739E+02  0.23187505645E+03 -0.89112777047E+02  0.28716777057E+03  0.12700000000E+03 0.  0.
<mgrwt>
<rscale>  0 0.54809225E+03</rscale>
<asrwt>0</asrwt>
<pdfrwt beam="1">  1        2 0.49422244E-01 0.54809225E+03</pdfrwt>
<pdfrwt beam="2">  1       -2 0.31011930E-01 0.54809225E+03</pdfrwt>
<totfact> 0.98208096E+02</totfact>
</mgrwt>
</event>
<event>
 4    1  0.1399921E-004  0.4065909E+03  0.7818608E-02  0.1041521E+00
         -2   -1    0    0    0  501 -0.00000000000E+00  0.00000000000E+00  0.37485149897E+03  0.37485149898E+03  0.25500000000E-02 0. -1.
          2   -1    0    0  501    0  0.00000000000E+00 -0.00000000000E+00 -0.11025441413E+03  0.11025441416E+03  0.25500000000E-02 0.  1.
    5000001    1    1    2    0    0  0.40700578144E+02  0.10257076335E+03 -0.38553420992E+01  0.16828892482E+03  0.12700000000E+03 0.  0.
   -5000001    1    1    2    0    0 -0.40700578144E+02 -0.10257076335E+03  0.26845242694E+03  0.31681698832E+03  0.12700000000E+03 0.  0.
<mgrwt>
<rscale>  0 0.40659086E+03</rscale>
<asrwt>0</asrwt>
<pdfrwt beam="1">  1        2 0.15750630E-01 0.40659086E+03</pdfrwt>
<pdfrwt beam="2">  1       -2 0.53550215E-01 0.40659086E+03</pdfrwt>
<totfact> 0.12389479E+03</totfact>
</mgrwt>
</event>
<event>
 4    1  0.1399921E-004  0.6816565E+03  0.7818608E-02  0.9749127E-01
          2   -1    0    0  501    0  0.00000000000E+00  0.00000000000E+00  0.34848697084E+03  0.34848697085E+03  0.25500000000E-02 0.  1.
         -2   -1    0    0    0  501 -0.00000000000E+00 -0.00000000000E+00 -0.33333780811E+03  0.33333780812E+03  0.25500000000E-02 0. -1.
    5000001    1    1    2    0    0 -0.19293575414E+03  0.25017989653E+03 -0.72849669474E+01  0.34058223177E+03  0.12700000000E+03 0.  0.
   -5000001    1    1    2    0    0  0.19293575414E+03 -0.25017989653E+03  0.22434129675E+02  0.34124254721E+03  0.12700000000E+03 0.  0.
<mgrwt>
<rscale>  0 0.68165646E+03</rscale>
<asrwt>0</asrwt>
<pdfrwt beam="1">  1        2 0.49783853E-01 0.68165646E+03</pdfrwt>
<pdfrwt beam="2">  1       -2 0.47619687E-01 0.68165646E+03</pdfrwt>
<totfact> 0.42503905E+02</totfact>
</mgrwt>
</event>
<event>
 4    1  0.1399921E-004  0.3358457E+03  0.7818608E-02  0.1068579E+00
         -2   -1    0    0    0  501 -0.00000000000E+00  0.00000000000E+00  0.21224219144E+02  0.21224219297E+02  0.25500000000E-02 0. -1.
          2   -1    0    0  501    0  0.00000000000E+00 -0.00000000000E+00 -0.13285805302E+04  0.13285805302E+04  0.25500000000E-02 0.  1.
    5000001    1    1    2    0    0  0.49787465083E+01 -0.10675184860E+03 -0.55134123661E+03  0.57578373048E+03  0.12700000000E+03 0.  0.
   -5000001    1    1    2    0    0 -0.49787465083E+01  0.10675184860E+03 -0.75601507446E+03  0.77402101903E+03  0.12700000000E+03 0.  0.
<mgrwt>
<rscale>  0 0.33584571E+03</rscale>
<asrwt>0</asrwt>
<pdfrwt beam="1">  1        2 0.18979717E+00 0.33584571E+03</pdfrwt>
<pdfrwt beam="2">  1       -2 0.30320322E-02 0.33584571E+03</pdfrwt>
<totfact> 0.80044246E+03</totfact>
</mgrwt>
</event>
<event>
 4    1  0.1399921E-004  0.4373722E+03  0.7818608E-02  0.1031556E+00
         -2   -1    0    0    0  501 -0.00000000000E+00  0.00000000000E+00  0.21533673464E+02  0.21533673615E+02  0.25500000000E-02 0. -1.
          2   -1    0    0  501    0  0.00000000000E+00 -0.00000000000E+00 -0.22208759355E+04  0.22208759355E+04  0.25500000000E-02 0.  1.
    5000001    1    1    2    0    0 -0.96919925937E+02  0.11606059395E+03 -0.15814755102E+04  0.15937557287E+04  0.12700000000E+03 0.  0.
   -5000001    1    1    2    0    0  0.96919925937E+02 -0.11606059395E+03 -0.61786675184E+03  0.64865388038E+03  0.12700000000E+03 0.  0.
<mgrwt>
<rscale>  0 0.43737223E+03</rscale>
<asrwt>0</asrwt>
<pdfrwt beam="1">  1        2 0.31726784E+00 0.43737223E+03</pdfrwt>
<pdfrwt beam="2">  1       -2 0.30762405E-02 0.43737223E+03</pdfrwt>
<totfact> 0.27898047E+03</totfact>
</mgrwt>
</event>
<event>
 4    1  0.1399921E-004  0.3717022E+03  0.7818608E-02  0.1054044E+00
          2   -1    0    0  501    0  0.00000000000E+00  0.00000000000E+00  0.13398875105E+04  0.13398875105E+04  0.25500000000E-02 0.  1.
         -2   -1    0    0    0  501 -0.00000000000E+00 -0.00000000000E+00 -0.25778751093E+02  0.25778751219E+02  0.25500000000E-02 0. -1.
    5000001    1    1    2    0    0 -0.62007806758E+02 -0.10320278637E+03  0.88696664551E+03  0.90406560241E+03  0.12700000000E+03 0.  0.
   -5000001    1    1    2    0    0  0.62007806758E+02  0.10320278637E+03  0.42714211389E+03  0.46160065931E+03  0.12700000000E+03 0.  0.
<mgrwt>
<rscale>  0 0.37170217E+03</rscale>
<asrwt>0</asrwt>
<pdfrwt beam="1">  1        2 0.19141254E+00 0.37170217E+03</pdfrwt>
<pdfrwt beam="2">  1       -2 0.36826780E-02 0.37170217E+03</pdfrwt>
<totfact> 0.59013187E+03</totfact>
</mgrwt>
</event>
<event>
 4    1  0.1399921E-004  0.4546778E+03  0.7818608E-02  0.1026336E+00
         -2   -1    0    0    0  501 -0.00000000000E+00  0.00000000000E+00  0.21305999630E+02  0.21305999783E+02  0.25500000000E-02 0. -1.
          2   -1    0    0  501    0  0.00000000000E+00 -0.00000000000E+00 -0.24257476354E+04  0.24257476354E+04  0.25500000000E-02 0.  1.
    5000001    1    1    2    0    0  0.16853043661E+03  0.34112474967E+02 -0.16186812160E+04  0.16327351432E+04  0.12700000000E+03 0.  0.
   -5000001    1    1    2    0    0 -0.16853043661E+03 -0.34112474967E+02 -0.78576041978E+03  0.81431849194E+03  0.12700000000E+03 0.  0.
<mgrwt>
<rscale>  0 0.45467781E+03</rscale>
<asrwt>0</asrwt>
<pdfrwt beam="1">  1        2 0.34653520E+00 0.45467781E+03</pdfrwt>
<pdfrwt beam="2">  1       -2 0.30437158E-02 0.45467781E+03</pdfrwt>
<totfact> 0.22356640E+03</totfact>
</mgrwt>
</event>
<event>
 4    1  0.1399921E-004  0.3594080E+03  0.7818608E-02  0.1058819E+00
         -2   -1    0    0    0  501 -0.00000000000E+00  0.00000000000E+00  0.22599284747E+02  0.22599284890E+02  0.25500000000E-02 0. -1.
          2   -1    0    0  501    0  0.00000000000E+00 -0.00000000000E+00 -0.14289625122E+04  0.14289625122E+04  0.25500000000E-02 0.  1.
    5000001    1    1    2    0    0 -0.64057887000E+02 -0.10689987354E+03 -0.80483762415E+03  0.82427155543E+03  0.12700000000E+03 0.  0.
   -5000001    1    1    2    0    0  0.64057887000E+02  0.10689987354E+03 -0.60152560325E+03  0.62729024161E+03  0.12700000000E+03 0.  0.
<mgrwt>
<rscale>  0 0.35940802E+03</rscale>
<asrwt>0</asrwt>
<pdfrwt beam="1">  1        2 0.20413744E+00 0.35940802E+03</pdfrwt>
<pdfrwt beam="2">  1       -2 0.32284702E-02 0.35940802E+03</pdfrwt>
<totfact> 0.64631616E+03</totfact>
</mgrwt>
</event>
<event>
 4    1  0.1399921E-004  0.7773755E+03  0.7818608E-02  0.9593355E-01
         -2   -1    0    0    0  501 -0.00000000000E+00  0.00000000000E+00  0.35738155939E+03  0.35738155940E+03  0.25500000000E-02 0. -1.
          2   -1    0    0  501    0  0.00000000000E+00 -0.00000000000E+00 -0.42273632793E+03  0.42273632794E+03  0.25500000000E-02 0.  1.
    5000001    1    1    2    0    0 -0.20837654883E+03  0.11924529331E+03 -0.31170311245E+03  0.41343446444E+03  0.12700000000E+03 0.  0.
   -5000001    1    1    2    0    0  0.20837654883E+03 -0.11924529331E+03  0.24634834391E+03  0.36668342290E+03  0.12700000000E+03 0.  0.
<mgrwt>
<rscale>  0 0.77737550E+03</rscale>
<asrwt>0</asrwt>
<pdfrwt beam="1">  1        2 0.60390904E-01 0.77737550E+03</pdfrwt>
<pdfrwt beam="2">  1       -2 0.51054509E-01 0.77737550E+03</pdfrwt>
<totfact> 0.29672098E+02</totfact>
</mgrwt>
</event>
<event>
 4    1  0.1399921E-004  0.2883014E+03  0.7818608E-02  0.1091239E+00
         -2   -1    0    0    0  501 -0.00000000000E+00  0.00000000000E+00  0.35181824733E+02  0.35181824826E+02  0.25500000000E-02 0. -1.
          2   -1    0    0  501    0  0.00000000000E+00 -0.00000000000E+00 -0.59062953398E+03  0.59062953399E+03  0.25500000000E-02 0.  1.
    5000001    1    1    2    0    0  0.24262338380E+02 -0.52957748881E+02 -0.35469108781E+03  0.38121903416E+03  0.12700000000E+03 0.  0.
   -5000001    1    1    2    0    0 -0.24262338380E+02  0.52957748881E+02 -0.20075662144E+03  0.24459232466E+03  0.12700000000E+03 0.  0.
<mgrwt>
<rscale>  0 0.28830140E+03</rscale>
<asrwt>0</asrwt>
<pdfrwt beam="1">  1        2 0.84375642E-01 0.28830140E+03</pdfrwt>
<pdfrwt beam="2">  1       -2 0.50259753E-02 0.28830140E+03</pdfrwt>
<totfact> 0.10850429E+04</totfact>
</mgrwt>
</event>
<event>
 4    1  0.1399921E-004  0.4243714E+03  0.7818608E-02  0.1035653E+00
          2   -1    0    0  501    0  0.00000000000E+00  0.00000000000E+00  0.57081642095E+03  0.57081642095E+03  0.25500000000E-02 0.  1.
         -2   -1    0    0    0  501 -0.00000000000E+00 -0.00000000000E+00 -0.78874359277E+02  0.78874359319E+02  0.25500000000E-02 0. -1.
    5000001    1    1    2    0    0 -0.50984909325E+02 -0.15052292850E+03  0.15364117704E+03  0.25493376447E+03  0.12700000000E+03 0.  0.
   -5000001    1    1    2    0    0  0.50984909325E+02  0.15052292850E+03  0.33830088463E+03  0.39475701581E+03  0.12700000000E+03 0.  0.
<mgrwt>
<rscale>  0 0.42437144E+03</rscale>
<asrwt>0</asrwt>
<pdfrwt beam="1">  1        2 0.81545204E-01 0.42437144E+03</pdfrwt>
<pdfrwt beam="2">  1       -2 0.11267765E-01 0.42437144E+03</pdfrwt>
<totfact> 0.32131706E+03</totfact>
</mgrwt>
</event>
<event>
 4    1  0.1399921E-004  0.3432602E+03  0.7818608E-02  0.1065416E+00
         -2   -1    0    0    0  501 -0.00000000000E+00  0.00000000000E+00  0.23382059620E+02  0.23382059759E+02  0.25500000000E-02 0. -1.
          2   -1    0    0  501    0  0.00000000000E+00 -0.00000000000E+00 -0.12598071758E+04  0.12598071758E+04  0.25500000000E-02 0.  1.
    5000001    1    1    2    0    0  0.15674326770E+02 -0.11229826734E+03 -0.69936779920E+03  0.71979226442E+03  0.12700000000E+03 0.  0.
   -5000001    1    1    2    0    0 -0.15674326770E+02  0.11229826734E+03 -0.53705731701E+03  0.56339697117E+03  0.12700000000E+03 0.  0.
<mgrwt>
<rscale>  0 0.34326017E+03</rscale>
<asrwt>0</asrwt>
<pdfrwt beam="1">  1        2 0.17997241E+00 0.34326017E+03</pdfrwt>
<pdfrwt beam="2">  1       -2 0.33402950E-02 0.34326017E+03</pdfrwt>
<totfact> 0.75338954E+03</totfact>
</mgrwt>
</event>
<event>
 4    1  0.1399921E-004  0.4050433E+03  0.7818608E-02  0.1042047E+00
          2   -1    0    0  501    0  0.00000000000E+00  0.00000000000E+00  0.10934696674E+04  0.10934696674E+04  0.25500000000E-02 0.  1.
         -2   -1    0    0    0  501 -0.00000000000E+00 -0.00000000000E+00 -0.37509054140E+02  0.37509054227E+02  0.25500000000E-02 0. -1.
    5000001    1    1    2    0    0  0.13678738300E+03 -0.38225683524E+02  0.33626852066E+03  0.38649386673E+03  0.12700000000E+03 0.  0.
   -5000001    1    1    2    0    0 -0.13678738300E+03  0.38225683524E+02  0.71969209257E+03  0.74448485488E+03  0.12700000000E+03 0.  0.
<mgrwt>
<rscale>  0 0.40504327E+03</rscale>
<asrwt>0</asrwt>
<pdfrwt beam="1">  1        2 0.15620995E+00 0.40504327E+03</pdfrwt>
<pdfrwt beam="2">  1       -2 0.53584364E-02 0.40504327E+03</pdfrwt>
<totfact> 0.45503442E+03</totfact>
</mgrwt>
</event>
<event>
 4    1  0.1399921E-004  0.6598719E+03  0.7818608E-02  0.9788430E-01
          2   -1    0    0  501    0  0.00000000000E+00  0.00000000000E+00  0.38204842473E+04  0.38204842473E+04  0.25500000000E-02 0.  1.
         -2   -1    0    0    0  501 -0.00000000000E+00 -0.00000000000E+00 -0.28493179300E+02  0.28493179414E+02  0.25500000000E-02 0. -1.
    5000001    1    1    2    0    0  0.23609279923E+03  0.79182546988E+02  0.29183221031E+04  0.29316791406E+04  0.12700000000E+03 0.  0.
   -5000001    1    1    2    0    0 -0.23609279923E+03 -0.79182546988E+02  0.87366896482E+03  0.91729828610E+03  0.12700000000E+03 0.  0.
<mgrwt>
<rscale>  0 0.65987194E+03</rscale>
<asrwt>0</asrwt>
<pdfrwt beam="1">  1        2 0.54578319E+00 0.65987194E+03</pdfrwt>
<pdfrwt beam="2">  1       -2 0.40704562E-02 0.65987194E+03</pdfrwt>
<totfact> 0.23322816E+02</totfact>
</mgrwt>
</event>
<event>
 4    1  0.1399921E-004  0.5728258E+03  0.7818608E-02  0.9963445E-01
         -2   -1    0    0    0  501 -0.00000000000E+00  0.00000000000E+00  0.17683621609E+03  0.17683621611E+03  0.25500000000E-02 0. -1.
          2   -1    0    0  501    0  0.00000000000E+00 -0.00000000000E+00 -0.46388880317E+03  0.46388880318E+03  0.25500000000E-02 0.  1.
    5000001    1    1    2    0    0 -0.75946868471E+02  0.23735556820E+03 -0.74595669401E+02  0.28948075321E+03  0.12700000000E+03 0.  0.
   -5000001    1    1    2    0    0  0.75946868471E+02 -0.23735556820E+03 -0.21245691768E+03  0.35124426608E+03  0.12700000000E+03 0.  0.
<mgrwt>
<rscale>  0 0.57282577E+03</rscale>
<asrwt>0</asrwt>
<pdfrwt beam="1">  1        2 0.66269828E-01 0.57282577E+03</pdfrwt>
<pdfrwt beam="2">  1       -2 0.25262317E-01 0.57282577E+03</pdfrwt>
<totfact> 0.10305151E+03</totfact>
</mgrwt>
</event>
<event>
 4    1  0.1399921E-004  0.2670288E+03  0.7818608E-02  0.1102992E+00
         -2   -1    0    0    0  501 -0.00000000000E+00  0.00000000000E+00  0.67728458361E+02  0.67728458409E+02  0.25500000000E-02 0. -1.
          2   -1    0    0  501    0  0.00000000000E+00 -0.00000000000E+00 -0.26319941933E+03  0.26319941935E+03  0.25500000000E-02 0.  1.
    5000001    1    1    2    0    0  0.15677263069E+02 -0.37207729139E+02 -0.87599030415E+02  0.15947658704E+03  0.12700000000E+03 0.  0.
   -5000001    1    1    2    0    0 -0.15677263069E+02  0.37207729139E+02 -0.10787193056E+03  0.17145129071E+03  0.12700000000E+03 0.  0.
<mgrwt>
<rscale>  0 0.26702877E+03</rscale>
<asrwt>0</asrwt>
<pdfrwt beam="1">  1        2 0.37599917E-01 0.26702877E+03</pdfrwt>
<pdfrwt beam="2">  1       -2 0.96754941E-02 0.26702877E+03</pdfrwt>
<totfact> 0.94648186E+03</totfact>
</mgrwt>
</event>
<event>
 4    1  0.1399921E-004  0.4373929E+03  0.7818608E-02  0.1031550E+00
         -2   -1    0    0    0  501 -0.00000000000E+00  0.00000000000E+00  0.48290327390E+02  0.48290327457E+02  0.25500000000E-02 0.  1.
          2   -1    0    0  501    0  0.00000000000E+00 -0.00000000000E+00 -0.99042884702E+03  0.99042884703E+03  0.25500000000E-02 0. -1.
    5000001    1    1    2    0    0  0.14999801241E+03  0.87062975294E+02 -0.56664613654E+03  0.60604967573E+03  0.12700000000E+03 0.  0.
   -5000001    1    1    2    0    0 -0.14999801241E+03 -0.87062975294E+02 -0.37549238309E+03  0.43266949875E+03  0.12700000000E+03 0.  0.
<mgrwt>
<rscale>  0 0.43739288E+03</rscale>
<asrwt>0</asrwt>
<pdfrwt beam="1">  1        2 0.14148982E+00 0.43739288E+03</pdfrwt>
<pdfrwt beam="2">  1       -2 0.68986188E-02 0.43739288E+03</pdfrwt>
<totfact> 0.35362969E+03</totfact>
</mgrwt>
</event>
<event>
 4    1  0.1399921E-004  0.4189629E+03  0.7818608E-02  0.1037404E+00
         -2   -1    0    0    0  501 -0.00000000000E+00  0.00000000000E+00  0.34618637940E+02  0.34618638034E+02  0.25500000000E-02 0. -1.
          2   -1    0    0  501    0  0.00000000000E+00 -0.00000000000E+00 -0.12675969954E+04  0.12675969954E+04  0.25500000000E-02 0.  1.
    5000001    1    1    2    0    0 -0.14808727840E+03 -0.75373290545E+02 -0.65359352061E+03  0.68623936431E+03  0.12700000000E+03 0.  0.
   -5000001    1    1    2    0    0  0.14808727840E+03  0.75373290545E+02 -0.57938483690E+03  0.61597626917E+03  0.12700000000E+03 0.  0.
<mgrwt>
<rscale>  0 0.41896292E+03</rscale>
<asrwt>0</asrwt>
<pdfrwt beam="1">  1        2 0.18108526E+00 0.41896292E+03</pdfrwt>
<pdfrwt beam="2">  1       -2 0.49455205E-02 0.41896292E+03</pdfrwt>
<totfact> 0.41195680E+03</totfact>
</mgrwt>
</event>
<event>
 4    1  0.1399921E-004  0.3893174E+03  0.7818608E-02  0.1047543E+00
         -2   -1    0    0    0  501 -0.00000000000E+00  0.00000000000E+00  0.26844004555E+02  0.26844004676E+02  0.25500000000E-02 0. -1.
          2   -1    0    0  501    0  0.00000000000E+00 -0.00000000000E+00 -0.14115628748E+04  0.14115628748E+04  0.25500000000E-02 0.  1.
    5000001    1    1    2    0    0 -0.71576943306E+02 -0.12801433044E+03 -0.63369958995E+03  0.66273305178E+03  0.12700000000E+03 0.  0.
   -5000001    1    1    2    0    0  0.71576943306E+02  0.12801433044E+03 -0.75101928031E+03  0.77567382772E+03  0.12700000000E+03 0.  0.
<mgrwt>
<rscale>  0 0.38931735E+03</rscale>
<asrwt>0</asrwt>
<pdfrwt beam="1">  1        2 0.20165179E+00 0.38931735E+03</pdfrwt>
<pdfrwt beam="2">  1       -2 0.38348587E-02 0.38931735E+03</pdfrwt>
<totfact> 0.50923529E+03</totfact>
</mgrwt>
</event>
<event>
 4    1  0.1399921E-004  0.2788733E+03  0.7818608E-02  0.1096306E+00
          2   -1    0    0  501    0  0.00000000000E+00  0.00000000000E+00  0.55066942849E+03  0.55066942849E+03  0.25500000000E-02 0.  1.
         -2   -1    0    0    0  501 -0.00000000000E+00 -0.00000000000E+00 -0.35307163503E+02  0.35307163595E+02  0.25500000000E-02 0. -1.
    5000001    1    1    2    0    0  0.40216684886E+02 -0.29741049205E+02  0.31754454489E+03  0.34563774351E+03  0.12700000000E+03 0.  0.
   -5000001    1    1    2    0    0 -0.40216684886E+02  0.29741049205E+02  0.19781772009E+03  0.24033884858E+03  0.12700000000E+03 0.  0.
<mgrwt>
<rscale>  0 0.27887327E+03</rscale>
<asrwt>0</asrwt>
<pdfrwt beam="1">  1        2 0.78667065E-01 0.27887327E+03</pdfrwt>
<pdfrwt beam="2">  1       -2 0.50438803E-02 0.27887327E+03</pdfrwt>
<totfact> 0.11667057E+04</totfact>
</mgrwt>
</event>
<event>
 4    1  0.1399921E-004  0.3022910E+03  0.7818608E-02  0.1084101E+00
          2   -1    0    0  501    0  0.00000000000E+00  0.00000000000E+00  0.42777380540E+03  0.42777380540E+03  0.25500000000E-02 0.  1.
         -2   -1    0    0    0  501 -0.00000000000E+00 -0.00000000000E+00 -0.53404306346E+02  0.53404306407E+02  0.25500000000E-02 0. -1.
    5000001    1    1    2    0    0  0.47170338542E+02 -0.18422890025E+02  0.84623292023E+02  0.16079348640E+03  0.12700000000E+03 0.  0.
   -5000001    1    1    2    0    0 -0.47170338542E+02  0.18422890025E+02  0.28974620703E+03  0.32038462541E+03  0.12700000000E+03 0.  0.
<mgrwt>
<rscale>  0 0.30229101E+03</rscale>
<asrwt>0</asrwt>
<pdfrwt beam="1">  1        2 0.61110543E-01 0.30229101E+03</pdfrwt>
<pdfrwt beam="2">  1       -2 0.76291867E-02 0.30229101E+03</pdfrwt>
<totfact> 0.81794692E+03</totfact>
</mgrwt>
</event>
<event>
 4    1  0.1399921E-004  0.4486645E+03  0.7818608E-02  0.1028121E+00
         -2   -1    0    0    0  501 -0.00000000000E+00  0.00000000000E+00  0.20919880205E+02  0.20919880360E+02  0.25500000000E-02 0. -1.
          2   -1    0    0  501    0  0.00000000000E+00 -0.00000000000E+00 -0.24056043912E+04  0.24056043912E+04  0.25500000000E-02 0.  1.
    5000001    1    1    2    0    0 -0.27127502829E+02 -0.93584142879E+02 -0.20423630541E+04  0.20486263051E+04  0.12700000000E+03 0.  0.
   -5000001    1    1    2    0    0  0.27127502829E+02  0.93584142879E+02 -0.34232145697E+03  0.37789796654E+03  0.12700000000E+03 0.  0.
<mgrwt>
<rscale>  0 0.44866449E+03</rscale>
<asrwt>0</asrwt>
<pdfrwt beam="1">  1        2 0.34365759E+00 0.44866449E+03</pdfrwt>
<pdfrwt beam="2">  1       -2 0.29885559E-02 0.44866449E+03</pdfrwt>
<totfact> 0.23534894E+03</totfact>
</mgrwt>
</event>
<event>
 4    1  0.1399921E-004  0.3499394E+03  0.7818608E-02  0.1062640E+00
         -2   -1    0    0    0  501 -0.00000000000E+00  0.00000000000E+00  0.77428626671E+02  0.77428626713E+02  0.25500000000E-02 0. -1.
          2   -1    0    0  501    0  0.00000000000E+00 -0.00000000000E+00 -0.39538849440E+03  0.39538849441E+03  0.25500000000E-02 0.  1.
    5000001    1    1    2    0    0 -0.11213764286E+03 -0.40465703962E+02 -0.13665281812E+03  0.22139403073E+03  0.12700000000E+03 0.  0.
   -5000001    1    1    2    0    0  0.11213764286E+03  0.40465703962E+02 -0.18130704961E+03  0.25142309039E+03  0.12700000000E+03 0.  0.
<mgrwt>
<rscale>  0 0.34993936E+03</rscale>
<asrwt>0</asrwt>
<pdfrwt beam="1">  1        2 0.56484069E-01 0.34993936E+03</pdfrwt>
<pdfrwt beam="2">  1       -2 0.11061233E-01 0.34993936E+03</pdfrwt>
<totfact> 0.49672734E+03</totfact>
</mgrwt>
</event>
<event>
 4    1  0.1399921E-004  0.3896524E+03  0.7818608E-02  0.1047423E+00
          2   -1    0    0  501    0  0.00000000000E+00  0.00000000000E+00  0.13206961957E+04  0.13206961957E+04  0.25500000000E-02 0.  1.
         -2   -1    0    0    0  501 -0.00000000000E+00 -0.00000000000E+00 -0.28740335757E+02  0.28740335870E+02  0.25500000000E-02 0. -1.
    5000001    1    1    2    0    0  0.73013015970E+02 -0.12481703417E+03  0.54104530528E+03  0.57425535687E+03  0.12700000000E+03 0.  0.
   -5000001    1    1    2    0    0 -0.73013015970E+02  0.12481703417E+03  0.75091055463E+03  0.77518117468E+03  0.12700000000E+03 0.  0.
<mgrwt>
<rscale>  0 0.38965242E+03</rscale>
<asrwt>0</asrwt>
<pdfrwt beam="1">  1        2 0.18867093E+00 0.38965242E+03</pdfrwt>
<pdfrwt beam="2">  1       -2 0.41057614E-02 0.38965242E+03</pdfrwt>
<totfact> 0.51251025E+03</totfact>
</mgrwt>
</event>
<event>
 4    1  0.1399921E-004  0.5045422E+03  0.7818608E-02  0.1012600E+00
          2   -1    0    0  501    0  0.00000000000E+00  0.00000000000E+00  0.83910716522E+03  0.83910716522E+03  0.25500000000E-02 0. -1.
         -2   -1    0    0    0  501 -0.00000000000E+00 -0.00000000000E+00 -0.75843348330E+02  0.75843348372E+02  0.25500000000E-02 0.  1.
    5000001    1    1    2    0    0  0.87369690633E+02 -0.19914040332E+03  0.35465301242E+03  0.43496910499E+03  0.12700000000E+03 0.  0.
   -5000001    1    1    2    0    0 -0.87369690633E+02  0.19914040332E+03  0.40861080447E+03  0.47998140860E+03  0.12700000000E+03 0.  0.
<mgrwt>
<rscale>  0 0.50454216E+03</rscale>
<asrwt>0</asrwt>
<pdfrwt beam="1">  1        2 0.11987244E+00 0.50454216E+03</pdfrwt>
<pdfrwt beam="2">  1       -2 0.10834765E-01 0.50454216E+03</pdfrwt>
<totfact> 0.21491490E+03</totfact>
</mgrwt>
</event>
<event>
 4    1  0.1399921E-004  0.3484817E+03  0.7818608E-02  0.1063240E+00
         -2   -1    0    0    0  501 -0.00000000000E+00  0.00000000000E+00  0.33852666183E+02  0.33852666279E+02  0.25500000000E-02 0. -1.
          2   -1    0    0  501    0  0.00000000000E+00 -0.00000000000E+00 -0.89682396154E+03  0.89682396154E+03  0.25500000000E-02 0.  1.
    5000001    1    1    2    0    0  0.10506112157E+03 -0.27704188631E+02 -0.29995671926E+03  0.34337791828E+03  0.12700000000E+03 0.  0.
   -5000001    1    1    2    0    0 -0.10506112157E+03  0.27704188631E+02 -0.56301457609E+03  0.58729870954E+03  0.12700000000E+03 0.  0.
<mgrwt>
<rscale>  0 0.34848175E+03</rscale>
<asrwt>0</asrwt>
<pdfrwt beam="1">  1        2 0.12811769E+00 0.34848175E+03</pdfrwt>
<pdfrwt beam="2">  1       -2 0.48360957E-02 0.34848175E+03</pdfrwt>
<totfact> 0.69742118E+03</totfact>
</mgrwt>
</event>
<event>
 4    1  0.1399921E-004  0.3835774E+03  0.7818608E-02  0.1049619E+00
          2   -1    0    0  501    0  0.00000000000E+00  0.00000000000E+00  0.21181914213E+04  0.21181914213E+04  0.25500000000E-02 0.  1.
         -2   -1    0    0    0  501 -0.00000000000E+00 -0.00000000000E+00 -0.17365243651E+02  0.17365243839E+02  0.25500000000E-02 0. -1.
    5000001    1    1    2    0    0  0.85499271138E+02 -0.10405915290E+03  0.77117909206E+03  0.79308550907E+03  0.12700000000E+03 0.  0.
   -5000001    1    1    2    0    0 -0.85499271138E+02  0.10405915290E+03  0.13296470856E+04  0.13424711561E+04  0.12700000000E+03 0.  0.
<mgrwt>
<rscale>  0 0.38357743E+03</rscale>
<asrwt>0</asrwt>
<pdfrwt beam="1">  1        2 0.30259867E+00 0.38357743E+03</pdfrwt>
<pdfrwt beam="2">  1       -2 0.24807500E-02 0.38357743E+03</pdfrwt>
<totfact> 0.43410472E+03</totfact>
</mgrwt>
</event>
<event>
 4    1  0.1399921E-004  0.5259114E+03  0.7818608E-02  0.1007229E+00
         -2   -1    0    0    0  501 -0.00000000000E+00  0.00000000000E+00  0.64023100742E+02  0.64023100793E+02  0.25500000000E-02 0. -1.
          2   -1    0    0  501    0  0.00000000000E+00 -0.00000000000E+00 -0.10800117546E+04  0.10800117546E+04  0.25500000000E-02 0.  1.
    5000001    1    1    2    0    0  0.58687302511E+02 -0.20908227071E+03 -0.34151197244E+03  0.42416862534E+03  0.12700000000E+03 0.  0.
   -5000001    1    1    2    0    0 -0.58687302511E+02  0.20908227071E+03 -0.67447668138E+03  0.71986623002E+03  0.12700000000E+03 0.  0.
<mgrwt>
<rscale>  0 0.52591140E+03</rscale>
<asrwt>0</asrwt>
<pdfrwt beam="1">  1        2 0.15428738E+00 0.52591140E+03</pdfrwt>
<pdfrwt beam="2">  1       -2 0.91461579E-02 0.52591140E+03</pdfrwt>
<totfact> 0.20011411E+03</totfact>
</mgrwt>
</event>
<event>
 4    1  0.1399921E-004  0.4487714E+03  0.7818608E-02  0.1028089E+00
         -2   -1    0    0    0  501 -0.00000000000E+00  0.00000000000E+00  0.12998380146E+03  0.12998380149E+03  0.25500000000E-02 0.  1.
          2   -1    0    0  501    0  0.00000000000E+00 -0.00000000000E+00 -0.38734778687E+03  0.38734778687E+03  0.25500000000E-02 0. -1.
    5000001    1    1    2    0    0  0.16634193914E+03  0.42760559125E+02 -0.20789547337E+03  0.29807320239E+03  0.12700000000E+03 0.  0.
   -5000001    1    1    2    0    0 -0.16634193914E+03 -0.42760559125E+02 -0.49468512034E+02  0.21925838597E+03  0.12700000000E+03 0.  0.
<mgrwt>
<rscale>  0 0.44877138E+03</rscale>
<asrwt>0</asrwt>
<pdfrwt beam="1">  1        2 0.55335397E-01 0.44877138E+03</pdfrwt>
<pdfrwt beam="2">  1       -2 0.18569115E-01 0.44877138E+03</pdfrwt>
<totfact> 0.21590192E+03</totfact>
</mgrwt>
</event>
<event>
 4    1  0.1399921E-004  0.4975880E+03  0.7818608E-02  0.1014410E+00
         -2   -1    0    0    0  501 -0.00000000000E+00  0.00000000000E+00  0.14829682927E+02  0.14829683146E+02  0.25500000000E-02 0. -1.
          2   -1    0    0  501    0  0.00000000000E+00 -0.00000000000E+00 -0.41739571077E+04  0.41739571077E+04  0.25500000000E-02 0.  1.
    5000001    1    1    2    0    0  0.12921014583E+03 -0.13848501758E+03 -0.29169972525E+04  0.29258973552E+04  0.12700000000E+03 0.  0.
   -5000001    1    1    2    0    0 -0.12921014583E+03  0.13848501758E+03 -0.12421301723E+04  0.12628894357E+04  0.12700000000E+03 0.  0.
<mgrwt>
<rscale>  0 0.49758803E+03</rscale>
<asrwt>0</asrwt>
<pdfrwt beam="1">  1        2 0.59627884E+00 0.49758803E+03</pdfrwt>
<pdfrwt beam="2">  1       -2 0.21185288E-02 0.49758803E+03</pdfrwt>
<totfact> 0.37419746E+02</totfact>
</mgrwt>
</event>
<event>
 4    1  0.1399921E-004  0.3227935E+03  0.7818608E-02  0.1074371E+00
          2   -1    0    0  501    0  0.00000000000E+00  0.00000000000E+00  0.78498386640E+03  0.78498386641E+03  0.25500000000E-02 0.  1.
         -2   -1    0    0    0  501 -0.00000000000E+00 -0.00000000000E+00 -0.33184000862E+02  0.33184000960E+02  0.25500000000E-02 0. -1.
    5000001    1    1    2    0    0 -0.54723078768E+02 -0.76639302137E+02  0.29370119644E+03  0.33355298046E+03  0.12700000000E+03 0.  0.
   -5000001    1    1    2    0    0  0.54723078768E+02  0.76639302137E+02  0.45809866910E+03  0.48461488691E+03  0.12700000000E+03 0.  0.
<mgrwt>
<rscale>  0 0.32279347E+03</rscale>
<asrwt>0</asrwt>
<pdfrwt beam="1">  1        2 0.11214055E+00 0.32279347E+03</pdfrwt>
<pdfrwt beam="2">  1       -2 0.47405719E-02 0.32279347E+03</pdfrwt>
<totfact> 0.84992969E+03</totfact>
</mgrwt>
</event>
<event>
 4    1  0.1399921E-004  0.5165090E+03  0.7818608E-02  0.1009557E+00
         -2   -1    0    0    0  501 -0.00000000000E+00  0.00000000000E+00  0.95185857099E+03  0.95185857099E+03  0.25500000000E-02 0. -1.
          2   -1    0    0  501    0  0.00000000000E+00 -0.00000000000E+00 -0.70068580140E+02  0.70068580186E+02  0.25500000000E-02 0.  1.
    5000001    1    1    2    0    0 -0.14586659771E+03  0.14960578214E+03  0.27645777183E+03  0.36907567514E+03  0.12700000000E+03 0.  0.
   -5000001    1    1    2    0    0  0.14586659771E+03 -0.14960578214E+03  0.60533221903E+03  0.65285147604E+03  0.12700000000E+03 0.  0.
<mgrwt>
<rscale>  0 0.51650897E+03</rscale>
<asrwt>0</asrwt>
<pdfrwt beam="1">  1        2 0.10009798E-01 0.51650897E+03</pdfrwt>
<pdfrwt beam="2">  1       -2 0.13597979E+00 0.51650897E+03</pdfrwt>
<totfact> 0.26090127E+02</totfact>
</mgrwt>
</event>
<event>
 4    1  0.1399921E-004  0.5283586E+03  0.7818608E-02  0.1006631E+00
         -2   -1    0    0    0  501 -0.00000000000E+00  0.00000000000E+00  0.64937368701E+02  0.64937368751E+02  0.25500000000E-02 0. -1.
          2   -1    0    0  501    0  0.00000000000E+00 -0.00000000000E+00 -0.10747388910E+04  0.10747388910E+04  0.25500000000E-02 0.  1.
    5000001    1    1    2    0    0  0.26154235239E+01  0.21335396529E+03 -0.31035113080E+03  0.39745890270E+03  0.12700000000E+03 0.  0.
   -5000001    1    1    2    0    0 -0.26154235239E+01 -0.21335396529E+03 -0.69945039147E+03  0.74221735702E+03  0.12700000000E+03 0.  0.
<mgrwt>
<rscale>  0 0.52835865E+03</rscale>
<asrwt>0</asrwt>
<pdfrwt beam="1">  1        2 0.15353412E+00 0.52835865E+03</pdfrwt>
<pdfrwt beam="2">  1       -2 0.92767676E-02 0.52835865E+03</pdfrwt>
<totfact> 0.19699699E+03</totfact>
</mgrwt>
</event>
<event>
 4    1  0.1399921E-004  0.4168159E+03  0.7818608E-02  0.1038108E+00
         -2   -1    0    0    0  501 -0.00000000000E+00  0.00000000000E+00  0.29689091965E+02  0.29689092075E+02  0.25500000000E-02 0. -1.
          2   -1    0    0  501    0  0.00000000000E+00 -0.00000000000E+00 -0.14629572312E+04  0.14629572312E+04  0.25500000000E-02 0.  1.
    5000001    1    1    2    0    0  0.49888685056E+02  0.14610851192E+03 -0.92753115667E+03  0.94883066178E+03  0.12700000000E+03 0.  0.
   -5000001    1    1    2    0    0 -0.49888685056E+02 -0.14610851192E+03 -0.50573698258E+03  0.54381566151E+03  0.12700000000E+03 0.  0.
<mgrwt>
<rscale>  0 0.41681589E+03</rscale>
<asrwt>0</asrwt>
<pdfrwt beam="1">  1        2 0.20899385E+00 0.41681589E+03</pdfrwt>
<pdfrwt beam="2">  1       -2 0.42412998E-02 0.41681589E+03</pdfrwt>
<totfact> 0.41098722E+03</totfact>
</mgrwt>
</event>
<event>
 4    1  0.1399921E-004  0.4315295E+03  0.7818608E-02  0.1033378E+00
          2   -1    0    0  501    0  0.00000000000E+00  0.00000000000E+00  0.52694259263E+03  0.52694259263E+03  0.25500000000E-02 0.  1.
         -2   -1    0    0    0  501 -0.00000000000E+00 -0.00000000000E+00 -0.88348190713E+02  0.88348190750E+02  0.25500000000E-02 0. -1.
    5000001    1    1    2    0    0  0.16311451326E+03  0.58676528446E+02  0.24695054935E+03  0.32735737849E+03  0.12700000000E+03 0.  0.
   -5000001    1    1    2    0    0 -0.16311451326E+03 -0.58676528446E+02  0.19164385256E+03  0.28793340489E+03  0.12700000000E+03 0.  0.
<mgrwt>
<rscale>  0 0.43152949E+03</rscale>
<asrwt>0</asrwt>
<pdfrwt beam="1">  1        2 0.75277515E-01 0.43152949E+03</pdfrwt>
<pdfrwt beam="2">  1       -2 0.12621170E-01 0.43152949E+03</pdfrwt>
<totfact> 0.29261106E+03</totfact>
</mgrwt>
</event>
<event>
 4    1  0.1399921E-004  0.3324191E+03  0.7818608E-02  0.1070071E+00
         -2   -1    0    0    0  501 -0.00000000000E+00  0.00000000000E+00  0.14683233975E+02  0.14683234196E+02  0.25500000000E-02 0. -1.
          2   -1    0    0  501    0  0.00000000000E+00 -0.00000000000E+00 -0.18814395508E+04  0.18814395508E+04  0.25500000000E-02 0.  1.
    5000001    1    1    2    0    0 -0.41860904432E+02  0.76052641769E+02 -0.57442044845E+03  0.59466309053E+03  0.12700000000E+03 0.  0.
   -5000001    1    1    2    0    0  0.41860904432E+02 -0.76052641769E+02 -0.12923358684E+04  0.13014596945E+04  0.12700000000E+03 0.  0.
<mgrwt>
<rscale>  0 0.33241912E+03</rscale>
<asrwt>0</asrwt>
<pdfrwt beam="1">  1        2 0.26877692E+00 0.33241912E+03</pdfrwt>
<pdfrwt beam="2">  1       -2 0.20976061E-02 0.33241912E+03</pdfrwt>
<totfact> 0.72886500E+03</totfact>
</mgrwt>
</event>
<event>
 4    1  0.1399921E-004  0.5358733E+03  0.7818608E-02  0.1004818E+00
         -2   -1    0    0    0  501 -0.00000000000E+00  0.00000000000E+00  0.15477085415E+02  0.15477085625E+02  0.25500000000E-02 0. -1.
          2   -1    0    0  501    0  0.00000000000E+00 -0.00000000000E+00 -0.46384739921E+04  0.46384739921E+04  0.25500000000E-02 0.  1.
    5000001    1    1    2    0    0 -0.18005040491E+03  0.50392107430E+02 -0.10618667630E+04  0.10856553482E+04  0.12700000000E+03 0.  0.
   -5000001    1    1    2    0    0  0.18005040491E+03 -0.50392107430E+02 -0.35611301438E+04  0.35682957296E+04  0.12700000000E+03 0.  0.
<mgrwt>
<rscale>  0 0.53587334E+03</rscale>
<asrwt>0</asrwt>
<pdfrwt beam="1">  1        2 0.66263826E+00 0.53587334E+03</pdfrwt>
<pdfrwt beam="2">  1       -2 0.22110152E-02 0.53587334E+03</pdfrwt>
<totfact> 0.15635118E+02</totfact>
</mgrwt>
</event>
<event>
 4    1  0.1399921E-004  0.3838297E+03  0.7818608E-02  0.1049527E+00
         -2   -1    0    0    0  501 -0.00000000000E+00  0.00000000000E+00  0.20764427827E+03  0.20764427829E+03  0.25500000000E-02 0. -1.
          2   -1    0    0  501    0  0.00000000000E+00 -0.00000000000E+00 -0.17737692853E+03  0.17737692855E+03  0.25500000000E-02 0.  1.
    5000001    1    1    2    0    0 -0.27169497223E+02  0.13762861246E+03 -0.16941952990E+02  0.18998906894E+03  0.12700000000E+03 0.  0.
   -5000001    1    1    2    0    0  0.27169497223E+02 -0.13762861246E+03  0.47209302735E+02  0.19503213789E+03  0.12700000000E+03 0.  0.
<mgrwt>
<rscale>  0 0.38382967E+03</rscale>
<asrwt>0</asrwt>
<pdfrwt beam="1">  1        2 0.25339561E-01 0.38382967E+03</pdfrwt>
<pdfrwt beam="2">  1       -2 0.29663468E-01 0.38382967E+03</pdfrwt>
<totfact> 0.22270759E+03</totfact>
</mgrwt>
</event>
<event>
 4    1  0.1399921E-004  0.3775226E+03  0.7818608E-02  0.1051853E+00
         -2   -1    0    0    0  501 -0.00000000000E+00  0.00000000000E+00  0.52263372311E+02  0.52263372373E+02  0.25500000000E-02 0. -1.
          2   -1    0    0  501    0  0.00000000000E+00 -0.00000000000E+00 -0.68175515715E+03  0.68175515715E+03  0.25500000000E-02 0.  1.
    5000001    1    1    2    0    0 -0.54225442961E+02  0.11033122335E+03 -0.44354696575E+03  0.47746862550E+03  0.12700000000E+03 0.  0.
   -5000001    1    1    2    0    0  0.54225442961E+02 -0.11033122335E+03 -0.18594481909E+03  0.25654990403E+03  0.12700000000E+03 0.  0.
<mgrwt>
<rscale>  0 0.37752257E+03</rscale>
<asrwt>0</asrwt>
<pdfrwt beam="1">  1        2 0.97393588E-01 0.37752257E+03</pdfrwt>
<pdfrwt beam="2">  1       -2 0.74661965E-02 0.37752257E+03</pdfrwt>
<totfact> 0.50214061E+03</totfact>
</mgrwt>
</event>
<event>
 4    1  0.1399921E-004  0.4819940E+03  0.7818608E-02  0.1018589E+00
         -2   -1    0    0    0  501 -0.00000000000E+00  0.00000000000E+00  0.78411787812E+02  0.78411787853E+02  0.25500000000E-02 0. -1.
          2   -1    0    0  501    0  0.00000000000E+00 -0.00000000000E+00 -0.74069931469E+03  0.74069931470E+03  0.25500000000E-02 0.  1.
    5000001    1    1    2    0    0 -0.12711092159E+03  0.14868790397E+03 -0.22797782934E+03  0.32614133415E+03  0.12700000000E+03 0.  0.
   -5000001    1    1    2    0    0  0.12711092159E+03 -0.14868790397E+03 -0.43430969754E+03  0.49296976840E+03  0.12700000000E+03 0.  0.
<mgrwt>
<rscale>  0 0.48199401E+03</rscale>
<asrwt>0</asrwt>
<pdfrwt beam="1">  1        2 0.10581418E+00 0.48199401E+03</pdfrwt>
<pdfrwt beam="2">  1       -2 0.11201684E-01 0.48199401E+03</pdfrwt>
<totfact> 0.23827605E+03</totfact>
</mgrwt>
</event>
<event>
 4    1  0.1399921E-004  0.4142395E+03  0.7818608E-02  0.1038958E+00
         -2   -1    0    0    0  501 -0.00000000000E+00  0.00000000000E+00  0.19530281977E+04  0.19530281977E+04  0.25500000000E-02 0. -1.
          2   -1    0    0  501    0  0.00000000000E+00 -0.00000000000E+00 -0.21965172168E+02  0.21965172316E+02  0.25500000000E-02 0.  1.
    5000001    1    1    2    0    0  0.75398505072E+02  0.12596346770E+03  0.62113340875E+03  0.65075912689E+03  0.12700000000E+03 0.  0.
   -5000001    1    1    2    0    0 -0.75398505072E+02 -0.12596346770E+03  0.13099296168E+04  0.13242342432E+04  0.12700000000E+03 0.  0.
<mgrwt>
<rscale>  0 0.41423955E+03</rscale>
<asrwt>0</asrwt>
<pdfrwt beam="1">  1        2 0.31378816E-02 0.41423955E+03</pdfrwt>
<pdfrwt beam="2">  1       -2 0.27900404E+00 0.41423955E+03</pdfrwt>
<totfact> 0.14173806E+02</totfact>
</mgrwt>
</event>
<event>
 4    1  0.1399921E-004  0.8996403E+03  0.7818608E-02  0.9426031E-01
         -2   -1    0    0    0  501 -0.00000000000E+00  0.00000000000E+00  0.15029066601E+03  0.15029066603E+03  0.25500000000E-02 0. -1.
          2   -1    0    0  501    0  0.00000000000E+00 -0.00000000000E+00 -0.13463121769E+04  0.13463121769E+04  0.25500000000E-02 0.  1.
    5000001    1    1    2    0    0  0.17341954921E+03  0.31859326868E+03 -0.98684613244E+03  0.10590421616E+04  0.12700000000E+03 0.  0.
   -5000001    1    1    2    0    0 -0.17341954921E+03 -0.31859326868E+03 -0.20917537842E+03  0.43756068131E+03  0.12700000000E+03 0.  0.
<mgrwt>
<rscale>  0 0.89964027E+03</rscale>
<asrwt>0</asrwt>
<pdfrwt beam="1">  1        2 0.19233030E+00 0.89964027E+03</pdfrwt>
<pdfrwt beam="2">  1       -2 0.21470096E-01 0.89964027E+03</pdfrwt>
<totfact> 0.33359101E+02</totfact>
</mgrwt>
</event>
<event>
 4    1  0.1399921E-004  0.3678647E+03  0.7818608E-02  0.1055512E+00
         -2   -1    0    0    0  501 -0.00000000000E+00  0.00000000000E+00  0.13303189769E+02  0.13303190014E+02  0.25500000000E-02 0. -1.
          2   -1    0    0  501    0  0.00000000000E+00 -0.00000000000E+00 -0.25430827462E+04  0.25430827462E+04  0.25500000000E-02 0.  1.
    5000001    1    1    2    0    0  0.11764881410E+03  0.59879884180E+02 -0.11495931263E+04  0.11640963019E+04  0.12700000000E+03 0.  0.
   -5000001    1    1    2    0    0 -0.11764881410E+03 -0.59879884180E+02 -0.13801864301E+04  0.13922896343E+04  0.12700000000E+03 0.  0.
<mgrwt>
<rscale>  0 0.36786472E+03</rscale>
<asrwt>0</asrwt>
<pdfrwt beam="1">  1        2 0.36329723E+00 0.36786472E+03</pdfrwt>
<pdfrwt beam="2">  1       -2 0.19004573E-02 0.36786472E+03</pdfrwt>
<totfact> 0.39619351E+03</totfact>
</mgrwt>
</event>
<event>
 4    1  0.1399921E-004  0.3315982E+03  0.7818608E-02  0.1070432E+00
          2   -1    0    0  501    0  0.00000000000E+00  0.00000000000E+00  0.73398287988E+02  0.73398288032E+02  0.25500000000E-02 0.  1.
         -2   -1    0    0    0  501 -0.00000000000E+00 -0.00000000000E+00 -0.37452294383E+03  0.37452294384E+03  0.25500000000E-02 0. -1.
    5000001    1    1    2    0    0 -0.83526105000E+02 -0.36189272173E+02 -0.22545620236E+03  0.27430962947E+03  0.12700000000E+03 0.  0.
   -5000001    1    1    2    0    0  0.83526105000E+02  0.36189272173E+02 -0.75668453486E+02  0.17361160241E+03  0.12700000000E+03 0.  0.
<mgrwt>
<rscale>  0 0.33159821E+03</rscale>
<asrwt>0</asrwt>
<pdfrwt beam="1">  1        2 0.10485470E-01 0.33159821E+03</pdfrwt>
<pdfrwt beam="2">  1       -2 0.53503277E-01 0.33159821E+03</pdfrwt>
<totfact> 0.20309406E+03</totfact>
</mgrwt>
</event>
<event>
 4    1  0.1399921E-004  0.3992798E+03  0.7818608E-02  0.1044029E+00
         -2   -1    0    0    0  501 -0.00000000000E+00  0.00000000000E+00  0.53443063151E+02  0.53443063212E+02  0.25500000000E-02 0. -1.
          2   -1    0    0  501    0  0.00000000000E+00 -0.00000000000E+00 -0.74576724505E+03  0.74576724505E+03  0.25500000000E-02 0.  1.
    5000001    1    1    2    0    0  0.13562016224E+03 -0.70345793923E+02 -0.38547396105E+03  0.43365946753E+03  0.12700000000E+03 0.  0.
   -5000001    1    1    2    0    0 -0.13562016224E+03  0.70345793923E+02 -0.30685022084E+03  0.36555084073E+03  0.12700000000E+03 0.  0.
<mgrwt>
<rscale>  0 0.39927978E+03</rscale>
<asrwt>0</asrwt>
<pdfrwt beam="1">  1        2 0.10653817E+00 0.39927978E+03</pdfrwt>
<pdfrwt beam="2">  1       -2 0.76347238E-02 0.39927978E+03</pdfrwt>
<totfact> 0.43538152E+03</totfact>
</mgrwt>
</event>
<event>
 4    1  0.1399921E-004  0.5674696E+03  0.7818608E-02  0.9975294E-01
          2   -1    0    0  501    0  0.00000000000E+00  0.00000000000E+00  0.27759604278E+04  0.27759604278E+04  0.25500000000E-02 0.  1.
         -2   -1    0    0    0  501 -0.00000000000E+00 -0.00000000000E+00 -0.29000934854E+02  0.29000934966E+02  0.25500000000E-02 0. -1.
    5000001    1    1    2    0    0 -0.80912542652E+02 -0.22735515517E+03  0.98618499339E+03  0.10231945305E+04  0.12700000000E+03 0.  0.
   -5000001    1    1    2    0    0  0.80912542652E+02  0.22735515517E+03  0.17607744996E+04  0.17817668323E+04  0.12700000000E+03 0.  0.
<mgrwt>
<rscale>  0 0.56746964E+03</rscale>
<asrwt>0</asrwt>
<pdfrwt beam="1">  1        2 0.39656588E+00 0.56746964E+03</pdfrwt>
<pdfrwt beam="2">  1       -2 0.41429896E-02 0.56746964E+03</pdfrwt>
<totfact> 0.91491387E+02</totfact>
</mgrwt>
</event>
<event>
 4    1  0.1399921E-004  0.2962196E+03  0.7818608E-02  0.1087146E+00
          2   -1    0    0  501    0  0.00000000000E+00  0.00000000000E+00  0.70642324689E+03  0.70642324689E+03  0.25500000000E-02 0.  1.
         -2   -1    0    0    0  501 -0.00000000000E+00 -0.00000000000E+00 -0.31052924898E+02  0.31052925003E+02  0.25500000000E-02 0. -1.
    5000001    1    1    2    0    0  0.32870579696E+02  0.40926739010E+02  0.47522515802E+03  0.49469528378E+03  0.12700000000E+03 0.  0.
   -5000001    1    1    2    0    0 -0.32870579696E+02 -0.40926739010E+02  0.20014516397E+03  0.24278088812E+03  0.12700000000E+03 0.  0.
<mgrwt>
<rscale>  0 0.29621957E+03</rscale>
<asrwt>0</asrwt>
<pdfrwt beam="1">  1        2 0.10091758E+00 0.29621957E+03</pdfrwt>
<pdfrwt beam="2">  1       -2 0.44361332E-02 0.29621957E+03</pdfrwt>
<totfact> 0.10655805E+04</totfact>
</mgrwt>
</event>
<event>
 4    1  0.1399921E-004  0.1106739E+04  0.7818608E-02  0.9198648E-01
         -2   -1    0    0    0  501 -0.00000000000E+00  0.00000000000E+00  0.29225287654E+03  0.29225287655E+03  0.25500000000E-02 0. -1.
          2   -1    0    0  501    0  0.00000000000E+00 -0.00000000000E+00 -0.10477846324E+04  0.10477846325E+04  0.25500000000E-02 0.  1.
    5000001    1    1    2    0    0 -0.44391442119E+03  0.98388977783E+01 -0.86567470161E+01  0.46190990087E+03  0.12700000000E+03 0.  0.
   -5000001    1    1    2    0    0  0.44391442119E+03 -0.98388977783E+01 -0.74687500890E+03  0.87812760813E+03  0.12700000000E+03 0.  0.
<mgrwt>
<rscale>  0 0.11067395E+04</rscale>
<asrwt>0</asrwt>
<pdfrwt beam="1">  1        2 0.14968352E+00 0.11067395E+04</pdfrwt>
<pdfrwt beam="2">  1       -2 0.41750412E-01 0.11067395E+04</pdfrwt>
<totfact> 0.14151103E+02</totfact>
</mgrwt>
</event>
<event>
 4    1  0.1399921E-004  0.5615699E+03  0.7818608E-02  0.9988509E-01
         -2   -1    0    0    0  501 -0.00000000000E+00  0.00000000000E+00  0.13006664738E+03  0.13006664741E+03  0.25500000000E-02 0. -1.
          2   -1    0    0  501    0  0.00000000000E+00 -0.00000000000E+00 -0.60615227449E+03  0.60615227450E+03  0.25500000000E-02 0.  1.
    5000001    1    1    2    0    0  0.21675513956E+03  0.23224386403E+02 -0.76470040592E+02  0.26362630703E+03  0.12700000000E+03 0.  0.
   -5000001    1    1    2    0    0 -0.21675513956E+03 -0.23224386403E+02 -0.39961558652E+03  0.47259261488E+03  0.12700000000E+03 0.  0.
<mgrwt>
<rscale>  0 0.56156992E+03</rscale>
<asrwt>0</asrwt>
<pdfrwt beam="1">  1        2 0.86593181E-01 0.56156992E+03</pdfrwt>
<pdfrwt beam="2">  1       -2 0.18580950E-01 0.56156992E+03</pdfrwt>
<totfact> 0.13011409E+03</totfact>
</mgrwt>
</event>
<event>
 4    1  0.1399921E-004  0.3039231E+03  0.7818608E-02  0.1083296E+00
          2   -1    0    0  501    0  0.00000000000E+00  0.00000000000E+00  0.89734490714E+03  0.89734490715E+03  0.25500000000E-02 0. -1.
         -2   -1    0    0    0  501 -0.00000000000E+00 -0.00000000000E+00 -0.25734047117E+02  0.25734047243E+02  0.25500000000E-02 0.  1.
    5000001    1    1    2    0    0 -0.41732725388E+02 -0.16454047687E+02  0.22209790214E+03  0.25974763558E+03  0.12700000000E+03 0.  0.
   -5000001    1    1    2    0    0  0.41732725388E+02  0.16454047687E+02  0.64951295788E+03  0.66333131881E+03  0.12700000000E+03 0.  0.
<mgrwt>
<rscale>  0 0.30392312E+03</rscale>
<asrwt>0</asrwt>
<pdfrwt beam="1">  1        2 0.12819212E+00 0.30392312E+03</pdfrwt>
<pdfrwt beam="2">  1       -2 0.36762928E-02 0.30392312E+03</pdfrwt>
<totfact> 0.10518244E+04</totfact>
</mgrwt>
</event>
<event>
 4    1  0.1399921E-004  0.3120742E+03  0.7818608E-02  0.1079356E+00
          2   -1    0    0  501    0  0.00000000000E+00  0.00000000000E+00  0.28318080416E+03  0.28318080417E+03  0.25500000000E-02 0.  1.
         -2   -1    0    0    0  501 -0.00000000000E+00 -0.00000000000E+00 -0.85978920049E+02  0.85978920087E+02  0.25500000000E-02 0. -1.
    5000001    1    1    2    0    0 -0.55335250391E+02 -0.66315151040E+02  0.66013821487E+02  0.16717210838E+03  0.12700000000E+03 0.  0.
   -5000001    1    1    2    0    0  0.55335250391E+02  0.66315151040E+02  0.13118806263E+03  0.20198761588E+03  0.12700000000E+03 0.  0.
<mgrwt>
<rscale>  0 0.31207422E+03</rscale>
<asrwt>0</asrwt>
<pdfrwt beam="1">  1        2 0.40454400E-01 0.31207422E+03</pdfrwt>
<pdfrwt beam="2">  1       -2 0.12282703E-01 0.31207422E+03</pdfrwt>
<totfact> 0.60005460E+03</totfact>
</mgrwt>
</event>
<event>
 4    1  0.1399921E-004  0.2910363E+03  0.7818608E-02  0.1089809E+00
         -2   -1    0    0    0  501 -0.00000000000E+00  0.00000000000E+00  0.47983633577E+01  0.47983640353E+01  0.25500000000E-02 0. -1.
          2   -1    0    0  501    0  0.00000000000E+00 -0.00000000000E+00 -0.44130745261E+04  0.44130745261E+04  0.25500000000E-02 0.  1.
    5000001    1    1    2    0    0 -0.27919007240E+02  0.53744830431E+02 -0.16405281184E+04  0.16465507843E+04  0.12700000000E+03 0.  0.
   -5000001    1    1    2    0    0  0.27919007240E+02 -0.53744830431E+02 -0.27677480443E+04  0.27713221059E+04  0.12700000000E+03 0.  0.
<mgrwt>
<rscale>  0 0.29103633E+03</rscale>
<asrwt>0</asrwt>
<pdfrwt beam="1">  1        2 0.63043662E+00 0.29103633E+03</pdfrwt>
<pdfrwt beam="2">  1       -2 0.68548335E-03 0.29103633E+03</pdfrwt>
<totfact> 0.13782304E+03</totfact>
</mgrwt>
</event>
<event>
 4    1  0.1399921E-004  0.1211699E+04  0.7818608E-02  0.9102678E-01
         -2   -1    0    0    0  501 -0.00000000000E+00  0.00000000000E+00  0.33273582743E+03  0.33273582744E+03  0.25500000000E-02 0. -1.
          2   -1    0    0  501    0  0.00000000000E+00 -0.00000000000E+00 -0.11031376116E+04  0.11031376116E+04  0.25500000000E-02 0.  1.
    5000001    1    1    2    0    0 -0.22161379561E+03 -0.21129097808E+03 -0.98613918316E+03  0.10403634175E+04  0.12700000000E+03 0.  0.
   -5000001    1    1    2    0    0  0.22161379561E+03  0.21129097808E+03  0.21573739901E+03  0.39551002156E+03  0.12700000000E+03 0.  0.
<mgrwt>
<rscale>  0 0.12116987E+04</rscale>
<asrwt>0</asrwt>
<pdfrwt beam="1">  1        2 0.15759108E+00 0.12116987E+04</pdfrwt>
<pdfrwt beam="2">  1       -2 0.47533690E-01 0.12116987E+04</pdfrwt>
<totfact> 0.10059467E+02</totfact>
</mgrwt>
</event>
<event>
 4    1  0.1399921E-004  0.3687516E+03  0.7818608E-02  0.1055171E+00
         -2   -1    0    0    0  501 -0.00000000000E+00  0.00000000000E+00  0.10633854450E+02  0.10633854756E+02  0.25500000000E-02 0. -1.
          2   -1    0    0  501    0  0.00000000000E+00 -0.00000000000E+00 -0.31968118223E+04  0.31968118223E+04  0.25500000000E-02 0.  1.
    5000001    1    1    2    0    0  0.10357567776E+03  0.76495700912E+02 -0.19050010656E+04  0.19135667151E+04  0.12700000000E+03 0.  0.
   -5000001    1    1    2    0    0 -0.10357567776E+03 -0.76495700912E+02 -0.12811769022E+04  0.12938789619E+04  0.12700000000E+03 0.  0.
<mgrwt>
<rscale>  0 0.36875158E+03</rscale>
<asrwt>0</asrwt>
<pdfrwt beam="1">  1        2 0.45668679E+00 0.36875158E+03</pdfrwt>
<pdfrwt beam="2">  1       -2 0.15191241E-02 0.36875158E+03</pdfrwt>
<totfact> 0.24956895E+03</totfact>
</mgrwt>
</event>
<event>
 4    1  0.1399921E-004  0.3295735E+03  0.7818608E-02  0.1071326E+00
         -2   -1    0    0    0  501 -0.00000000000E+00  0.00000000000E+00  0.34783528052E+02  0.34783528145E+02  0.25500000000E-02 0. -1.
          2   -1    0    0  501    0  0.00000000000E+00 -0.00000000000E+00 -0.78067632362E+03  0.78067632362E+03  0.25500000000E-02 0.  1.
    5000001    1    1    2    0    0  0.10020669165E+03  0.31530664318E+01 -0.29571237665E+03  0.33708475578E+03  0.12700000000E+03 0.  0.
   -5000001    1    1    2    0    0 -0.10020669165E+03 -0.31530664318E+01 -0.45018041892E+03  0.47837509599E+03  0.12700000000E+03 0.  0.
<mgrwt>
<rscale>  0 0.32957352E+03</rscale>
<asrwt>0</asrwt>
<pdfrwt beam="1">  1        2 0.11152518E+00 0.32957352E+03</pdfrwt>
<pdfrwt beam="2">  1       -2 0.49690759E-02 0.32957352E+03</pdfrwt>
<totfact> 0.79695394E+03</totfact>
</mgrwt>
</event>
<event>
 4    1  0.1399921E-004  0.8595363E+03  0.7818608E-02  0.9477626E-01
         -2   -1    0    0    0  501 -0.00000000000E+00  0.00000000000E+00  0.47203162095E+03  0.47203162096E+03  0.25500000000E-02 0. -1.
          2   -1    0    0  501    0  0.00000000000E+00 -0.00000000000E+00 -0.39128873906E+03  0.39128873907E+03  0.25500000000E-02 0.  1.
    5000001    1    1    2    0    0  0.87405076255E+02  0.31156810090E+03  0.29418401918E+03  0.45539824989E+03  0.12700000000E+03 0.  0.
   -5000001    1    1    2    0    0 -0.87405076255E+02 -0.31156810090E+03 -0.21344113729E+03  0.40792211014E+03  0.12700000000E+03 0.  0.
<mgrwt>
<rscale>  0 0.85953629E+03</rscale>
<asrwt>0</asrwt>
<pdfrwt beam="1">  1        2 0.55898391E-01 0.85953629E+03</pdfrwt>
<pdfrwt beam="2">  1       -2 0.67433089E-01 0.85953629E+03</pdfrwt>
<totfact> 0.17971486E+02</totfact>
</mgrwt>
</event>
<event>
 4    1  0.1399921E-004  0.3178495E+03  0.7818608E-02  0.1076643E+00
          2   -1    0    0  501    0  0.00000000000E+00  0.00000000000E+00  0.12488298835E+04  0.12488298835E+04  0.25500000000E-02 0.  1.
         -2   -1    0    0    0  501 -0.00000000000E+00 -0.00000000000E+00 -0.20224594011E+02  0.20224594172E+02  0.25500000000E-02 0. -1.
    5000001    1    1    2    0    0 -0.83369576955E+02 -0.41516088735E+02  0.52923012840E+03  0.55216628003E+03  0.12700000000E+03 0.  0.
   -5000001    1    1    2    0    0  0.83369576955E+02  0.41516088735E+02  0.69937516104E+03  0.71688819760E+03  0.12700000000E+03 0.  0.
<mgrwt>
<rscale>  0 0.31784951E+03</rscale>
<asrwt>0</asrwt>
<pdfrwt beam="1">  1        2 0.17840432E+00 0.31784951E+03</pdfrwt>
<pdfrwt beam="2">  1       -2 0.28892269E-02 0.31784951E+03</pdfrwt>
<totfact> 0.94757147E+03</totfact>
</mgrwt>
</event>
<event>
 4    1  0.1399921E-004  0.2842694E+03  0.7818608E-02  0.1093380E+00
          2   -1    0    0  501    0  0.00000000000E+00  0.00000000000E+00  0.31946855115E+03  0.31946855116E+03  0.25500000000E-02 0.  1.
         -2   -1    0    0    0  501 -0.00000000000E+00 -0.00000000000E+00 -0.63237131234E+02  0.63237131286E+02  0.25500000000E-02 0. -1.
    5000001    1    1    2    0    0  0.56556925693E+02 -0.10548829801E+02  0.16531079485E+03  0.21625591911E+03  0.12700000000E+03 0.  0.
   -5000001    1    1    2    0    0 -0.56556925693E+02  0.10548829801E+02  0.90920625066E+02  0.16644976334E+03  0.12700000000E+03 0.  0.
<mgrwt>
<rscale>  0 0.28426941E+03</rscale>
<asrwt>0</asrwt>
<pdfrwt beam="1">  1        2 0.45638365E-01 0.28426941E+03</pdfrwt>
<pdfrwt beam="2">  1       -2 0.90338759E-02 0.28426941E+03</pdfrwt>
<totfact> 0.85844486E+03</totfact>
</mgrwt>
</event>
<event>
 4    1  0.1399921E-004  0.3721822E+03  0.7818608E-02  0.1053862E+00
          2   -1    0    0  501    0  0.00000000000E+00  0.00000000000E+00  0.17688040163E+03  0.17688040165E+03  0.25500000000E-02 0.  1.
         -2   -1    0    0    0  501 -0.00000000000E+00 -0.00000000000E+00 -0.19578147428E+03  0.19578147430E+03  0.25500000000E-02 0. -1.
    5000001    1    1    2    0    0  0.77679736508E+02 -0.20822236920E+02 -0.11928783941E+03  0.19190178646E+03  0.12700000000E+03 0.  0.
   -5000001    1    1    2    0    0 -0.77679736508E+02  0.20822236920E+02  0.10038676676E+03  0.18076008949E+03  0.12700000000E+03 0.  0.
<mgrwt>
<rscale>  0 0.37218224E+03</rscale>
<asrwt>0</asrwt>
<pdfrwt beam="1">  1        2 0.25268629E-01 0.37218224E+03</pdfrwt>
<pdfrwt beam="2">  1       -2 0.27968782E-01 0.37218224E+03</pdfrwt>
<totfact> 0.24848757E+03</totfact>
</mgrwt>
</event>
<event>
 4    1  0.1399921E-004  0.3195663E+03  0.7818608E-02  0.1075849E+00
          2   -1    0    0  501    0  0.00000000000E+00  0.00000000000E+00  0.52518414549E+02  0.52518414611E+02  0.25500000000E-02 0. -1.
         -2   -1    0    0    0  501 -0.00000000000E+00 -0.00000000000E+00 -0.48612770782E+03  0.48612770783E+03  0.25500000000E-02 0.  1.
    5000001    1    1    2    0    0 -0.94896819564E+02 -0.10495383270E+01 -0.18329863161E+03  0.24235077108E+03  0.12700000000E+03 0.  0.
   -5000001    1    1    2    0    0  0.94896819564E+02  0.10495383270E+01 -0.25031066167E+03  0.29629535136E+03  0.12700000000E+03 0.  0.
<mgrwt>
<rscale>  0 0.31956631E+03</rscale>
<asrwt>0</asrwt>
<pdfrwt beam="1">  1        2 0.75026309E-02 0.31956631E+03</pdfrwt>
<pdfrwt beam="2">  1       -2 0.69446813E-01 0.31956631E+03</pdfrwt>
<totfact> 0.17983070E+03</totfact>
</mgrwt>
</event>
<event>
 4    1  0.1399921E-004  0.4448669E+03  0.7818608E-02  0.1029264E+00
          2   -1    0    0  501    0  0.00000000000E+00  0.00000000000E+00  0.19905598543E+04  0.19905598543E+04  0.25500000000E-02 0.  1.
         -2   -1    0    0    0  501 -0.00000000000E+00 -0.00000000000E+00 -0.24855643221E+02  0.24855643352E+02  0.25500000000E-02 0. -1.
    5000001    1    1    2    0    0  0.13205587297E+02  0.17783258359E+03  0.11611459708E+04  0.11816039019E+04  0.12700000000E+03 0.  0.
   -5000001    1    1    2    0    0 -0.13205587297E+02 -0.17783258359E+03  0.80455824024E+03  0.83381159578E+03  0.12700000000E+03 0.  0.
<mgrwt>
<rscale>  0 0.44486693E+03</rscale>
<asrwt>0</asrwt>
<pdfrwt beam="1">  1        2 0.28436570E+00 0.44486693E+03</pdfrwt>
<pdfrwt beam="2">  1       -2 0.35508060E-02 0.44486693E+03</pdfrwt>
<totfact> 0.29218104E+03</totfact>
</mgrwt>
</event>
<event>
 4    1  0.1399921E-004  0.3927180E+03  0.7818608E-02  0.1046331E+00
          2   -1    0    0  501    0  0.00000000000E+00  0.00000000000E+00  0.16395420445E+04  0.16395420445E+04  0.25500000000E-02 0.  1.
         -2   -1    0    0    0  501 -0.00000000000E+00 -0.00000000000E+00 -0.23516848390E+02  0.23516848529E+02  0.25500000000E-02 0. -1.
    5000001    1    1    2    0    0  0.14897538983E+03  0.30458818785E+01  0.74450311917E+03  0.76981610701E+03  0.12700000000E+03 0.  0.
   -5000001    1    1    2    0    0 -0.14897538983E+03 -0.30458818785E+01  0.87152207693E+03  0.89324278600E+03  0.12700000000E+03 0.  0.
<mgrwt>
<rscale>  0 0.39271803E+03</rscale>
<asrwt>0</asrwt>
<pdfrwt beam="1">  1        2 0.23422024E+00 0.39271803E+03</pdfrwt>
<pdfrwt beam="2">  1       -2 0.33595505E-02 0.39271803E+03</pdfrwt>
<totfact> 0.47575147E+03</totfact>
</mgrwt>
</event>
<event>
 4    1  0.1399921E-004  0.5813025E+03  0.7818608E-02  0.9944975E-01
         -2   -1    0    0    0  501 -0.00000000000E+00  0.00000000000E+00  0.26465779368E+02  0.26465779491E+02  0.25500000000E-02 0. -1.
          2   -1    0    0  501    0  0.00000000000E+00 -0.00000000000E+00 -0.31919768203E+04  0.31919768203E+04  0.25500000000E-02 0.  1.
    5000001    1    1    2    0    0  0.58588559626E+02  0.23874286171E+03 -0.20754319261E+04  0.20937949883E+04  0.12700000000E+03 0.  0.
   -5000001    1    1    2    0    0 -0.58588559626E+02 -0.23874286171E+03 -0.10900791148E+04  0.11246476114E+04  0.12700000000E+03 0.  0.
<mgrwt>
<rscale>  0 0.58130252E+03</rscale>
<asrwt>0</asrwt>
<pdfrwt beam="1">  1        2 0.45599644E+00 0.58130252E+03</pdfrwt>
<pdfrwt beam="2">  1       -2 0.37808277E-02 0.58130252E+03</pdfrwt>
<totfact> 0.62521161E+02</totfact>
</mgrwt>
</event>
<event>
 4    1  0.1399921E-004  0.5069361E+03  0.7818608E-02  0.1011984E+00
          2   -1    0    0  501    0  0.00000000000E+00  0.00000000000E+00  0.29436279149E+03  0.29436279150E+03  0.25500000000E-02 0.  1.
         -2   -1    0    0    0  501 -0.00000000000E+00 -0.00000000000E+00 -0.21825463135E+03  0.21825463136E+03  0.25500000000E-02 0. -1.
    5000001    1    1    2    0    0 -0.80119547655E+02 -0.14411084942E+03  0.18434737260E+03  0.27802883415E+03  0.12700000000E+03 0.  0.
   -5000001    1    1    2    0    0  0.80119547655E+02  0.14411084942E+03 -0.10823921246E+03  0.23458858870E+03  0.12700000000E+03 0.  0.
<mgrwt>
<rscale>  0 0.50693606E+03</rscale>
<asrwt>0</asrwt>
<pdfrwt beam="1">  1        2 0.42051827E-01 0.50693606E+03</pdfrwt>
<pdfrwt beam="2">  1       -2 0.31179233E-01 0.50693606E+03</pdfrwt>
<totfact> 0.11613615E+03</totfact>
</mgrwt>
</event>
<event>
 4    1  0.1399921E-004  0.3910112E+03  0.7818608E-02  0.1046937E+00
         -2   -1    0    0    0  501 -0.00000000000E+00  0.00000000000E+00  0.28051331072E+02  0.28051331188E+02  0.25500000000E-02 0.  1.
          2   -1    0    0  501    0  0.00000000000E+00 -0.00000000000E+00 -0.13625890996E+04  0.13625890996E+04  0.25500000000E-02 0. -1.
    5000001    1    1    2    0    0 -0.45514125365E+02  0.10173575098E+03 -0.10170351790E+04  0.10309758746E+04  0.12700000000E+03 0.  0.
   -5000001    1    1    2    0    0  0.45514125365E+02 -0.10173575098E+03 -0.31750258946E+03  0.35966455615E+03  0.12700000000E+03 0.  0.
<mgrwt>
<rscale>  0 0.39101119E+03</rscale>
<asrwt>0</asrwt>
<pdfrwt beam="1">  1        2 0.19465554E+00 0.39101119E+03</pdfrwt>
<pdfrwt beam="2">  1       -2 0.40073339E-02 0.39101119E+03</pdfrwt>
<totfact> 0.50532457E+03</totfact>
</mgrwt>
</event>
<event>
 4    1  0.1399921E-004  0.3154897E+03  0.7818608E-02  0.1077744E+00
          2   -1    0    0  501    0  0.00000000000E+00  0.00000000000E+00  0.16758948266E+04  0.16758948266E+04  0.25500000000E-02 0.  1.
         -2   -1    0    0    0  501 -0.00000000000E+00 -0.00000000000E+00 -0.14847849454E+02  0.14847849673E+02  0.25500000000E-02 0. -1.
    5000001    1    1    2    0    0  0.32360242020E+02 -0.58205618982E+02  0.47831338851E+03  0.49934735102E+03  0.12700000000E+03 0.  0.
   -5000001    1    1    2    0    0 -0.32360242020E+02  0.58205618982E+02  0.11827335886E+04  0.11913953252E+04  0.12700000000E+03 0.  0.
<mgrwt>
<rscale>  0 0.31548968E+03</rscale>
<asrwt>0</asrwt>
<pdfrwt beam="1">  1        2 0.23941348E+00 0.31548968E+03</pdfrwt>
<pdfrwt beam="2">  1       -2 0.21211219E-02 0.31548968E+03</pdfrwt>
<totfact> 0.90521780E+03</totfact>
</mgrwt>
</event>
<event>
 4    1  0.1399921E-004  0.5571570E+03  0.7818608E-02  0.9998508E-01
         -2   -1    0    0    0  501 -0.00000000000E+00  0.00000000000E+00  0.87243920526E+02  0.87243920563E+02  0.25500000000E-02 0. -1.
          2   -1    0    0  501    0  0.00000000000E+00 -0.00000000000E+00 -0.88952889704E+03  0.88952889705E+03  0.25500000000E-02 0.  1.
    5000001    1    1    2    0    0 -0.12170832613E+03  0.21599908439E+03 -0.39604109530E+03  0.48419631377E+03  0.12700000000E+03 0.  0.
   -5000001    1    1    2    0    0  0.12170832613E+03 -0.21599908439E+03 -0.40624388122E+03  0.49257650384E+03  0.12700000000E+03 0.  0.
<mgrwt>
<rscale>  0 0.55715703E+03</rscale>
<asrwt>0</asrwt>
<pdfrwt beam="1">  1        2 0.12707555E+00 0.55715703E+03</pdfrwt>
<pdfrwt beam="2">  1       -2 0.12463418E-01 0.55715703E+03</pdfrwt>
<totfact> 0.15826732E+03</totfact>
</mgrwt>
</event>
<event>
 4    1  0.1399921E-004  0.4439338E+03  0.7818608E-02  0.1029547E+00
          2   -1    0    0  501    0  0.00000000000E+00  0.00000000000E+00  0.25939181138E+04  0.25939181138E+04  0.25500000000E-02 0.  1.
         -2   -1    0    0    0  501 -0.00000000000E+00 -0.00000000000E+00 -0.18994162521E+02  0.18994162692E+02  0.25500000000E-02 0. -1.
    5000001    1    1    2    0    0 -0.13446759191E+03 -0.81164264927E+01  0.20081533839E+04  0.20166696366E+04  0.12700000000E+03 0.  0.
   -5000001    1    1    2    0    0  0.13446759191E+03  0.81164264927E+01  0.56677056730E+03  0.59624263988E+03  0.12700000000E+03 0.  0.
<mgrwt>
<rscale>  0 0.44393379E+03</rscale>
<asrwt>0</asrwt>
<pdfrwt beam="1">  1        2 0.37055987E+00 0.44393379E+03</pdfrwt>
<pdfrwt beam="2">  1       -2 0.27134508E-02 0.44393379E+03</pdfrwt>
<totfact> 0.21844064E+03</totfact>
</mgrwt>
</event>
<event>
 4    1  0.1399921E-004  0.3418909E+03  0.7818608E-02  0.1065993E+00
          2   -1    0    0  501    0  0.00000000000E+00  0.00000000000E+00  0.56975112393E+03  0.56975112393E+03  0.25500000000E-02 0.  1.
         -2   -1    0    0    0  501 -0.00000000000E+00 -0.00000000000E+00 -0.51289657130E+02  0.51289657194E+02  0.25500000000E-02 0. -1.
    5000001    1    1    2    0    0  0.72905833084E+02 -0.55880097160E+02  0.38317188265E+03  0.41398977935E+03  0.12700000000E+03 0.  0.
   -5000001    1    1    2    0    0 -0.72905833084E+02  0.55880097160E+02  0.13528958415E+03  0.20705100177E+03  0.12700000000E+03 0.  0.
<mgrwt>
<rscale>  0 0.34189086E+03</rscale>
<asrwt>0</asrwt>
<pdfrwt beam="1">  1        2 0.81393011E-01 0.34189086E+03</pdfrwt>
<pdfrwt beam="2">  1       -2 0.73270945E-02 0.34189086E+03</pdfrwt>
<totfact> 0.63592777E+03</totfact>
</mgrwt>
</event>
<event>
 4    1  0.1399921E-004  0.2782421E+03  0.7818608E-02  0.1096653E+00
         -2   -1    0    0    0  501 -0.00000000000E+00  0.00000000000E+00  0.21435431523E+02  0.21435431675E+02  0.25500000000E-02 0.  1.
          2   -1    0    0  501    0  0.00000000000E+00 -0.00000000000E+00 -0.90292900883E+03  0.90292900884E+03  0.25500000000E-02 0. -1.
    5000001    1    1    2    0    0  0.86020136055E+01  0.56084463181E+02 -0.43246710494E+03  0.45428653789E+03  0.12700000000E+03 0.  0.
   -5000001    1    1    2    0    0 -0.86020136055E+01 -0.56084463181E+02 -0.44902647237E+03  0.47007790262E+03  0.12700000000E+03 0.  0.
<mgrwt>
<rscale>  0 0.27824215E+03</rscale>
<asrwt>0</asrwt>
<pdfrwt beam="1">  1        2 0.12898983E+00 0.27824215E+03</pdfrwt>
<pdfrwt beam="2">  1       -2 0.30622051E-02 0.27824215E+03</pdfrwt>
<totfact> 0.13674043E+04</totfact>
</mgrwt>
</event>
<event>
 4    1  0.1399921E-004  0.3043037E+03  0.7818608E-02  0.1083109E+00
          2   -1    0    0  501    0  0.00000000000E+00  0.00000000000E+00  0.11155968069E+03  0.11155968072E+03  0.25500000000E-02 0.  1.
         -2   -1    0    0    0  501 -0.00000000000E+00 -0.00000000000E+00 -0.20751389196E+03  0.20751389197E+03  0.25500000000E-02 0. -1.
    5000001    1    1    2    0    0 -0.50867319473E+02 -0.52302725825E+02 -0.91185521843E+02  0.17253074715E+03  0.12700000000E+03 0.  0.
   -5000001    1    1    2    0    0  0.50867319473E+02  0.52302725825E+02 -0.47686894178E+01  0.14654282554E+03  0.12700000000E+03 0.  0.
<mgrwt>
<rscale>  0 0.30430369E+03</rscale>
<asrwt>0</asrwt>
<pdfrwt beam="1">  1        2 0.15937097E-01 0.30430369E+03</pdfrwt>
<pdfrwt beam="2">  1       -2 0.29644842E-01 0.30430369E+03</pdfrwt>
<totfact> 0.37854721E+03</totfact>
</mgrwt>
</event>
<event>
 4    1  0.1399921E-004  0.5302082E+03  0.7818608E-02  0.1006182E+00
          2   -1    0    0  501    0  0.00000000000E+00  0.00000000000E+00  0.79969788310E+03  0.79969788311E+03  0.25500000000E-02 0.  1.
         -2   -1    0    0    0  501 -0.00000000000E+00 -0.00000000000E+00 -0.87883421493E+02  0.87883421530E+02  0.25500000000E-02 0. -1.
    5000001    1    1    2    0    0  0.21189148752E+03  0.35705123551E+02  0.20638091349E+03  0.32387488292E+03  0.12700000000E+03 0.  0.
   -5000001    1    1    2    0    0 -0.21189148752E+03 -0.35705123551E+02  0.50543354811E+03  0.56370642172E+03  0.12700000000E+03 0.  0.
<mgrwt>
<rscale>  0 0.53020821E+03</rscale>
<asrwt>0</asrwt>
<pdfrwt beam="1">  1        2 0.11424255E+00 0.53020821E+03</pdfrwt>
<pdfrwt beam="2">  1       -2 0.12554776E-01 0.53020821E+03</pdfrwt>
<totfact> 0.17959686E+03</totfact>
</mgrwt>
</event>
<event>
 4    1  0.1399921E-004  0.4142201E+03  0.7818608E-02  0.1038964E+00
          2   -1    0    0  501    0  0.00000000000E+00  0.00000000000E+00  0.40847032998E+03  0.40847032999E+03  0.25500000000E-02 0.  1.
         -2   -1    0    0    0  501 -0.00000000000E+00 -0.00000000000E+00 -0.10501267996E+03  0.10501267999E+03  0.25500000000E-02 0. -1.
    5000001    1    1    2    0    0  0.35079952302E+02 -0.14965970643E+03  0.82298756600E+02  0.21570979607E+03  0.12700000000E+03 0.  0.
   -5000001    1    1    2    0    0 -0.35079952302E+02  0.14965970643E+03  0.22115889343E+03  0.29777321391E+03  0.12700000000E+03 0.  0.
<mgrwt>
<rscale>  0 0.41422006E+03</rscale>
<asrwt>0</asrwt>
<pdfrwt beam="1">  1        2 0.58352904E-01 0.41422006E+03</pdfrwt>
<pdfrwt beam="2">  1       -2 0.15001811E-01 0.41422006E+03</pdfrwt>
<totfact> 0.29181772E+03</totfact>
</mgrwt>
</event>
<event>
 4    1  0.1399921E-004  0.6852340E+03  0.7818608E-02  0.9742823E-01
          2   -1    0    0  501    0  0.00000000000E+00  0.00000000000E+00  0.27182739416E+04  0.27182739416E+04  0.25500000000E-02 0. -1.
         -2   -1    0    0    0  501 -0.00000000000E+00 -0.00000000000E+00 -0.43184168918E+02  0.43184168994E+02  0.25500000000E-02 0.  1.
    5000001    1    1    2    0    0 -0.16927150244E+03  0.13572575640E+03  0.39948317705E+03  0.47200649491E+03  0.12700000000E+03 0.  0.
   -5000001    1    1    2    0    0  0.16927150244E+03 -0.13572575640E+03  0.22756065956E+04  0.22894516157E+04  0.12700000000E+03 0.  0.
<mgrwt>
<rscale>  0 0.68523398E+03</rscale>
<asrwt>0</asrwt>
<pdfrwt beam="1">  1        2 0.38832494E+00 0.68523398E+03</pdfrwt>
<pdfrwt beam="2">  1       -2 0.61691656E-02 0.68523398E+03</pdfrwt>
<totfact> 0.52327558E+02</totfact>
</mgrwt>
</event>
<event>
 4    1  0.1399921E-004  0.5431548E+03  0.7818608E-02  0.1003091E+00
         -2   -1    0    0    0  501 -0.00000000000E+00  0.00000000000E+00  0.72064111614E+03  0.72064111615E+03  0.25500000000E-02 0. -1.
          2   -1    0    0  501    0  0.00000000000E+00 -0.00000000000E+00 -0.10234536679E+03  0.10234536682E+03  0.25500000000E-02 0.  1.
    5000001    1    1    2    0    0  0.14194820588E+03 -0.17466865737E+03  0.43561778507E+03  0.50650793448E+03  0.12700000000E+03 0.  0.
   -5000001    1    1    2    0    0 -0.14194820588E+03  0.17466865737E+03  0.18267796428E+03  0.31647854849E+03  0.12700000000E+03 0.  0.
<mgrwt>
<rscale>  0 0.54315478E+03</rscale>
<asrwt>0</asrwt>
<pdfrwt beam="1">  1        2 0.14620766E-01 0.54315478E+03</pdfrwt>
<pdfrwt beam="2">  1       -2 0.10294873E+00 0.54315478E+03</pdfrwt>
<totfact> 0.32257124E+02</totfact>
</mgrwt>
</event>
<event>
 4    1  0.1399921E-004  0.7911823E+03  0.7818608E-02  0.9572869E-01
         -2   -1    0    0    0  501 -0.00000000000E+00  0.00000000000E+00  0.97004758119E+02  0.97004758152E+02  0.25500000000E-02 0. -1.
          2   -1    0    0  501    0  0.00000000000E+00 -0.00000000000E+00 -0.16132442054E+04  0.16132442054E+04  0.25500000000E-02 0.  1.
    5000001    1    1    2    0    0 -0.26932611827E+03 -0.18524835105E+03 -0.36241700393E+03  0.50431001803E+03  0.12700000000E+03 0.  0.
   -5000001    1    1    2    0    0  0.26932611827E+03  0.18524835105E+03 -0.11538224433E+04  0.12059389455E+04  0.12700000000E+03 0.  0.
<mgrwt>
<rscale>  0 0.79118232E+03</rscale>
<asrwt>0</asrwt>
<pdfrwt beam="1">  1        2 0.23046344E+00 0.79118232E+03</pdfrwt>
<pdfrwt beam="2">  1       -2 0.13857824E-01 0.79118232E+03</pdfrwt>
<totfact> 0.51476859E+02</totfact>
</mgrwt>
</event>
<event>
 4    1  0.1399921E-004  0.5700632E+03  0.7818608E-02  0.9969539E-01
          2   -1    0    0  501    0  0.00000000000E+00  0.00000000000E+00  0.16230702924E+03  0.16230702926E+03  0.25500000000E-02 0.  1.
         -2   -1    0    0    0  501 -0.00000000000E+00 -0.00000000000E+00 -0.50055138907E+03  0.50055138907E+03  0.25500000000E-02 0. -1.
    5000001    1    1    2    0    0 -0.52476044649E+02  0.59077021417E+02  0.11300534554E+03  0.18746476427E+03  0.12700000000E+03 0.  0.
   -5000001    1    1    2    0    0  0.52476044649E+02 -0.59077021417E+02 -0.45124970537E+03  0.47539365406E+03  0.12700000000E+03 0.  0.
<mgrwt>
<rscale>  0 0.57006319E+03</rscale>
<asrwt>0</asrwt>
<pdfrwt beam="1">  1        2 0.23186719E-01 0.57006319E+03</pdfrwt>
<pdfrwt beam="2">  1       -2 0.71507341E-01 0.57006319E+03</pdfrwt>
<totfact> 0.42809551E+02</totfact>
</mgrwt>
</event>
<event>
 4    1  0.1399921E-004  0.6007121E+03  0.7818608E-02  0.9903930E-01
         -2   -1    0    0    0  501 -0.00000000000E+00  0.00000000000E+00  0.53863311183E+02  0.53863311243E+02  0.25500000000E-02 0. -1.
          2   -1    0    0  501    0  0.00000000000E+00 -0.00000000000E+00 -0.16748646901E+04  0.16748646901E+04  0.25500000000E-02 0.  1.
    5000001    1    1    2    0    0  0.36667201816E+02  0.25719183555E+03 -0.10441635931E+04  0.10834660738E+04  0.12700000000E+03 0.  0.
   -5000001    1    1    2    0    0 -0.36667201816E+02 -0.25719183555E+03 -0.57683778581E+03  0.64526192752E+03  0.12700000000E+03 0.  0.
<mgrwt>
<rscale>  0 0.60071210E+03</rscale>
<asrwt>0</asrwt>
<pdfrwt beam="1">  1        2 0.23926635E+00 0.60071210E+03</pdfrwt>
<pdfrwt beam="2">  1       -2 0.76947598E-02 0.60071210E+03</pdfrwt>
<totfact> 0.12610047E+03</totfact>
</mgrwt>
</event>
<event>
 4    1  0.1399921E-004  0.3458355E+03  0.7818608E-02  0.1064337E+00
          2   -1    0    0  501    0  0.00000000000E+00  0.00000000000E+00  0.23302925535E+03  0.23302925537E+03  0.25500000000E-02 0.  1.
         -2   -1    0    0    0  501 -0.00000000000E+00 -0.00000000000E+00 -0.12831242300E+03  0.12831242302E+03  0.25500000000E-02 0. -1.
    5000001    1    1    2    0    0 -0.10655869027E+03 -0.49011336954E+02  0.56362032688E+02  0.18183108742E+03  0.12700000000E+03 0.  0.
   -5000001    1    1    2    0    0  0.10655869027E+03  0.49011336954E+02  0.48354799666E+02  0.17951059098E+03  0.12700000000E+03 0.  0.
<mgrwt>
<rscale>  0 0.34583550E+03</rscale>
<asrwt>0</asrwt>
<pdfrwt beam="1">  1        2 0.33289894E-01 0.34583550E+03</pdfrwt>
<pdfrwt beam="2">  1       -2 0.18330346E-01 0.34583550E+03</pdfrwt>
<totfact> 0.38287314E+03</totfact>
</mgrwt>
</event>
<event>
 4    1  0.1399921E-004  0.3780403E+03  0.7818608E-02  0.1051660E+00
          2   -1    0    0  501    0  0.00000000000E+00  0.00000000000E+00  0.91982297868E+03  0.91982297868E+03  0.25500000000E-02 0.  1.
         -2   -1    0    0    0  501 -0.00000000000E+00 -0.00000000000E+00 -0.38842923282E+02  0.38842923366E+02  0.25500000000E-02 0. -1.
    5000001    1    1    2    0    0  0.76796235569E+02 -0.99518079355E+02  0.28420671707E+03  0.33571411639E+03  0.12700000000E+03 0.  0.
   -5000001    1    1    2    0    0 -0.76796235569E+02  0.99518079355E+02  0.59677333833E+03  0.62295178566E+03  0.12700000000E+03 0.  0.
<mgrwt>
<rscale>  0 0.37804028E+03</rscale>
<asrwt>0</asrwt>
<pdfrwt beam="1">  1        2 0.13140328E+00 0.37804028E+03</pdfrwt>
<pdfrwt beam="2">  1       -2 0.55489891E-02 0.37804028E+03</pdfrwt>
<totfact> 0.54714643E+03</totfact>
</mgrwt>
</event>
<event>
 4    1  0.1399921E-004  0.3485719E+03  0.7818608E-02  0.1063203E+00
         -2   -1    0    0    0  501 -0.00000000000E+00  0.00000000000E+00  0.10816847444E+02  0.10816847745E+02  0.25500000000E-02 0. -1.
          2   -1    0    0  501    0  0.00000000000E+00 -0.00000000000E+00 -0.28081742075E+04  0.28081742075E+04  0.25500000000E-02 0.  1.
    5000001    1    1    2    0    0  0.44019974457E+02 -0.10153831740E+03 -0.17602437513E+04  0.17682858514E+04  0.12700000000E+03 0.  0.
   -5000001    1    1    2    0    0 -0.44019974457E+02  0.10153831740E+03 -0.10371136087E+04  0.10507052039E+04  0.12700000000E+03 0.  0.
<mgrwt>
<rscale>  0 0.34857190E+03</rscale>
<asrwt>0</asrwt>
<pdfrwt beam="1">  1        2 0.40116728E+00 0.34857190E+03</pdfrwt>
<pdfrwt beam="2">  1       -2 0.15452657E-02 0.34857190E+03</pdfrwt>
<totfact> 0.39360923E+03</totfact>
</mgrwt>
</event>
<event>
 4    1  0.1399921E-004  0.3952212E+03  0.7818608E-02  0.1045447E+00
          2   -1    0    0  501    0  0.00000000000E+00  0.00000000000E+00  0.15807226544E+04  0.15807226544E+04  0.25500000000E-02 0.  1.
         -2   -1    0    0    0  501 -0.00000000000E+00 -0.00000000000E+00 -0.24703860915E+02  0.24703861047E+02  0.25500000000E-02 0. -1.
    5000001    1    1    2    0    0  0.89017077274E+02  0.10362651116E+03  0.51292973543E+03  0.54579154203E+03  0.12700000000E+03 0.  0.
   -5000001    1    1    2    0    0 -0.89017077274E+02 -0.10362651116E+03  0.10430890581E+04  0.10596349734E+04  0.12700000000E+03 0.  0.
<mgrwt>
<rscale>  0 0.39522122E+03</rscale>
<asrwt>0</asrwt>
<pdfrwt beam="1">  1        2 0.22581753E+00 0.39522122E+03</pdfrwt>
<pdfrwt beam="2">  1       -2 0.35291229E-02 0.39522122E+03</pdfrwt>
<totfact> 0.47290658E+03</totfact>
</mgrwt>
</event>
<event>
 4    1  0.1399921E-004  0.3504056E+03  0.7818608E-02  0.1062449E+00
         -2   -1    0    0    0  501 -0.00000000000E+00  0.00000000000E+00  0.33975840455E+02  0.33975840550E+02  0.25500000000E-02 0. -1.
          2   -1    0    0  501    0  0.00000000000E+00 -0.00000000000E+00 -0.90346630274E+03  0.90346630274E+03  0.25500000000E-02 0.  1.
    5000001    1    1    2    0    0 -0.69642398456E+02 -0.40482497068E+02 -0.67519747465E+03  0.69174382975E+03  0.12700000000E+03 0.  0.
   -5000001    1    1    2    0    0  0.69642398456E+02  0.40482497068E+02 -0.19429298764E+03  0.24569831354E+03  0.12700000000E+03 0.  0.
<mgrwt>
<rscale>  0 0.35040563E+03</rscale>
<asrwt>0</asrwt>
<pdfrwt beam="1">  1        2 0.12906660E+00 0.35040563E+03</pdfrwt>
<pdfrwt beam="2">  1       -2 0.48536921E-02 0.35040563E+03</pdfrwt>
<totfact> 0.68697684E+03</totfact>
</mgrwt>
</event>
<event>
 4    1  0.1399921E-004  0.6975253E+03  0.7818608E-02  0.9721474E-01
          2   -1    0    0  501    0  0.00000000000E+00  0.00000000000E+00  0.16820975327E+04  0.16820975327E+04  0.25500000000E-02 0.  1.
         -2   -1    0    0    0  501 -0.00000000000E+00 -0.00000000000E+00 -0.72311737189E+02  0.72311737234E+02  0.25500000000E-02 0. -1.
    5000001    1    1    2    0    0 -0.51570955559E+02 -0.31982259055E+03  0.86443134028E+03  0.93183506853E+03  0.12700000000E+03 0.  0.
   -5000001    1    1    2    0    0  0.51570955559E+02  0.31982259055E+03  0.74535445524E+03  0.82257420142E+03  0.12700000000E+03 0.  0.
<mgrwt>
<rscale>  0 0.69752532E+03</rscale>
<asrwt>0</asrwt>
<pdfrwt beam="1">  1        2 0.24029960E+00 0.69752532E+03</pdfrwt>
<pdfrwt beam="2">  1       -2 0.10330250E-01 0.69752532E+03</pdfrwt>
<totfact> 0.77482016E+02</totfact>
</mgrwt>
</event>
<event>
 4    1  0.1399921E-004  0.3795825E+03  0.7818608E-02  0.1051088E+00
          2   -1    0    0  501    0  0.00000000000E+00  0.00000000000E+00  0.22029736242E+03  0.22029736244E+03  0.25500000000E-02 0.  1.
         -2   -1    0    0    0  501 -0.00000000000E+00 -0.00000000000E+00 -0.16350955695E+03  0.16350955697E+03  0.25500000000E-02 0. -1.
    5000001    1    1    2    0    0 -0.25746223118E+02  0.12294298171E+03 -0.36459439379E+02  0.18230780421E+03  0.12700000000E+03 0.  0.
   -5000001    1    1    2    0    0  0.25746223118E+02 -0.12294298171E+03  0.93247244848E+02  0.20149911520E+03  0.12700000000E+03 0.  0.
<mgrwt>
<rscale>  0 0.37958253E+03</rscale>
<asrwt>0</asrwt>
<pdfrwt beam="1">  1        2 0.31471052E-01 0.37958253E+03</pdfrwt>
<pdfrwt beam="2">  1       -2 0.23358508E-01 0.37958253E+03</pdfrwt>
<totfact> 0.26833060E+03</totfact>
</mgrwt>
</event>
<event>
 4    1  0.1399921E-004  0.2912387E+03  0.7818608E-02  0.1089704E+00
          2   -1    0    0  501    0  0.00000000000E+00  0.00000000000E+00  0.42363031561E+03  0.42363031562E+03  0.25500000000E-02 0.  1.
         -2   -1    0    0    0  501 -0.00000000000E+00 -0.00000000000E+00 -0.50055412406E+02  0.50055412471E+02  0.25500000000E-02 0. -1.
    5000001    1    1    2    0    0 -0.18204073039E+02  0.22171916181E+02  0.29285666980E+03  0.32049494721E+03  0.12700000000E+03 0.  0.
   -5000001    1    1    2    0    0  0.18204073039E+02 -0.22171916181E+02  0.80718233410E+02  0.15319078088E+03  0.12700000000E+03 0.  0.
<mgrwt>
<rscale>  0 0.29123867E+03</rscale>
<asrwt>0</asrwt>
<pdfrwt beam="1">  1        2 0.60518614E-01 0.29123867E+03</pdfrwt>
<pdfrwt beam="2">  1       -2 0.71507735E-02 0.29123867E+03</pdfrwt>
<totfact> 0.91312079E+03</totfact>
</mgrwt>
</event>
<event>
 4    1  0.1399921E-004  0.4024495E+03  0.7818608E-02  0.1042935E+00
         -2   -1    0    0    0  501 -0.00000000000E+00  0.00000000000E+00  0.41134275638E+02  0.41134275717E+02  0.25500000000E-02 0. -1.
          2   -1    0    0  501    0  0.00000000000E+00 -0.00000000000E+00 -0.98437136358E+03  0.98437136358E+03  0.25500000000E-02 0.  1.
    5000001    1    1    2    0    0  0.56846480964E+02 -0.13948576614E+03 -0.57589407419E+03  0.60866311375E+03  0.12700000000E+03 0.  0.
   -5000001    1    1    2    0    0 -0.56846480964E+02  0.13948576614E+03 -0.36734301375E+03  0.41684252555E+03  0.12700000000E+03 0.  0.
<mgrwt>
<rscale>  0 0.40244952E+03</rscale>
<asrwt>0</asrwt>
<pdfrwt beam="1">  1        2 0.14062447E+00 0.40244952E+03</pdfrwt>
<pdfrwt beam="2">  1       -2 0.58763257E-02 0.40244952E+03</pdfrwt>
<totfact> 0.45746707E+03</totfact>
</mgrwt>
</event>
<event>
 4    1  0.1399921E-004  0.3519548E+03  0.7818608E-02  0.1061816E+00
         -2   -1    0    0    0  501 -0.00000000000E+00  0.00000000000E+00  0.14014967090E+03  0.14014967092E+03  0.25500000000E-02 0. -1.
          2   -1    0    0  501    0  0.00000000000E+00 -0.00000000000E+00 -0.22096403355E+03  0.22096403356E+03  0.25500000000E-02 0.  1.
    5000001    1    1    2    0    0 -0.76422619709E+02  0.81040103009E+02 -0.90996691018E+02  0.19187838043E+03  0.12700000000E+03 0.  0.
   -5000001    1    1    2    0    0  0.76422619709E+02 -0.81040103009E+02  0.10182328370E+02  0.16923532406E+03  0.12700000000E+03 0.  0.
<mgrwt>
<rscale>  0 0.35195475E+03</rscale>
<asrwt>0</asrwt>
<pdfrwt beam="1">  1        2 0.31566290E-01 0.35195475E+03</pdfrwt>
<pdfrwt beam="2">  1       -2 0.20021382E-01 0.35195475E+03</pdfrwt>
<totfact> 0.34919159E+03</totfact>
</mgrwt>
</event>
<event>
 4    1  0.1399921E-004  0.2913389E+03  0.7818608E-02  0.1089652E+00
          2   -1    0    0  501    0  0.00000000000E+00  0.00000000000E+00  0.14615525038E+04  0.14615525038E+04  0.25500000000E-02 0.  1.
         -2   -1    0    0    0  501 -0.00000000000E+00 -0.00000000000E+00 -0.14518529174E+02  0.14518529398E+02  0.25500000000E-02 0. -1.
    5000001    1    1    2    0    0 -0.42739446076E+02  0.57130824031E+02  0.72331895948E+03  0.73784138434E+03  0.12700000000E+03 0.  0.
   -5000001    1    1    2    0    0  0.42739446076E+02 -0.57130824031E+02  0.72371501516E+03  0.73822964888E+03  0.12700000000E+03 0.  0.
<mgrwt>
<rscale>  0 0.29133893E+03</rscale>
<asrwt>0</asrwt>
<pdfrwt beam="1">  1        2 0.20879322E+00 0.29133893E+03</pdfrwt>
<pdfrwt beam="2">  1       -2 0.20740756E-02 0.29133893E+03</pdfrwt>
<totfact> 0.11971279E+04</totfact>
</mgrwt>
</event>
<event>
 4    1  0.1399921E-004  0.2995461E+03  0.7818608E-02  0.1085468E+00
         -2   -1    0    0    0  501 -0.00000000000E+00  0.00000000000E+00  0.96170745879E+02  0.96170745912E+02  0.25500000000E-02 0. -1.
          2   -1    0    0  501    0  0.00000000000E+00 -0.00000000000E+00 -0.23325143841E+03  0.23325143842E+03  0.25500000000E-02 0.  1.
    5000001    1    1    2    0    0 -0.38671129519E+02 -0.67302830449E+02 -0.86871283790E+02  0.17233904721E+03  0.12700000000E+03 0.  0.
   -5000001    1    1    2    0    0  0.38671129519E+02  0.67302830449E+02 -0.50209408742E+02  0.15708313713E+03  0.12700000000E+03 0.  0.
<mgrwt>
<rscale>  0 0.29954609E+03</rscale>
<asrwt>0</asrwt>
<pdfrwt beam="1">  1        2 0.33321634E-01 0.29954609E+03</pdfrwt>
<pdfrwt beam="2">  1       -2 0.13738678E-01 0.29954609E+03</pdfrwt>
<totfact> 0.61628404E+03</totfact>
</mgrwt>
</event>
<event>
 4    1  0.1399921E-004  0.3715895E+03  0.7818608E-02  0.1054087E+00
         -2   -1    0    0    0  501 -0.00000000000E+00  0.00000000000E+00  0.26748475114E+02  0.26748475235E+02  0.25500000000E-02 0.  1.
          2   -1    0    0  501    0  0.00000000000E+00 -0.00000000000E+00 -0.12905293016E+04  0.12905293016E+04  0.25500000000E-02 0. -1.
    5000001    1    1    2    0    0  0.50360480318E+02  0.90969555204E+02 -0.94050851295E+03  0.95472346828E+03  0.12700000000E+03 0.  0.
   -5000001    1    1    2    0    0 -0.50360480318E+02 -0.90969555204E+02 -0.32327231350E+03  0.36255430852E+03  0.12700000000E+03 0.  0.
<mgrwt>
<rscale>  0 0.37158951E+03</rscale>
<asrwt>0</asrwt>
<pdfrwt beam="1">  1        2 0.18436129E+00 0.37158951E+03</pdfrwt>
<pdfrwt beam="2">  1       -2 0.38212115E-02 0.37158951E+03</pdfrwt>
<totfact> 0.59280440E+03</totfact>
</mgrwt>
</event>
<event>
 4    1  0.1399921E-004  0.4375455E+03  0.7818608E-02  0.1031503E+00
         -2   -1    0    0    0  501 -0.00000000000E+00  0.00000000000E+00  0.19142875944E+02  0.19142876114E+02  0.25500000000E-02 0. -1.
          2   -1    0    0  501    0  0.00000000000E+00 -0.00000000000E+00 -0.25002255767E+04  0.25002255767E+04  0.25500000000E-02 0.  1.
    5000001    1    1    2    0    0 -0.11440936777E+03  0.12420666942E+03 -0.91402358868E+03  0.93812841383E+03  0.12700000000E+03 0.  0.
   -5000001    1    1    2    0    0  0.11440936777E+03 -0.12420666942E+03 -0.15670591121E+04  0.15812400390E+04  0.12700000000E+03 0.  0.
<mgrwt>
<rscale>  0 0.43754546E+03</rscale>
<asrwt>0</asrwt>
<pdfrwt beam="1">  1        2 0.35717487E+00 0.43754546E+03</pdfrwt>
<pdfrwt beam="2">  1       -2 0.27346982E-02 0.43754546E+03</pdfrwt>
<totfact> 0.24109228E+03</totfact>
</mgrwt>
</event>
<event>
 4    1  0.1399921E-004  0.4273775E+03  0.7818608E-02  0.1034692E+00
         -2   -1    0    0    0  501 -0.00000000000E+00  0.00000000000E+00  0.10412078634E+02  0.10412078946E+02  0.25500000000E-02 0. -1.
          2   -1    0    0  501    0  0.00000000000E+00 -0.00000000000E+00 -0.43855672474E+04  0.43855672474E+04  0.25500000000E-02 0.  1.
    5000001    1    1    2    0    0  0.13649704388E+03 -0.33202003346E+02 -0.11693184666E+04  0.11845541323E+04  0.12700000000E+03 0.  0.
   -5000001    1    1    2    0    0 -0.13649704388E+03  0.33202003346E+02 -0.32058367021E+04  0.32114251940E+04  0.12700000000E+03 0.  0.
<mgrwt>
<rscale>  0 0.42737745E+03</rscale>
<asrwt>0</asrwt>
<pdfrwt beam="1">  1        2 0.62650843E+00 0.42737745E+03</pdfrwt>
<pdfrwt beam="2">  1       -2 0.14874426E-02 0.42737745E+03</pdfrwt>
<totfact> 0.45242686E+02</totfact>
</mgrwt>
</event>
<event>
 4    1  0.1399921E-004  0.5397941E+03  0.7818608E-02  0.1003884E+00
          2   -1    0    0  501    0  0.00000000000E+00  0.00000000000E+00  0.36599242430E+03  0.36599242431E+03  0.25500000000E-02 0.  1.
         -2   -1    0    0    0  501 -0.00000000000E+00 -0.00000000000E+00 -0.19903256592E+03  0.19903256593E+03  0.25500000000E-02 0. -1.
    5000001    1    1    2    0    0  0.17646750452E+03 -0.15811339516E+03  0.58384627499E+02  0.27509705671E+03  0.12700000000E+03 0.  0.
   -5000001    1    1    2    0    0 -0.17646750452E+03  0.15811339516E+03  0.10857523089E+03  0.28992793354E+03  0.12700000000E+03 0.  0.
<mgrwt>
<rscale>  0 0.53979408E+03</rscale>
<asrwt>0</asrwt>
<pdfrwt beam="1">  1        2 0.52284632E-01 0.53979408E+03</pdfrwt>
<pdfrwt beam="2">  1       -2 0.28433224E-01 0.53979408E+03</pdfrwt>
<totfact> 0.10829136E+03</totfact>
</mgrwt>
</event>
<event>
 4    1  0.1399921E-004  0.3909016E+03  0.7818608E-02  0.1046976E+00
         -2   -1    0    0    0  501 -0.00000000000E+00  0.00000000000E+00  0.25822398350E+02  0.25822398476E+02  0.25500000000E-02 0. -1.
          2   -1    0    0  501    0  0.00000000000E+00 -0.00000000000E+00 -0.14793750479E+04  0.14793750480E+04  0.25500000000E-02 0.  1.
    5000001    1    1    2    0    0  0.39825497010E+02 -0.13860441500E+03 -0.58929620975E+03  0.61983568540E+03  0.12700000000E+03 0.  0.
   -5000001    1    1    2    0    0 -0.39825497010E+02  0.13860441500E+03 -0.86425643985E+03  0.88536176103E+03  0.12700000000E+03 0.  0.
<mgrwt>
<rscale>  0 0.39090158E+03</rscale>
<asrwt>0</asrwt>
<pdfrwt beam="1">  1        2 0.21133924E+00 0.39090158E+03</pdfrwt>
<pdfrwt beam="2">  1       -2 0.36889150E-02 0.39090158E+03</pdfrwt>
<totfact> 0.49816876E+03</totfact>
</mgrwt>
</event>
<event>
 4    1  0.1399921E-004  0.3043027E+03  0.7818608E-02  0.1083109E+00
          2   -1    0    0  501    0  0.00000000000E+00  0.00000000000E+00  0.44642269483E+03  0.44642269484E+03  0.25500000000E-02 0.  1.
         -2   -1    0    0    0  501 -0.00000000000E+00 -0.00000000000E+00 -0.51856748624E+02  0.51856748687E+02  0.25500000000E-02 0. -1.
    5000001    1    1    2    0    0  0.87195932844E+01  0.53619859314E+02  0.92820682888E+02  0.16642055099E+03  0.12700000000E+03 0.  0.
   -5000001    1    1    2    0    0 -0.87195932844E+01 -0.53619859314E+02  0.30174526332E+03  0.33185889254E+03  0.12700000000E+03 0.  0.
<mgrwt>
<rscale>  0 0.30430267E+03</rscale>
<asrwt>0</asrwt>
<pdfrwt beam="1">  1        2 0.63774673E-01 0.30430267E+03</pdfrwt>
<pdfrwt beam="2">  1       -2 0.74081067E-02 0.30430267E+03</pdfrwt>
<totfact> 0.81752392E+03</totfact>
</mgrwt>
</event>
<event>
 4    1  0.1399921E-004  0.4203613E+03  0.7818608E-02  0.1036949E+00
          2   -1    0    0  501    0  0.00000000000E+00  0.00000000000E+00  0.58225784691E+02  0.58225784747E+02  0.25500000000E-02 0.  1.
         -2   -1    0    0    0  501 -0.00000000000E+00 -0.00000000000E+00 -0.75870003521E+03  0.75870003522E+03  0.25500000000E-02 0. -1.
    5000001    1    1    2    0    0 -0.11941681025E+03  0.10716023133E+03 -0.44350394238E+03  0.48843468003E+03  0.12700000000E+03 0.  0.
   -5000001    1    1    2    0    0  0.11941681025E+03 -0.10716023133E+03 -0.25697030814E+03  0.32849113994E+03  0.12700000000E+03 0.  0.
<mgrwt>
<rscale>  0 0.42036130E+03</rscale>
<asrwt>0</asrwt>
<pdfrwt beam="1">  1        2 0.83179697E-02 0.42036130E+03</pdfrwt>
<pdfrwt beam="2">  1       -2 0.10838571E+00 0.42036130E+03</pdfrwt>
<totfact> 0.57764135E+02</totfact>
</mgrwt>
</event>
<event>
 4    1  0.1399921E-004  0.1166988E+04  0.7818608E-02  0.9142253E-01
          2   -1    0    0  501    0  0.00000000000E+00  0.00000000000E+00  0.19444014665E+04  0.19444014665E+04  0.25500000000E-02 0.  1.
         -2   -1    0    0    0  501 -0.00000000000E+00 -0.00000000000E+00 -0.17510016830E+03  0.17510016832E+03  0.25500000000E-02 0. -1.
    5000001    1    1    2    0    0 -0.44966993569E+03  0.15898796999E+03  0.31941398948E+03  0.58790689938E+03  0.12700000000E+03 0.  0.
   -5000001    1    1    2    0    0  0.44966993569E+03 -0.15898796999E+03  0.14498873087E+04  0.15315947354E+04  0.12700000000E+03 0.  0.
<mgrwt>
<rscale>  0 0.11669876E+04</rscale>
<asrwt>0</asrwt>
<pdfrwt beam="1">  1        2 0.27777164E+00 0.11669876E+04</pdfrwt>
<pdfrwt beam="2">  1       -2 0.25014310E-01 0.11669876E+04</pdfrwt>
<totfact> 0.12147962E+02</totfact>
</mgrwt>
</event>
<event>
 4    1  0.1399921E-004  0.4985108E+03  0.7818608E-02  0.1014168E+00
          2   -1    0    0  501    0  0.00000000000E+00  0.00000000000E+00  0.21446054857E+04  0.21446054857E+04  0.25500000000E-02 0.  1.
         -2   -1    0    0    0  501 -0.00000000000E+00 -0.00000000000E+00 -0.28969547612E+02  0.28969547724E+02  0.25500000000E-02 0. -1.
    5000001    1    1    2    0    0 -0.18924934147E+03  0.93867167494E+02  0.89626373687E+03  0.92953969491E+03  0.12700000000E+03 0.  0.
   -5000001    1    1    2    0    0  0.18924934147E+03 -0.93867167494E+02  0.12193722012E+04  0.12440353385E+04  0.12700000000E+03 0.  0.
<mgrwt>
<rscale>  0 0.49851079E+03</rscale>
<asrwt>0</asrwt>
<pdfrwt beam="1">  1        2 0.30637232E+00 0.49851079E+03</pdfrwt>
<pdfrwt beam="2">  1       -2 0.41385054E-02 0.49851079E+03</pdfrwt>
<totfact> 0.19345553E+03</totfact>
</mgrwt>
</event>
<event>
 4    1  0.1399921E-004  0.8637979E+03  0.7818608E-02  0.9472003E-01
         -2   -1    0    0    0  501 -0.00000000000E+00  0.00000000000E+00  0.45111447280E+02  0.45111447352E+02  0.25500000000E-02 0. -1.
          2   -1    0    0  501    0  0.00000000000E+00 -0.00000000000E+00 -0.41350197020E+04  0.41350197020E+04  0.25500000000E-02 0.  1.
    5000001    1    1    2    0    0  0.17874340345E+03 -0.37209588631E+03 -0.20363373432E+04  0.20816347730E+04  0.12700000000E+03 0.  0.
   -5000001    1    1    2    0    0 -0.17874340345E+03  0.37209588631E+03 -0.20535709116E+04  0.20984963764E+04  0.12700000000E+03 0.  0.
<mgrwt>
<rscale>  0 0.86379795E+03</rscale>
<asrwt>0</asrwt>
<pdfrwt beam="1">  1        2 0.59071686E+00 0.86379795E+03</pdfrwt>
<pdfrwt beam="2">  1       -2 0.64444951E-02 0.86379795E+03</pdfrwt>
<totfact> 0.68310943E+01</totfact>
</mgrwt>
</event>
<event>
 4    1  0.1399921E-004  0.4448198E+03  0.7818608E-02  0.1029278E+00
         -2   -1    0    0    0  501 -0.00000000000E+00  0.00000000000E+00  0.44966001182E+02  0.44966001254E+02  0.25500000000E-02 0. -1.
          2   -1    0    0  501    0  0.00000000000E+00 -0.00000000000E+00 -0.11000792451E+04  0.11000792451E+04  0.25500000000E-02 0.  1.
    5000001    1    1    2    0    0  0.67266561026E+02 -0.14423513889E+03 -0.29719145473E+03  0.36025036612E+03  0.12700000000E+03 0.  0.
   -5000001    1    1    2    0    0 -0.67266561026E+02  0.14423513889E+03 -0.75792178915E+03  0.78479488020E+03  0.12700000000E+03 0.  0.
<mgrwt>
<rscale>  0 0.44481980E+03</rscale>
<asrwt>0</asrwt>
<pdfrwt beam="1">  1        2 0.15715416E+00 0.44481980E+03</pdfrwt>
<pdfrwt beam="2">  1       -2 0.64237151E-02 0.44481980E+03</pdfrwt>
<totfact> 0.34073368E+03</totfact>
</mgrwt>
</event>
<event>
 4    1  0.1399921E-004  0.4278302E+03  0.7818608E-02  0.1034548E+00
          2   -1    0    0  501    0  0.00000000000E+00  0.00000000000E+00  0.57469295444E+03  0.57469295445E+03  0.25500000000E-02 0.  1.
         -2   -1    0    0    0  501 -0.00000000000E+00 -0.00000000000E+00 -0.79624539108E+02  0.79624539149E+02  0.25500000000E-02 0. -1.
    5000001    1    1    2    0    0 -0.16906002057E+03  0.21747372033E+02  0.21081546975E+03  0.29937668752E+03  0.12700000000E+03 0.  0.
   -5000001    1    1    2    0    0  0.16906002057E+03 -0.21747372033E+02  0.28425294558E+03  0.35494080607E+03  0.12700000000E+03 0.  0.
<mgrwt>
<rscale>  0 0.42783016E+03</rscale>
<asrwt>0</asrwt>
<pdfrwt beam="1">  1        2 0.82098993E-01 0.42783016E+03</pdfrwt>
<pdfrwt beam="2">  1       -2 0.11374934E-01 0.42783016E+03</pdfrwt>
<totfact> 0.31399086E+03</totfact>
</mgrwt>
</event>
<event>
 4    1  0.1399921E-004  0.3114261E+03  0.7818608E-02  0.1079664E+00
          2   -1    0    0  501    0  0.00000000000E+00  0.00000000000E+00  0.24320937561E+03  0.24320937562E+03  0.25500000000E-02 0.  1.
         -2   -1    0    0    0  501 -0.00000000000E+00 -0.00000000000E+00 -0.99694160527E+02  0.99694160559E+02  0.25500000000E-02 0. -1.
    5000001    1    1    2    0    0  0.12617625359E+02 -0.87855911481E+02  0.88804330484E+02  0.17858632301E+03  0.12700000000E+03 0.  0.
   -5000001    1    1    2    0    0 -0.12617625359E+02  0.87855911481E+02  0.54710884595E+02  0.16431721317E+03  0.12700000000E+03 0.  0.
<mgrwt>
<rscale>  0 0.31142610E+03</rscale>
<asrwt>0</asrwt>
<pdfrwt beam="1">  1        2 0.34744197E-01 0.31142610E+03</pdfrwt>
<pdfrwt beam="2">  1       -2 0.14242023E-01 0.31142610E+03</pdfrwt>
<totfact> 0.55568554E+03</totfact>
</mgrwt>
</event>
<event>
 4    1  0.1399921E-004  0.2864029E+03  0.7818608E-02  0.1092242E+00
         -2   -1    0    0    0  501 -0.00000000000E+00  0.00000000000E+00  0.83055570973E+02  0.83055571012E+02  0.25500000000E-02 0. -1.
          2   -1    0    0  501    0  0.00000000000E+00 -0.00000000000E+00 -0.24690282342E+03  0.24690282343E+03  0.25500000000E-02 0.  1.
    5000001    1    1    2    0    0  0.52202036217E+02  0.80337590163E+01 -0.36012771363E+02  0.14218127011E+03  0.12700000000E+03 0.  0.
   -5000001    1    1    2    0    0 -0.52202036217E+02 -0.80337590163E+01 -0.12783448108E+03  0.18777712433E+03  0.12700000000E+03 0.  0.
<mgrwt>
<rscale>  0 0.28640290E+03</rscale>
<asrwt>0</asrwt>
<pdfrwt beam="1">  1        2 0.35271832E-01 0.28640290E+03</pdfrwt>
<pdfrwt beam="2">  1       -2 0.11865082E-01 0.28640290E+03</pdfrwt>
<totfact> 0.73416247E+03</totfact>
</mgrwt>
</event>
<event>
 4    1  0.1399921E-004  0.3151070E+03  0.7818608E-02  0.1077924E+00
         -2   -1    0    0    0  501 -0.00000000000E+00  0.00000000000E+00  0.30345270428E+02  0.30345270535E+02  0.25500000000E-02 0. -1.
          2   -1    0    0  501    0  0.00000000000E+00 -0.00000000000E+00 -0.81802196644E+03  0.81802196645E+03  0.25500000000E-02 0.  1.
    5000001    1    1    2    0    0  0.85178526677E+02  0.55985285567E+01 -0.49484046950E+03  0.51796024479E+03  0.12700000000E+03 0.  0.
   -5000001    1    1    2    0    0 -0.85178526677E+02 -0.55985285567E+01 -0.29283622652E+03  0.33040699219E+03  0.12700000000E+03 0.  0.
<mgrwt>
<rscale>  0 0.31510695E+03</rscale>
<asrwt>0</asrwt>
<pdfrwt beam="1">  1        2 0.11686027E+00 0.31510695E+03</pdfrwt>
<pdfrwt beam="2">  1       -2 0.43350391E-02 0.31510695E+03</pdfrwt>
<totfact> 0.92413720E+03</totfact>
</mgrwt>
</event>
<event>
 4    1  0.1399921E-004  0.2718281E+03  0.7818608E-02  0.1100238E+00
          2   -1    0    0  501    0  0.00000000000E+00  0.00000000000E+00  0.40741836030E+04  0.40741836030E+04  0.25500000000E-02 0.  1.
         -2   -1    0    0    0  501 -0.00000000000E+00 -0.00000000000E+00 -0.45340680229E+01  0.45340687399E+01  0.25500000000E-02 0. -1.
    5000001    1    1    2    0    0 -0.32398519710E+02 -0.34844609896E+02  0.21688771929E+04  0.21731132251E+04  0.12700000000E+03 0.  0.
   -5000001    1    1    2    0    0  0.32398519710E+02  0.34844609896E+02  0.19007723420E+04  0.19056044466E+04  0.12700000000E+03 0.  0.
<mgrwt>
<rscale>  0 0.27182809E+03</rscale>
<asrwt>0</asrwt>
<pdfrwt beam="1">  1        2 0.58202688E+00 0.27182809E+03</pdfrwt>
<pdfrwt beam="2">  1       -2 0.64772333E-03 0.27182809E+03</pdfrwt>
<totfact> 0.25909666E+03</totfact>
</mgrwt>
</event>
<event>
 4    1  0.1399921E-004  0.3571044E+03  0.7818608E-02  0.1059736E+00
          2   -1    0    0  501    0  0.00000000000E+00  0.00000000000E+00  0.35860591276E+03  0.35860591276E+03  0.25500000000E-02 0.  1.
         -2   -1    0    0    0  501 -0.00000000000E+00 -0.00000000000E+00 -0.88902278394E+02  0.88902278430E+02  0.25500000000E-02 0. -1.
    5000001    1    1    2    0    0 -0.62116084609E+01 -0.11504713627E+03  0.72477081693E+02  0.18616217397E+03  0.12700000000E+03 0.  0.
   -5000001    1    1    2    0    0  0.62116084609E+01  0.11504713627E+03  0.19722655267E+03  0.26134601723E+03  0.12700000000E+03 0.  0.
<mgrwt>
<rscale>  0 0.35710437E+03</rscale>
<asrwt>0</asrwt>
<pdfrwt beam="1">  1        2 0.51229417E-01 0.35710437E+03</pdfrwt>
<pdfrwt beam="2">  1       -2 0.12700325E-01 0.35710437E+03</pdfrwt>
<totfact> 0.44168208E+03</totfact>
</mgrwt>
</event>
<event>
 4    1  0.1399921E-004  0.5870551E+03  0.7818608E-02  0.9932633E-01
         -2   -1    0    0    0  501 -0.00000000000E+00  0.00000000000E+00  0.25476438437E+03  0.25476438438E+03  0.25500000000E-02 0. -1.
          2   -1    0    0  501    0  0.00000000000E+00 -0.00000000000E+00 -0.33818863508E+03  0.33818863509E+03  0.25500000000E-02 0.  1.
    5000001    1    1    2    0    0  0.19498614121E+03  0.16562539997E+03 -0.11005319048E+03  0.30609160902E+03  0.12700000000E+03 0.  0.
   -5000001    1    1    2    0    0 -0.19498614121E+03 -0.16562539997E+03  0.26628939768E+02  0.28686141046E+03  0.12700000000E+03 0.  0.
<mgrwt>
<rscale>  0 0.58705509E+03</rscale>
<asrwt>0</asrwt>
<pdfrwt beam="1">  1        2 0.48312662E-01 0.58705509E+03</pdfrwt>
<pdfrwt beam="2">  1       -2 0.36394912E-01 0.58705509E+03</pdfrwt>
<totfact> 0.74506423E+02</totfact>
</mgrwt>
</event>
<event>
 4    1  0.1399921E-004  0.6452072E+03  0.7818608E-02  0.9815814E-01
         -2   -1    0    0    0  501 -0.00000000000E+00  0.00000000000E+00  0.16808909725E+03  0.16808909727E+03  0.25500000000E-02 0. -1.
          2   -1    0    0  501    0  0.00000000000E+00 -0.00000000000E+00 -0.61915422298E+03  0.61915422298E+03  0.25500000000E-02 0.  1.
    5000001    1    1    2    0    0 -0.36419286940E+01  0.29074500236E+03 -0.15440607763E+03  0.35286846962E+03  0.12700000000E+03 0.  0.
   -5000001    1    1    2    0    0  0.36419286940E+01 -0.29074500236E+03 -0.29665904810E+03  0.43437485063E+03  0.12700000000E+03 0.  0.
<mgrwt>
<rscale>  0 0.64520717E+03</rscale>
<asrwt>0</asrwt>
<pdfrwt beam="1">  1        2 0.88450603E-01 0.64520717E+03</pdfrwt>
<pdfrwt beam="2">  1       -2 0.24012728E-01 0.64520717E+03</pdfrwt>
<totfact> 0.80819985E+02</totfact>
</mgrwt>
</event>
<event>
 4    1  0.1399921E-004  0.3123178E+03  0.7818608E-02  0.1079240E+00
         -2   -1    0    0    0  501 -0.00000000000E+00  0.00000000000E+00  0.13113636590E+02  0.13113636838E+02  0.25500000000E-02 0. -1.
          2   -1    0    0  501    0  0.00000000000E+00 -0.00000000000E+00 -0.18595604341E+04  0.18595604341E+04  0.25500000000E-02 0.  1.
    5000001    1    1    2    0    0 -0.63854503191E+02  0.34048084974E+02 -0.12527298636E+04  0.12612286791E+04  0.12700000000E+03 0.  0.
   -5000001    1    1    2    0    0  0.63854503191E+02 -0.34048084974E+02 -0.59371693390E+03  0.61144539190E+03  0.12700000000E+03 0.  0.
<mgrwt>
<rscale>  0 0.31231779E+03</rscale>
<asrwt>0</asrwt>
<pdfrwt beam="1">  1        2 0.26565132E+00 0.31231779E+03</pdfrwt>
<pdfrwt beam="2">  1       -2 0.18733779E-02 0.31231779E+03</pdfrwt>
<totfact> 0.88247823E+03</totfact>
</mgrwt>
</event>
<event>
 4    1  0.1399921E-004  0.6250466E+03  0.7818608E-02  0.9854763E-01
         -2   -1    0    0    0  501 -0.00000000000E+00  0.00000000000E+00  0.66085882661E+03  0.66085882661E+03  0.25500000000E-02 0. -1.
          2   -1    0    0  501    0  0.00000000000E+00 -0.00000000000E+00 -0.14779376488E+03  0.14779376491E+03  0.25500000000E-02 0.  1.
    5000001    1    1    2    0    0 -0.24859263886E+03  0.89746762175E+02  0.39640713452E+03  0.49307240616E+03  0.12700000000E+03 0.  0.
   -5000001    1    1    2    0    0  0.24859263886E+03 -0.89746762175E+02  0.11665792721E+03  0.31558018536E+03  0.12700000000E+03 0.  0.
<mgrwt>
<rscale>  0 0.62504660E+03</rscale>
<asrwt>0</asrwt>
<pdfrwt beam="1">  1        2 0.21113395E-01 0.62504660E+03</pdfrwt>
<pdfrwt beam="2">  1       -2 0.94408404E-01 0.62504660E+03</pdfrwt>
<totfact> 0.25495232E+02</totfact>
</mgrwt>
</event>
<event>
 4    1  0.1399921E-004  0.3703436E+03  0.7818608E-02  0.1054562E+00
         -2   -1    0    0    0  501 -0.00000000000E+00  0.00000000000E+00  0.24661743733E+02  0.24661743865E+02  0.25500000000E-02 0. -1.
          2   -1    0    0  501    0  0.00000000000E+00 -0.00000000000E+00 -0.13903555328E+04  0.13903555328E+04  0.25500000000E-02 0.  1.
    5000001    1    1    2    0    0  0.12120182345E+03 -0.57997065690E+02 -0.72219400876E+03  0.74548422379E+03  0.12700000000E+03 0.  0.
   -5000001    1    1    2    0    0 -0.12120182345E+03  0.57997065690E+02 -0.64349978035E+03  0.66953305291E+03  0.12700000000E+03 0.  0.
<mgrwt>
<rscale>  0 0.37034358E+03</rscale>
<asrwt>0</asrwt>
<pdfrwt beam="1">  1        2 0.19862217E+00 0.37034358E+03</pdfrwt>
<pdfrwt beam="2">  1       -2 0.35231071E-02 0.37034358E+03</pdfrwt>
<totfact> 0.59361258E+03</totfact>
</mgrwt>
</event>
<event>
 4    1  0.1399921E-004  0.3444265E+03  0.7818608E-02  0.1064926E+00
          2   -1    0    0  501    0  0.00000000000E+00  0.00000000000E+00  0.21435762441E+03  0.21435762443E+03  0.25500000000E-02 0.  1.
         -2   -1    0    0    0  501 -0.00000000000E+00 -0.00000000000E+00 -0.13835480939E+03  0.13835480942E+03  0.25500000000E-02 0. -1.
    5000001    1    1    2    0    0 -0.45449202312E+02 -0.59416252112E+02 -0.53205738855E+02  0.15670281316E+03  0.12700000000E+03 0.  0.
   -5000001    1    1    2    0    0  0.45449202312E+02  0.59416252112E+02  0.12920855387E+03  0.19600962068E+03  0.12700000000E+03 0.  0.
<mgrwt>
<rscale>  0 0.34442653E+03</rscale>
<asrwt>0</asrwt>
<pdfrwt beam="1">  1        2 0.30622518E-01 0.34442653E+03</pdfrwt>
<pdfrwt beam="2">  1       -2 0.19764973E-01 0.34442653E+03</pdfrwt>
<totfact> 0.36898679E+03</totfact>
</mgrwt>
</event>
<event>
 4    1  0.1399921E-004  0.4404714E+03  0.7818608E-02  0.1030602E+00
          2   -1    0    0  501    0  0.00000000000E+00  0.00000000000E+00  0.23557794133E+03  0.23557794135E+03  0.25500000000E-02 0.  1.
         -2   -1    0    0    0  501 -0.00000000000E+00 -0.00000000000E+00 -0.20589262995E+03  0.20589262997E+03  0.25500000000E-02 0. -1.
    5000001    1    1    2    0    0 -0.67127393441E+02 -0.16369038098E+03  0.47690986782E+02  0.22294406921E+03  0.12700000000E+03 0.  0.
   -5000001    1    1    2    0    0  0.67127393441E+02  0.16369038098E+03 -0.18005675399E+02  0.21852650210E+03  0.12700000000E+03 0.  0.
<mgrwt>
<rscale>  0 0.44047139E+03</rscale>
<asrwt>0</asrwt>
<pdfrwt beam="1">  1        2 0.33653991E-01 0.44047139E+03</pdfrwt>
<pdfrwt beam="2">  1       -2 0.29413233E-01 0.44047139E+03</pdfrwt>
<totfact> 0.16512056E+03</totfact>
</mgrwt>
</event>
<event>
 4    1  0.1399921E-004  0.5103495E+03  0.7818608E-02  0.1011112E+00
          2   -1    0    0  501    0  0.00000000000E+00  0.00000000000E+00  0.17241178174E+03  0.17241178176E+03  0.25500000000E-02 0.  1.
         -2   -1    0    0    0  501 -0.00000000000E+00 -0.00000000000E+00 -0.37766644186E+03  0.37766644187E+03  0.25500000000E-02 0. -1.
    5000001    1    1    2    0    0  0.63541239548E+02  0.14699536978E+03  0.62039970480E+02  0.21359561278E+03  0.12700000000E+03 0.  0.
   -5000001    1    1    2    0    0 -0.63541239548E+02 -0.14699536978E+03 -0.26729463060E+03  0.33648261085E+03  0.12700000000E+03 0.  0.
<mgrwt>
<rscale>  0 0.51034947E+03</rscale>
<asrwt>0</asrwt>
<pdfrwt beam="1">  1        2 0.24630255E-01 0.51034947E+03</pdfrwt>
<pdfrwt beam="2">  1       -2 0.53952349E-01 0.51034947E+03</pdfrwt>
<totfact> 0.72526378E+02</totfact>
</mgrwt>
</event>
<event>
 4    1  0.1399921E-004  0.4015355E+03  0.7818608E-02  0.1043249E+00
         -2   -1    0    0    0  501 -0.00000000000E+00  0.00000000000E+00  0.13464709789E+04  0.13464709789E+04  0.25500000000E-02 0. -1.
          2   -1    0    0  501    0  0.00000000000E+00 -0.00000000000E+00 -0.29935801405E+02  0.29935801514E+02  0.25500000000E-02 0.  1.
    5000001    1    1    2    0    0 -0.46286458249E+02 -0.50282049535E+02  0.11370397304E+04  0.11461496714E+04  0.12700000000E+03 0.  0.
   -5000001    1    1    2    0    0  0.46286458249E+02  0.50282049535E+02  0.17949544704E+03  0.23025710897E+03  0.12700000000E+03 0.  0.
<mgrwt>
<rscale>  0 0.40153549E+03</rscale>
<asrwt>0</asrwt>
<pdfrwt beam="1">  1        2 0.42765442E-02 0.40153549E+03</pdfrwt>
<pdfrwt beam="2">  1       -2 0.19235295E+00 0.40153549E+03</pdfrwt>
<totfact> 0.31317780E+02</totfact>
</mgrwt>
</event>
<event>
 4    1  0.1399921E-004  0.3367614E+03  0.7818608E-02  0.1068184E+00
          2   -1    0    0  501    0  0.00000000000E+00  0.00000000000E+00  0.25435614426E+02  0.25435614554E+02  0.25500000000E-02 0.  1.
         -2   -1    0    0    0  501 -0.00000000000E+00 -0.00000000000E+00 -0.11146599539E+04  0.11146599539E+04  0.25500000000E-02 0. -1.
    5000001    1    1    2    0    0  0.53170480852E+02  0.96310537325E+02 -0.50748894642E+03  0.53458100450E+03  0.12700000000E+03 0.  0.
   -5000001    1    1    2    0    0 -0.53170480852E+02 -0.96310537325E+02 -0.58173539307E+03  0.60551456397E+03  0.12700000000E+03 0.  0.
<mgrwt>
<rscale>  0 0.33676140E+03</rscale>
<asrwt>0</asrwt>
<pdfrwt beam="1">  1        2 0.36336599E-02 0.33676140E+03</pdfrwt>
<pdfrwt beam="2">  1       -2 0.15923711E+00 0.33676140E+03</pdfrwt>
<totfact> 0.65774767E+02</totfact>
</mgrwt>
</event>
<event>
 4    1  0.1399921E-004  0.3355598E+03  0.7818608E-02  0.1068703E+00
         -2   -1    0    0    0  501 -0.00000000000E+00  0.00000000000E+00  0.70582044277E+01  0.70582048884E+01  0.25500000000E-02 0. -1.
          2   -1    0    0  501    0  0.00000000000E+00 -0.00000000000E+00 -0.39882796908E+04  0.39882796908E+04  0.25500000000E-02 0.  1.
    5000001    1    1    2    0    0  0.37490579514E+02 -0.10054373805E+03 -0.17226466985E+04  0.17306516792E+04  0.12700000000E+03 0.  0.
   -5000001    1    1    2    0    0 -0.37490579514E+02  0.10054373805E+03 -0.22585747879E+04  0.22646862165E+04  0.12700000000E+03 0.  0.
<mgrwt>
<rscale>  0 0.33555980E+03</rscale>
<asrwt>0</asrwt>
<pdfrwt beam="1">  1        2 0.56975280E+00 0.33555980E+03</pdfrwt>
<pdfrwt beam="2">  1       -2 0.10083175E-02 0.33555980E+03</pdfrwt>
<totfact> 0.15370304E+03</totfact>
</mgrwt>
</event>
<event>
 4    1  0.1399921E-004  0.4436869E+03  0.7818608E-02  0.1029622E+00
         -2   -1    0    0    0  501 -0.00000000000E+00  0.00000000000E+00  0.27846189472E+02  0.27846189589E+02  0.25500000000E-02 0. -1.
          2   -1    0    0  501    0  0.00000000000E+00 -0.00000000000E+00 -0.17673701668E+04  0.17673701668E+04  0.25500000000E-02 0.  1.
    5000001    1    1    2    0    0  0.14200034481E+03  0.11364251320E+03 -0.85920638334E+03  0.88738003578E+03  0.12700000000E+03 0.  0.
   -5000001    1    1    2    0    0 -0.14200034481E+03 -0.11364251320E+03 -0.88031759401E+03  0.90783632063E+03  0.12700000000E+03 0.  0.
<mgrwt>
<rscale>  0 0.44368694E+03</rscale>
<asrwt>0</asrwt>
<pdfrwt beam="1">  1        2 0.25248138E+00 0.44368694E+03</pdfrwt>
<pdfrwt beam="2">  1       -2 0.39780282E-02 0.44368694E+03</pdfrwt>
<totfact> 0.31751227E+03</totfact>
</mgrwt>
</event>
<event>
 4    1  0.1399921E-004  0.4856612E+03  0.7818608E-02  0.1017591E+00
         -2   -1    0    0    0  501 -0.00000000000E+00  0.00000000000E+00  0.92411288270E+02  0.92411288305E+02  0.25500000000E-02 0. -1.
          2   -1    0    0  501    0  0.00000000000E+00 -0.00000000000E+00 -0.63808988215E+03  0.63808988215E+03  0.25500000000E-02 0.  1.
    5000001    1    1    2    0    0 -0.15078282096E+03 -0.92766416041E+02 -0.11156210089E+03  0.24477779596E+03  0.12700000000E+03 0.  0.
   -5000001    1    1    2    0    0  0.15078282096E+03  0.92766416041E+02 -0.43411649299E+03  0.48572337449E+03  0.12700000000E+03 0.  0.
<mgrwt>
<rscale>  0 0.48566123E+03</rscale>
<asrwt>0</asrwt>
<pdfrwt beam="1">  1        2 0.91155695E-01 0.48566123E+03</pdfrwt>
<pdfrwt beam="2">  1       -2 0.13201613E-01 0.48566123E+03</pdfrwt>
<totfact> 0.21794561E+03</totfact>
</mgrwt>
</event>
<event>
 4    1  0.1399921E-004  0.4511006E+03  0.7818608E-02  0.1027394E+00
         -2   -1    0    0    0  501 -0.00000000000E+00  0.00000000000E+00  0.10575743166E+03  0.10575743169E+03  0.25500000000E-02 0. -1.
          2   -1    0    0  501    0  0.00000000000E+00 -0.00000000000E+00 -0.48103417761E+03  0.48103417762E+03  0.25500000000E-02 0.  1.
    5000001    1    1    2    0    0  0.13641951691E+03  0.11894074884E+03 -0.12965781283E+03  0.25631491325E+03  0.12700000000E+03 0.  0.
   -5000001    1    1    2    0    0 -0.13641951691E+03 -0.11894074884E+03 -0.24561893313E+03  0.33047669606E+03  0.12700000000E+03 0.  0.
<mgrwt>
<rscale>  0 0.45110061E+03</rscale>
<asrwt>0</asrwt>
<pdfrwt beam="1">  1        2 0.68719167E-01 0.45110061E+03</pdfrwt>
<pdfrwt beam="2">  1       -2 0.15108205E-01 0.45110061E+03</pdfrwt>
<totfact> 0.24081127E+03</totfact>
</mgrwt>
</event>
<event>
 4    1  0.1399921E-004  0.6949085E+03  0.7818608E-02  0.9725979E-01
         -2   -1    0    0    0  501 -0.00000000000E+00  0.00000000000E+00  0.31037636531E+03  0.31037636532E+03  0.25500000000E-02 0. -1.
          2   -1    0    0  501    0  0.00000000000E+00 -0.00000000000E+00 -0.38896153502E+03  0.38896153503E+03  0.25500000000E-02 0.  1.
    5000001    1    1    2    0    0  0.26903983138E+03 -0.10737441693E+03  0.10544265429E+03  0.33340493341E+03  0.12700000000E+03 0.  0.
   -5000001    1    1    2    0    0 -0.26903983138E+03  0.10737441693E+03 -0.18402782400E+03  0.36593296693E+03  0.12700000000E+03 0.  0.
<mgrwt>
<rscale>  0 0.69490853E+03</rscale>
<asrwt>0</asrwt>
<pdfrwt beam="1">  1        2 0.55565933E-01 0.69490853E+03</pdfrwt>
<pdfrwt beam="2">  1       -2 0.44339481E-01 0.69490853E+03</pdfrwt>
<totfact> 0.43365363E+02</totfact>
</mgrwt>
</event>
<event>
 4    1  0.1399921E-004  0.1034633E+04  0.7818608E-02  0.9271355E-01
         -2   -1    0    0    0  501 -0.00000000000E+00  0.00000000000E+00  0.14271974953E+03  0.14271974956E+03  0.25500000000E-02 0.  1.
          2   -1    0    0  501    0  0.00000000000E+00 -0.00000000000E+00 -0.18751177392E+04  0.18751177392E+04  0.25500000000E-02 0. -1.
    5000001    1    1    2    0    0 -0.20096224416E+03 -0.19171594100E+03 -0.51857604123E+02  0.30977255643E+03  0.12700000000E+03 0.  0.
   -5000001    1    1    2    0    0  0.20096224416E+03  0.19171594100E+03 -0.16805403856E+04  0.17080649324E+04  0.12700000000E+03 0.  0.
<mgrwt>
<rscale>  0 0.10346329E+04</rscale>
<asrwt>0</asrwt>
<pdfrwt beam="1">  1        2 0.26787395E+00 0.10346329E+04</pdfrwt>
<pdfrwt beam="2">  1       -2 0.20388537E-01 0.10346329E+04</pdfrwt>
<totfact> 0.19164013E+02</totfact>
</mgrwt>
</event>
<event>
 4    1  0.1399921E-004  0.4234108E+03  0.7818608E-02  0.1035962E+00
         -2   -1    0    0    0  501 -0.00000000000E+00  0.00000000000E+00  0.15727337052E+02  0.15727337258E+02  0.25500000000E-02 0. -1.
          2   -1    0    0  501    0  0.00000000000E+00 -0.00000000000E+00 -0.28497626855E+04  0.28497626855E+04  0.25500000000E-02 0.  1.
    5000001    1    1    2    0    0 -0.27575902158E+02 -0.11069095383E+03 -0.22643856600E+04  0.22708113825E+04  0.12700000000E+03 0.  0.
   -5000001    1    1    2    0    0  0.27575902158E+02  0.11069095383E+03 -0.56964968841E+03  0.59467864023E+03  0.12700000000E+03 0.  0.
<mgrwt>
<rscale>  0 0.42341081E+03</rscale>
<asrwt>0</asrwt>
<pdfrwt beam="1">  1        2 0.40710863E+00 0.42341081E+03</pdfrwt>
<pdfrwt beam="2">  1       -2 0.22467643E-02 0.42341081E+03</pdfrwt>
<totfact> 0.21378934E+03</totfact>
</mgrwt>
</event>
<event>
 4    1  0.1399921E-004  0.4476486E+03  0.7818608E-02  0.1028426E+00
          2   -1    0    0  501    0  0.00000000000E+00  0.00000000000E+00  0.72215224537E+03  0.72215224537E+03  0.25500000000E-02 0.  1.
         -2   -1    0    0    0  501 -0.00000000000E+00 -0.00000000000E+00 -0.69372251311E+02  0.69372251358E+02  0.25500000000E-02 0. -1.
    5000001    1    1    2    0    0  0.26165893889E+02 -0.17268383074E+03  0.22232276530E+03  0.30993672156E+03  0.12700000000E+03 0.  0.
   -5000001    1    1    2    0    0 -0.26165893889E+02  0.17268383074E+03  0.43045722876E+03  0.48158777517E+03  0.12700000000E+03 0.  0.
<mgrwt>
<rscale>  0 0.44764864E+03</rscale>
<asrwt>0</asrwt>
<pdfrwt beam="1">  1        2 0.10316461E+00 0.44764864E+03</pdfrwt>
<pdfrwt beam="2">  1       -2 0.99103212E-02 0.44764864E+03</pdfrwt>
<totfact> 0.29953910E+03</totfact>
</mgrwt>
</event>
<event>
 4    1  0.1399921E-004  0.3970605E+03  0.7818608E-02  0.1044802E+00
          2   -1    0    0  501    0  0.00000000000E+00  0.00000000000E+00  0.24016102307E+04  0.24016102307E+04  0.25500000000E-02 0.  1.
         -2   -1    0    0    0  501 -0.00000000000E+00 -0.00000000000E+00 -0.16411599731E+02  0.16411599929E+02  0.25500000000E-02 0. -1.
    5000001    1    1    2    0    0  0.50256019567E+02 -0.11867580062E+03  0.69503368503E+03  0.71819944060E+03  0.12700000000E+03 0.  0.
   -5000001    1    1    2    0    0 -0.50256019567E+02  0.11867580062E+03  0.16901649460E+04  0.16998223901E+04  0.12700000000E+03 0.  0.
<mgrwt>
<rscale>  0 0.39706053E+03</rscale>
<asrwt>0</asrwt>
<pdfrwt beam="1">  1        2 0.34308698E+00 0.39706053E+03</pdfrwt>
<pdfrwt beam="2">  1       -2 0.23445156E-02 0.39706053E+03</pdfrwt>
<totfact> 0.34120415E+03</totfact>
</mgrwt>
</event>
<event>
 4    1  0.1399921E-004  0.1094354E+04  0.7818608E-02  0.9210712E-01
          2   -1    0    0  501    0  0.00000000000E+00  0.00000000000E+00  0.23856353590E+04  0.23856353590E+04  0.25500000000E-02 0.  1.
         -2   -1    0    0    0  501 -0.00000000000E+00 -0.00000000000E+00 -0.12550227455E+03  0.12550227458E+03  0.25500000000E-02 0. -1.
    5000001    1    1    2    0    0 -0.35898524805E+03  0.24030783874E+03  0.41667862695E+03  0.61348866643E+03  0.12700000000E+03 0.  0.
   -5000001    1    1    2    0    0  0.35898524805E+03 -0.24030783874E+03  0.18434544575E+04  0.18976489671E+04  0.12700000000E+03 0.  0.
<mgrwt>
<rscale>  0 0.10943540E+04</rscale>
<asrwt>0</asrwt>
<pdfrwt beam="1">  1        2 0.34080507E+00 0.10943540E+04</pdfrwt>
<pdfrwt beam="2">  1       -2 0.17928895E-01 0.10943540E+04</pdfrwt>
<totfact> 0.13074828E+02</totfact>
</mgrwt>
</event>
<event>
 4    1  0.1399921E-004  0.3136570E+03  0.7818608E-02  0.1078606E+00
         -2   -1    0    0    0  501 -0.00000000000E+00  0.00000000000E+00  0.24760930179E+02  0.24760930310E+02  0.25500000000E-02 0. -1.
          2   -1    0    0  501    0  0.00000000000E+00 -0.00000000000E+00 -0.99330593730E+03  0.99330593730E+03  0.25500000000E-02 0.  1.
    5000001    1    1    2    0    0 -0.63283785784E+02 -0.21587157323E+02 -0.68943500005E+03  0.70421620416E+03  0.12700000000E+03 0.  0.
   -5000001    1    1    2    0    0  0.63283785784E+02  0.21587157323E+02 -0.27911000707E+03  0.31385066345E+03  0.12700000000E+03 0.  0.
<mgrwt>
<rscale>  0 0.31365700E+03</rscale>
<asrwt>0</asrwt>
<pdfrwt beam="1">  1        2 0.14190082E+00 0.31365700E+03</pdfrwt>
<pdfrwt beam="2">  1       -2 0.35372764E-02 0.31365700E+03</pdfrwt>
<totfact> 0.97460296E+03</totfact>
</mgrwt>
</event>
<event>
 4    1  0.1399921E-004  0.3119906E+03  0.7818608E-02  0.1079396E+00
         -2   -1    0    0    0  501 -0.00000000000E+00  0.00000000000E+00  0.10278719400E+04  0.10278719400E+04  0.25500000000E-02 0. -1.
          2   -1    0    0  501    0  0.00000000000E+00 -0.00000000000E+00 -0.23674675060E+02  0.23674675197E+02  0.25500000000E-02 0.  1.
    5000001    1    1    2    0    0 -0.87514538132E+02 -0.12185516274E+02  0.43483712782E+03  0.46154047376E+03  0.12700000000E+03 0.  0.
   -5000001    1    1    2    0    0  0.87514538132E+02  0.12185516274E+02  0.56936013714E+03  0.59000614146E+03  0.12700000000E+03 0.  0.
<mgrwt>
<rscale>  0 0.31199060E+03</rscale>
<asrwt>0</asrwt>
<pdfrwt beam="1">  1        2 0.33820968E-02 0.31199060E+03</pdfrwt>
<pdfrwt beam="2">  1       -2 0.14683883E+00 0.31199060E+03</pdfrwt>
<totfact> 0.89507048E+02</totfact>
</mgrwt>
</event>
<event>
 4    1  0.1399921E-004  0.3916163E+03  0.7818608E-02  0.1046722E+00
          2   -1    0    0  501    0  0.00000000000E+00  0.00000000000E+00  0.22512006054E+03  0.22512006055E+03  0.25500000000E-02 0.  1.
         -2   -1    0    0    0  501 -0.00000000000E+00 -0.00000000000E+00 -0.17031281070E+03  0.17031281072E+03  0.25500000000E-02 0. -1.
    5000001    1    1    2    0    0 -0.14862581672E+02  0.93132268088E+02 -0.89121706047E+02  0.18156594995E+03  0.12700000000E+03 0.  0.
   -5000001    1    1    2    0    0  0.14862581672E+02 -0.93132268088E+02  0.14392895588E+03  0.21386692132E+03  0.12700000000E+03 0.  0.
<mgrwt>
<rscale>  0 0.39161629E+03</rscale>
<asrwt>0</asrwt>
<pdfrwt beam="1">  1        2 0.32160008E-01 0.39161629E+03</pdfrwt>
<pdfrwt beam="2">  1       -2 0.24330402E-01 0.39161629E+03</pdfrwt>
<totfact> 0.24392413E+03</totfact>
</mgrwt>
</event>
<event>
 4    1  0.1399921E-004  0.2737587E+03  0.7818608E-02  0.1099147E+00
          2   -1    0    0  501    0  0.00000000000E+00  0.00000000000E+00  0.54880441141E+03  0.54880441142E+03  0.25500000000E-02 0.  1.
         -2   -1    0    0    0  501 -0.00000000000E+00 -0.00000000000E+00 -0.34139583008E+02  0.34139583103E+02  0.25500000000E-02 0. -1.
    5000001    1    1    2    0    0  0.43706555983E+02  0.19981270261E+02  0.29405711964E+03  0.32389520498E+03  0.12700000000E+03 0.  0.
   -5000001    1    1    2    0    0 -0.43706555983E+02 -0.19981270261E+02  0.22060770876E+03  0.25904878954E+03  0.12700000000E+03 0.  0.
<mgrwt>
<rscale>  0 0.27375868E+03</rscale>
<asrwt>0</asrwt>
<pdfrwt beam="1">  1        2 0.78400626E-01 0.27375868E+03</pdfrwt>
<pdfrwt beam="2">  1       -2 0.48770836E-02 0.27375868E+03</pdfrwt>
<totfact> 0.12315569E+04</totfact>
</mgrwt>
</event>
<event>
 4    1  0.1399921E-004  0.5789080E+03  0.7818608E-02  0.9950158E-01
         -2   -1    0    0    0  501 -0.00000000000E+00  0.00000000000E+00  0.83593809498E+02  0.83593809536E+02  0.25500000000E-02 0. -1.
          2   -1    0    0  501    0  0.00000000000E+00 -0.00000000000E+00 -0.10022705704E+04  0.10022705705E+04  0.25500000000E-02 0.  1.
    5000001    1    1    2    0    0 -0.76366663893E+02  0.24844093263E+03 -0.44059526398E+03  0.52707490075E+03  0.12700000000E+03 0.  0.
   -5000001    1    1    2    0    0  0.76366663893E+02 -0.24844093263E+03 -0.47808149697E+03  0.55878947924E+03  0.12700000000E+03 0.  0.
<mgrwt>
<rscale>  0 0.57890799E+03</rscale>
<asrwt>0</asrwt>
<pdfrwt beam="1">  1        2 0.14318150E+00 0.57890799E+03</pdfrwt>
<pdfrwt beam="2">  1       -2 0.11941973E-01 0.57890799E+03</pdfrwt>
<totfact> 0.14425626E+03</totfact>
</mgrwt>
</event>
<event>
 4    1  0.1399921E-004  0.6099599E+03  0.7818608E-02  0.9884955E-01
          2   -1    0    0  501    0  0.00000000000E+00  0.00000000000E+00  0.29590167291E+04  0.29590167291E+04  0.25500000000E-02 0.  1.
         -2   -1    0    0    0  501 -0.00000000000E+00 -0.00000000000E+00 -0.31433677140E+02  0.31433677243E+02  0.25500000000E-02 0. -1.
    5000001    1    1    2    0    0 -0.10612664066E+03 -0.24644949200E+03  0.18064043380E+04  0.18306353674E+04  0.12700000000E+03 0.  0.
   -5000001    1    1    2    0    0  0.10612664066E+03  0.24644949200E+03  0.11211787139E+04  0.11598150389E+04  0.12700000000E+03 0.  0.
<mgrwt>
<rscale>  0 0.60995992E+03</rscale>
<asrwt>0</asrwt>
<pdfrwt beam="1">  1        2 0.42271635E+00 0.60995992E+03</pdfrwt>
<pdfrwt beam="2">  1       -2 0.44905288E-02 0.60995992E+03</pdfrwt>
<totfact> 0.64284764E+02</totfact>
</mgrwt>
</event>
<event>
 4    1  0.1399921E-004  0.3047669E+03  0.7818608E-02  0.1082882E+00
          2   -1    0    0  501    0  0.00000000000E+00  0.00000000000E+00  0.24776114858E+04  0.24776114858E+04  0.25500000000E-02 0.  1.
         -2   -1    0    0    0  501 -0.00000000000E+00 -0.00000000000E+00 -0.93722199985E+01  0.93722203454E+01  0.25500000000E-02 0. -1.
    5000001    1    1    2    0    0 -0.81036521070E+02  0.15237461125E+02  0.13737110992E+04  0.13820312160E+04  0.12700000000E+03 0.  0.
   -5000001    1    1    2    0    0  0.81036521070E+02 -0.15237461125E+02  0.10945281666E+04  0.11049524901E+04  0.12700000000E+03 0.  0.
<mgrwt>
<rscale>  0 0.30476693E+03</rscale>
<asrwt>0</asrwt>
<pdfrwt beam="1">  1        2 0.35394462E+00 0.30476693E+03</pdfrwt>
<pdfrwt beam="2">  1       -2 0.13388881E-02 0.30476693E+03</pdfrwt>
<totfact> 0.71703523E+03</totfact>
</mgrwt>
</event>
<event>
 4    1  0.1399921E-004  0.3984493E+03  0.7818608E-02  0.1044318E+00
          2   -1    0    0  501    0  0.00000000000E+00  0.00000000000E+00  0.41099334608E+04  0.41099334608E+04  0.25500000000E-02 0.  1.
         -2   -1    0    0    0  501 -0.00000000000E+00 -0.00000000000E+00 -0.96572003507E+01  0.96572006873E+01  0.25500000000E-02 0. -1.
    5000001    1    1    2    0    0 -0.14256076748E+03  0.34915105248E+02  0.25146847057E+04  0.25221639134E+04  0.12700000000E+03 0.  0.
   -5000001    1    1    2    0    0  0.14256076748E+03 -0.34915105248E+02  0.15855915547E+04  0.15974267480E+04  0.12700000000E+03 0.  0.
<mgrwt>
<rscale>  0 0.39844925E+03</rscale>
<asrwt>0</asrwt>
<pdfrwt beam="1">  1        2 0.58713351E+00 0.39844925E+03</pdfrwt>
<pdfrwt beam="2">  1       -2 0.13795997E-02 0.39844925E+03</pdfrwt>
<totfact> 0.79667320E+02</totfact>
</mgrwt>
</event>
<event>
 4    1  0.1399921E-004  0.3132360E+03  0.7818608E-02  0.1078805E+00
          2   -1    0    0  501    0  0.00000000000E+00  0.00000000000E+00  0.12943441871E+03  0.12943441874E+03  0.25500000000E-02 0.  1.
         -2   -1    0    0    0  501 -0.00000000000E+00 -0.00000000000E+00 -0.18951062408E+03  0.18951062409E+03  0.25500000000E-02 0. -1.
    5000001    1    1    2    0    0 -0.54731237986E+02  0.70068542138E+02 -0.73819796260E+01  0.15520503417E+03  0.12700000000E+03 0.  0.
   -5000001    1    1    2    0    0  0.54731237986E+02 -0.70068542138E+02 -0.52694225739E+02  0.16374000866E+03  0.12700000000E+03 0.  0.
<mgrwt>
<rscale>  0 0.31323600E+03</rscale>
<asrwt>0</asrwt>
<pdfrwt beam="1">  1        2 0.18490631E-01 0.31323600E+03</pdfrwt>
<pdfrwt beam="2">  1       -2 0.27072946E-01 0.31323600E+03</pdfrwt>
<totfact> 0.37500290E+03</totfact>
</mgrwt>
</event>
<event>
 4    1  0.1399921E-004  0.3209159E+03  0.7818608E-02  0.1075229E+00
         -2   -1    0    0    0  501 -0.00000000000E+00  0.00000000000E+00  0.21248904969E+02  0.21248905122E+02  0.25500000000E-02 0. -1.
          2   -1    0    0  501    0  0.00000000000E+00 -0.00000000000E+00 -0.12116747322E+04  0.12116747322E+04  0.25500000000E-02 0.  1.
    5000001    1    1    2    0    0 -0.96293249635E+02 -0.11613339860E+02 -0.53947217359E+03  0.56264241368E+03  0.12700000000E+03 0.  0.
   -5000001    1    1    2    0    0  0.96293249635E+02  0.11613339860E+02 -0.65095365364E+03  0.67028122365E+03  0.12700000000E+03 0.  0.
<mgrwt>
<rscale>  0 0.32091595E+03</rscale>
<asrwt>0</asrwt>
<pdfrwt beam="1">  1        2 0.17309635E+00 0.32091595E+03</pdfrwt>
<pdfrwt beam="2">  1       -2 0.30355586E-02 0.32091595E+03</pdfrwt>
<totfact> 0.92203381E+03</totfact>
</mgrwt>
</event>
<event>
 4    1  0.1399921E-004  0.6754333E+03  0.7818608E-02  0.9760192E-01
         -2   -1    0    0    0  501 -0.00000000000E+00  0.00000000000E+00  0.16959881874E+03  0.16959881876E+03  0.25500000000E-02 0. -1.
          2   -1    0    0  501    0  0.00000000000E+00 -0.00000000000E+00 -0.67248425585E+03  0.67248425585E+03  0.25500000000E-02 0.  1.
    5000001    1    1    2    0    0  0.20375764442E+03  0.88107205154E+02  0.23526944205E+02  0.25683180169E+03  0.12700000000E+03 0.  0.
   -5000001    1    1    2    0    0 -0.20375764442E+03 -0.88107205154E+02 -0.52641238131E+03  0.58525127292E+03  0.12700000000E+03 0.  0.
<mgrwt>
<rscale>  0 0.67543330E+03</rscale>
<asrwt>0</asrwt>
<pdfrwt beam="1">  1        2 0.96069178E-01 0.67543330E+03</pdfrwt>
<pdfrwt beam="2">  1       -2 0.24228403E-01 0.67543330E+03</pdfrwt>
<totfact> 0.71976634E+02</totfact>
</mgrwt>
</event>
<event>
 4    1  0.1399921E-004  0.2820116E+03  0.7818608E-02  0.1094595E+00
          2   -1    0    0  501    0  0.00000000000E+00  0.00000000000E+00  0.25835546586E+03  0.25835546587E+03  0.25500000000E-02 0.  1.
         -2   -1    0    0    0  501 -0.00000000000E+00 -0.00000000000E+00 -0.76958471776E+02  0.76958471818E+02  0.25500000000E-02 0. -1.
    5000001    1    1    2    0    0  0.30720463059E+02 -0.35422031187E+02  0.13758784091E+03  0.19302300669E+03  0.12700000000E+03 0.  0.
   -5000001    1    1    2    0    0 -0.30720463059E+02  0.35422031187E+02  0.43809153173E+02  0.14229093100E+03  0.12700000000E+03 0.  0.
<mgrwt>
<rscale>  0 0.28201164E+03</rscale>
<asrwt>0</asrwt>
<pdfrwt beam="1">  1        2 0.36907923E-01 0.28201164E+03</pdfrwt>
<pdfrwt beam="2">  1       -2 0.10994068E-01 0.28201164E+03</pdfrwt>
<totfact> 0.78966462E+03</totfact>
</mgrwt>
</event>
<event>
 4    1  0.1399921E-004  0.3419099E+03  0.7818608E-02  0.1065985E+00
          2   -1    0    0  501    0  0.00000000000E+00  0.00000000000E+00  0.19442873574E+03  0.19442873576E+03  0.25500000000E-02 0. -1.
         -2   -1    0    0    0  501 -0.00000000000E+00 -0.00000000000E+00 -0.15031517043E+03  0.15031517045E+03  0.25500000000E-02 0.  1.
    5000001    1    1    2    0    0  0.46423570484E+01 -0.77057107594E+02  0.10723922679E+03  0.18327193203E+03  0.12700000000E+03 0.  0.
   -5000001    1    1    2    0    0 -0.46423570484E+01  0.77057107594E+02 -0.63125661474E+02  0.16147197418E+03  0.12700000000E+03 0.  0.
<mgrwt>
<rscale>  0 0.34190986E+03</rscale>
<asrwt>0</asrwt>
<pdfrwt beam="1">  1        2 0.27775534E-01 0.34190986E+03</pdfrwt>
<pdfrwt beam="2">  1       -2 0.21473596E-01 0.34190986E+03</pdfrwt>
<totfact> 0.35623113E+03</totfact>
</mgrwt>
</event>
<event>
 4    1  0.1399921E-004  0.4817433E+03  0.7818608E-02  0.1018657E+00
          2   -1    0    0  501    0  0.00000000000E+00  0.00000000000E+00  0.12845121598E+04  0.12845121598E+04  0.25500000000E-02 0. -1.
         -2   -1    0    0    0  501 -0.00000000000E+00 -0.00000000000E+00 -0.45168238868E+02  0.45168238940E+02  0.25500000000E-02 0.  1.
    5000001    1    1    2    0    0  0.15766887848E+03  0.11330518109E+03  0.79839229174E+03  0.83141854130E+03  0.12700000000E+03 0.  0.
   -5000001    1    1    2    0    0 -0.15766887848E+03 -0.11330518109E+03  0.44095162924E+03  0.49826185749E+03  0.12700000000E+03 0.  0.
<mgrwt>
<rscale>  0 0.48174330E+03</rscale>
<asrwt>0</asrwt>
<pdfrwt beam="1">  1        2 0.18350171E+00 0.48174330E+03</pdfrwt>
<pdfrwt beam="2">  1       -2 0.64526064E-02 0.48174330E+03</pdfrwt>
<totfact> 0.26709395E+03</totfact>
</mgrwt>
</event>
<event>
 4    1  0.1399921E-004  0.2864427E+03  0.7818608E-02  0.1092221E+00
          2   -1    0    0  501    0  0.00000000000E+00  0.00000000000E+00  0.12088867400E+04  0.12088867400E+04  0.25500000000E-02 0.  1.
         -2   -1    0    0    0  501 -0.00000000000E+00 -0.00000000000E+00 -0.16967976507E+02  0.16967976699E+02  0.25500000000E-02 0. -1.
    5000001    1    1    2    0    0  0.51916962573E+02 -0.37454361457E+02  0.66822750743E+03  0.68319484913E+03  0.12700000000E+03 0.  0.
   -5000001    1    1    2    0    0 -0.51916962573E+02  0.37454361457E+02  0.52369125609E+03  0.54265986759E+03  0.12700000000E+03 0.  0.
<mgrwt>
<rscale>  0 0.28644275E+03</rscale>
<asrwt>0</asrwt>
<pdfrwt beam="1">  1        2 0.17269802E+00 0.28644275E+03</pdfrwt>
<pdfrwt beam="2">  1       -2 0.24239978E-02 0.28644275E+03</pdfrwt>
<totfact> 0.12890897E+04</totfact>
</mgrwt>
</event>
<event>
 4    1  0.1399921E-004  0.3509600E+03  0.7818608E-02  0.1062222E+00
          2   -1    0    0  501    0  0.00000000000E+00  0.00000000000E+00  0.42857571589E+03  0.42857571589E+03  0.25500000000E-02 0.  1.
         -2   -1    0    0    0  501 -0.00000000000E+00 -0.00000000000E+00 -0.71850167661E+02  0.71850167706E+02  0.25500000000E-02 0. -1.
    5000001    1    1    2    0    0 -0.10531541752E+03  0.26498646574E+02  0.25476000831E+03  0.30467224566E+03  0.12700000000E+03 0.  0.
   -5000001    1    1    2    0    0  0.10531541752E+03 -0.26498646574E+02  0.10196553991E+03  0.19575363794E+03  0.12700000000E+03 0.  0.
<mgrwt>
<rscale>  0 0.35096004E+03</rscale>
<asrwt>0</asrwt>
<pdfrwt beam="1">  1        2 0.61225103E-01 0.35096004E+03</pdfrwt>
<pdfrwt beam="2">  1       -2 0.10264310E-01 0.35096004E+03</pdfrwt>
<totfact> 0.51297053E+03</totfact>
</mgrwt>
</event>
<event>
 4    1  0.1399921E-004  0.2899882E+03  0.7818608E-02  0.1090355E+00
          2   -1    0    0  501    0  0.00000000000E+00  0.00000000000E+00  0.29045164989E+03  0.29045164990E+03  0.25500000000E-02 0.  1.
         -2   -1    0    0    0  501 -0.00000000000E+00 -0.00000000000E+00 -0.72381348060E+02  0.72381348105E+02  0.25500000000E-02 0. -1.
    5000001    1    1    2    0    0 -0.34987060420E+02 -0.32044926736E+02  0.17336323161E+03  0.22007903535E+03  0.12700000000E+03 0.  0.
   -5000001    1    1    2    0    0  0.34987060420E+02  0.32044926736E+02  0.44707070221E+02  0.14275396266E+03  0.12700000000E+03 0.  0.
<mgrwt>
<rscale>  0 0.28998815E+03</rscale>
<asrwt>0</asrwt>
<pdfrwt beam="1">  1        2 0.41493093E-01 0.28998815E+03</pdfrwt>
<pdfrwt beam="2">  1       -2 0.10340193E-01 0.28998815E+03</pdfrwt>
<totfact> 0.76827223E+03</totfact>
</mgrwt>
</event>
<event>
 4    1  0.1399921E-004  0.3396440E+03  0.7818608E-02  0.1066948E+00
          2   -1    0    0  501    0  0.00000000000E+00  0.00000000000E+00  0.93867715896E+02  0.93867715931E+02  0.25500000000E-02 0.  1.
         -2   -1    0    0    0  501 -0.00000000000E+00 -0.00000000000E+00 -0.30723563320E+03  0.30723563321E+03  0.25500000000E-02 0. -1.
    5000001    1    1    2    0    0 -0.95371764214E+02 -0.51778574929E+02 -0.14276998460E+03  0.21974772521E+03  0.12700000000E+03 0.  0.
   -5000001    1    1    2    0    0  0.95371764214E+02  0.51778574929E+02 -0.70597932704E+02  0.18135562394E+03  0.12700000000E+03 0.  0.
<mgrwt>
<rscale>  0 0.33964397E+03</rscale>
<asrwt>0</asrwt>
<pdfrwt beam="1">  1        2 0.13409674E-01 0.33964397E+03</pdfrwt>
<pdfrwt beam="2">  1       -2 0.43890804E-01 0.33964397E+03</pdfrwt>
<totfact> 0.22293366E+03</totfact>
</mgrwt>
</event>
<event>
 4    1  0.1399921E-004  0.4639854E+03  0.7818608E-02  0.1023632E+00
          2   -1    0    0  501    0  0.00000000000E+00  0.00000000000E+00  0.18581548806E+03  0.18581548808E+03  0.25500000000E-02 0.  1.
         -2   -1    0    0    0  501 -0.00000000000E+00 -0.00000000000E+00 -0.28964542535E+03  0.28964542536E+03  0.25500000000E-02 0. -1.
    5000001    1    1    2    0    0  0.13583601880E+02  0.15980378957E+03  0.60197707061E+02  0.21324757756E+03  0.12700000000E+03 0.  0.
   -5000001    1    1    2    0    0 -0.13583601880E+02 -0.15980378957E+03 -0.16402764435E+03  0.26221333588E+03  0.12700000000E+03 0.  0.
<mgrwt>
<rscale>  0 0.46398537E+03</rscale>
<asrwt>0</asrwt>
<pdfrwt beam="1">  1        2 0.26545070E-01 0.46398537E+03</pdfrwt>
<pdfrwt beam="2">  1       -2 0.41377918E-01 0.46398537E+03</pdfrwt>
<totfact> 0.11313863E+03</totfact>
</mgrwt>
</event>
<event>
 4    1  0.1399921E-004  0.3148434E+03  0.7818608E-02  0.1078047E+00
         -2   -1    0    0    0  501 -0.00000000000E+00  0.00000000000E+00  0.39395892054E+02  0.39395892137E+02  0.25500000000E-02 0. -1.
          2   -1    0    0  501    0  0.00000000000E+00 -0.00000000000E+00 -0.62903980710E+03  0.62903980710E+03  0.25500000000E-02 0.  1.
    5000001    1    1    2    0    0 -0.66719914053E+02  0.93206313141E+01 -0.15864429746E+03  0.21409211619E+03  0.12700000000E+03 0.  0.
   -5000001    1    1    2    0    0  0.66719914053E+02 -0.93206313141E+01 -0.43099961758E+03  0.45434358305E+03  0.12700000000E+03 0.  0.
<mgrwt>
<rscale>  0 0.31484335E+03</rscale>
<asrwt>0</asrwt>
<pdfrwt beam="1">  1        2 0.89862823E-01 0.31484335E+03</pdfrwt>
<pdfrwt beam="2">  1       -2 0.56279850E-02 0.31484335E+03</pdfrwt>
<totfact> 0.85163343E+03</totfact>
</mgrwt>
</event>
<event>
 4    1  0.1399921E-004  0.3294228E+03  0.7818608E-02  0.1071393E+00
         -2   -1    0    0    0  501 -0.00000000000E+00  0.00000000000E+00  0.93930654965E+02  0.93930655000E+02  0.25500000000E-02 0. -1.
          2   -1    0    0  501    0  0.00000000000E+00 -0.00000000000E+00 -0.28882844698E+03  0.28882844699E+03  0.25500000000E-02 0.  1.
    5000001    1    1    2    0    0  0.91301480740E+02 -0.79321410642E+01 -0.38180567597E+02  0.16120060480E+03  0.12700000000E+03 0.  0.
   -5000001    1    1    2    0    0 -0.91301480740E+02  0.79321410642E+01 -0.15671722442E+03  0.22155849719E+03  0.12700000000E+03 0.  0.
<mgrwt>
<rscale>  0 0.32942280E+03</rscale>
<asrwt>0</asrwt>
<pdfrwt beam="1">  1        2 0.41261206E-01 0.32942280E+03</pdfrwt>
<pdfrwt beam="2">  1       -2 0.13418665E-01 0.32942280E+03</pdfrwt>
<totfact> 0.50927895E+03</totfact>
</mgrwt>
</event>
<event>
 4    1  0.1399921E-004  0.6306616E+03  0.7818608E-02  0.9843759E-01
         -2   -1    0    0    0  501 -0.00000000000E+00  0.00000000000E+00  0.12949647264E+03  0.12949647266E+03  0.25500000000E-02 0. -1.
          2   -1    0    0  501    0  0.00000000000E+00 -0.00000000000E+00 -0.76784716791E+03  0.76784716791E+03  0.25500000000E-02 0.  1.
    5000001    1    1    2    0    0  0.12840999173E+03 -0.21957369914E+02 -0.68563659997E+03  0.70936436285E+03  0.12700000000E+03 0.  0.
   -5000001    1    1    2    0    0 -0.12840999173E+03  0.21957369914E+02  0.47285904700E+02  0.18797927772E+03  0.12700000000E+03 0.  0.
<mgrwt>
<rscale>  0 0.63066156E+03</rscale>
<asrwt>0</asrwt>
<pdfrwt beam="1">  1        2 0.10969245E+00 0.63066156E+03</pdfrwt>
<pdfrwt beam="2">  1       -2 0.18499496E-01 0.63066156E+03</pdfrwt>
<totfact> 0.98248859E+02</totfact>
</mgrwt>
</event>
<event>
 4    1  0.1399921E-004  0.6809187E+03  0.7818608E-02  0.9750432E-01
          2   -1    0    0  501    0  0.00000000000E+00  0.00000000000E+00  0.53401689957E+03  0.53401689958E+03  0.25500000000E-02 0.  1.
         -2   -1    0    0    0  501 -0.00000000000E+00 -0.00000000000E+00 -0.21705783497E+03  0.21705783499E+03  0.25500000000E-02 0. -1.
    5000001    1    1    2    0    0 -0.54744913084E+02  0.30750226260E+03  0.21055506341E+03  0.39751362460E+03  0.12700000000E+03 0.  0.
   -5000001    1    1    2    0    0  0.54744913084E+02 -0.30750226260E+03  0.10640400119E+03  0.35356110997E+03  0.12700000000E+03 0.  0.
<mgrwt>
<rscale>  0 0.68091865E+03</rscale>
<asrwt>0</asrwt>
<pdfrwt beam="1">  1        2 0.76288130E-01 0.68091865E+03</pdfrwt>
<pdfrwt beam="2">  1       -2 0.31008262E-01 0.68091865E+03</pdfrwt>
<totfact> 0.60242599E+02</totfact>
</mgrwt>
</event>
<event>
 4    1  0.1399921E-004  0.3979860E+03  0.7818608E-02  0.1044479E+00
         -2   -1    0    0    0  501 -0.00000000000E+00  0.00000000000E+00  0.41658930626E+03  0.41658930627E+03  0.25500000000E-02 0. -1.
          2   -1    0    0  501    0  0.00000000000E+00 -0.00000000000E+00 -0.95053384529E+02  0.95053384563E+02  0.25500000000E-02 0.  1.
    5000001    1    1    2    0    0  0.11104642678E+03 -0.66121029012E+02  0.26651360564E+03  0.32227597083E+03  0.12700000000E+03 0.  0.
   -5000001    1    1    2    0    0 -0.11104642678E+03  0.66121029012E+02  0.55022316088E+02  0.18936672001E+03  0.12700000000E+03 0.  0.
<mgrwt>
<rscale>  0 0.39798605E+03</rscale>
<asrwt>0</asrwt>
<pdfrwt beam="1">  1        2 0.13579055E-01 0.39798605E+03</pdfrwt>
<pdfrwt beam="2">  1       -2 0.59512758E-01 0.39798605E+03</pdfrwt>
<totfact> 0.11910674E+03</totfact>
</mgrwt>
</event>
<event>
 4    1  0.1399921E-004  0.6137077E+03  0.7818608E-02  0.9877368E-01
         -2   -1    0    0    0  501 -0.00000000000E+00  0.00000000000E+00  0.55745901774E+02  0.55745901832E+02  0.25500000000E-02 0. -1.
          2   -1    0    0  501    0  0.00000000000E+00 -0.00000000000E+00 -0.16890800953E+04  0.16890800953E+04  0.25500000000E-02 0.  1.
    5000001    1    1    2    0    0 -0.22069317125E+03 -0.16101925225E+03 -0.65094600404E+03  0.71728123885E+03  0.12700000000E+03 0.  0.
   -5000001    1    1    2    0    0  0.22069317125E+03  0.16101925225E+03 -0.98238818948E+03  0.10275447583E+04  0.12700000000E+03 0.  0.
<mgrwt>
<rscale>  0 0.61370773E+03</rscale>
<asrwt>0</asrwt>
<pdfrwt beam="1">  1        2 0.24129712E+00 0.61370773E+03</pdfrwt>
<pdfrwt beam="2">  1       -2 0.79637013E-02 0.61370773E+03</pdfrwt>
<totfact> 0.11734808E+03</totfact>
</mgrwt>
</event>
<event>
 4    1  0.1399921E-004  0.5286767E+03  0.7818608E-02  0.1006554E+00
         -2   -1    0    0    0  501 -0.00000000000E+00  0.00000000000E+00  0.21228538945E+02  0.21228539098E+02  0.25500000000E-02 0. -1.
          2   -1    0    0  501    0  0.00000000000E+00 -0.00000000000E+00 -0.32915482802E+04  0.32915482802E+04  0.25500000000E-02 0.  1.
    5000001    1    1    2    0    0  0.17842482810E+03  0.96567429592E+02 -0.23381187009E+04  0.23503380070E+04  0.12700000000E+03 0.  0.
   -5000001    1    1    2    0    0 -0.17842482810E+03 -0.96567429592E+02 -0.93220104033E+03  0.96243881226E+03  0.12700000000E+03 0.  0.
<mgrwt>
<rscale>  0 0.52867669E+03</rscale>
<asrwt>0</asrwt>
<pdfrwt beam="1">  1        2 0.47022086E+00 0.52867669E+03</pdfrwt>
<pdfrwt beam="2">  1       -2 0.30326505E-02 0.52867669E+03</pdfrwt>
<totfact> 0.77307589E+02</totfact>
</mgrwt>
</event>
<event>
 4    1  0.1399921E-004  0.2907269E+03  0.7818608E-02  0.1089970E+00
         -2   -1    0    0    0  501 -0.00000000000E+00  0.00000000000E+00  0.59661998404E+02  0.59661998458E+02  0.25500000000E-02 0. -1.
          2   -1    0    0  501    0  0.00000000000E+00 -0.00000000000E+00 -0.35417065582E+03  0.35417065583E+03  0.25500000000E-02 0.  1.
    5000001    1    1    2    0    0 -0.39873376230E+01 -0.63113460143E+02 -0.10218894461E+03  0.17484504029E+03  0.12700000000E+03 0.  0.
   -5000001    1    1    2    0    0  0.39873376230E+01  0.63113460143E+02 -0.19231971281E+03  0.23898761400E+03  0.12700000000E+03 0.  0.
<mgrwt>
<rscale>  0 0.29072688E+03</rscale>
<asrwt>0</asrwt>
<pdfrwt beam="1">  1        2 0.50595807E-01 0.29072688E+03</pdfrwt>
<pdfrwt beam="2">  1       -2 0.85231428E-02 0.29072688E+03</pdfrwt>
<totfact> 0.84260055E+03</totfact>
</mgrwt>
</event>
<event>
 4    1  0.1399921E-004  0.7027238E+03  0.7818608E-02  0.9712585E-01
          2   -1    0    0  501    0  0.00000000000E+00  0.00000000000E+00  0.70283405711E+03  0.70283405711E+03  0.25500000000E-02 0.  1.
         -2   -1    0    0    0  501 -0.00000000000E+00 -0.00000000000E+00 -0.17565340768E+03  0.17565340769E+03  0.25500000000E-02 0. -1.
    5000001    1    1    2    0    0 -0.21847499776E+03  0.19680349531E+03  0.83021847325E+02  0.33088452298E+03  0.12700000000E+03 0.  0.
   -5000001    1    1    2    0    0  0.21847499776E+03 -0.19680349531E+03  0.44415880211E+03  0.54760294183E+03  0.12700000000E+03 0.  0.
<mgrwt>
<rscale>  0 0.70272384E+03</rscale>
<asrwt>0</asrwt>
<pdfrwt beam="1">  1        2 0.10040487E+00 0.70272384E+03</pdfrwt>
<pdfrwt beam="2">  1       -2 0.25093344E-01 0.70272384E+03</pdfrwt>
<totfact> 0.63985185E+02</totfact>
</mgrwt>
</event>
<event>
 4    1  0.1399921E-004  0.3576290E+03  0.7818608E-02  0.1059527E+00
          2   -1    0    0  501    0  0.00000000000E+00  0.00000000000E+00  0.30258114542E+03  0.30258114543E+03  0.25500000000E-02 0.  1.
         -2   -1    0    0    0  501 -0.00000000000E+00 -0.00000000000E+00 -0.10567287761E+03  0.10567287764E+03  0.25500000000E-02 0. -1.
    5000001    1    1    2    0    0  0.28513215674E+02  0.10635870904E+03  0.16808391704E+03  0.23771070994E+03  0.12700000000E+03 0.  0.
   -5000001    1    1    2    0    0 -0.28513215674E+02 -0.10635870904E+03  0.28824350770E+02  0.17054331313E+03  0.12700000000E+03 0.  0.
<mgrwt>
<rscale>  0 0.35762897E+03</rscale>
<asrwt>0</asrwt>
<pdfrwt beam="1">  1        2 0.43225878E-01 0.35762897E+03</pdfrwt>
<pdfrwt beam="2">  1       -2 0.15096125E-01 0.35762897E+03</pdfrwt>
<totfact> 0.39945248E+03</totfact>
</mgrwt>
</event>
<event>
 4    1  0.1399921E-004  0.5516718E+03  0.7818608E-02  0.1001108E+00
          2   -1    0    0  501    0  0.00000000000E+00  0.00000000000E+00  0.22311330365E+03  0.22311330366E+03  0.25500000000E-02 0.  1.
         -2   -1    0    0    0  501 -0.00000000000E+00 -0.00000000000E+00 -0.34101703356E+03  0.34101703357E+03  0.25500000000E-02 0. -1.
    5000001    1    1    2    0    0  0.48389523443E+02  0.16425875731E+03  0.12002636195E+03  0.24465856391E+03  0.12700000000E+03 0.  0.
   -5000001    1    1    2    0    0 -0.48389523443E+02 -0.16425875731E+03 -0.23793009186E+03  0.31947177332E+03  0.12700000000E+03 0.  0.
<mgrwt>
<rscale>  0 0.55167178E+03</rscale>
<asrwt>0</asrwt>
<pdfrwt beam="1">  1        2 0.31873329E-01 0.55167178E+03</pdfrwt>
<pdfrwt beam="2">  1       -2 0.48716719E-01 0.55167178E+03</pdfrwt>
<totfact> 0.66714644E+02</totfact>
</mgrwt>
</event>
<event>
 4    1  0.1399921E-004  0.4013940E+03  0.7818608E-02  0.1043298E+00
         -2   -1    0    0    0  501 -0.00000000000E+00  0.00000000000E+00  0.17654043966E+02  0.17654044150E+02  0.25500000000E-02 0. -1.
          2   -1    0    0  501    0  0.00000000000E+00 -0.00000000000E+00 -0.22815902954E+04  0.22815902954E+04  0.25500000000E-02 0.  1.
    5000001    1    1    2    0    0 -0.15456018169E+02 -0.99123864831E+02 -0.45212927251E+03  0.48022318575E+03  0.12700000000E+03 0.  0.
   -5000001    1    1    2    0    0  0.15456018169E+02  0.99123864831E+02 -0.18118069789E+04  0.18190211538E+04  0.12700000000E+03 0.  0.
<mgrwt>
<rscale>  0 0.40139405E+03</rscale>
<asrwt>0</asrwt>
<pdfrwt beam="1">  1        2 0.32594128E+00 0.40139405E+03</pdfrwt>
<pdfrwt beam="2">  1       -2 0.25220077E-02 0.40139405E+03</pdfrwt>
<totfact> 0.35121873E+03</totfact>
</mgrwt>
</event>
<event>
 4    1  0.1399921E-004  0.5994275E+03  0.7818608E-02  0.9906595E-01
          2   -1    0    0  501    0  0.00000000000E+00  0.00000000000E+00  0.89674406456E+03  0.89674406457E+03  0.25500000000E-02 0.  1.
         -2   -1    0    0    0  501 -0.00000000000E+00 -0.00000000000E+00 -0.10017164188E+03  0.10017164192E+03  0.25500000000E-02 0. -1.
    5000001    1    1    2    0    0 -0.24745867327E+03  0.32128519690E+02  0.57610161707E+03  0.64053892150E+03  0.12700000000E+03 0.  0.
   -5000001    1    1    2    0    0  0.24745867327E+03 -0.32128519690E+02  0.22047080560E+03  0.35637678499E+03  0.12700000000E+03 0.  0.
<mgrwt>
<rscale>  0 0.59942748E+03</rscale>
<asrwt>0</asrwt>
<pdfrwt beam="1">  1        2 0.12810630E+00 0.59942748E+03</pdfrwt>
<pdfrwt beam="2">  1       -2 0.14310235E-01 0.59942748E+03</pdfrwt>
<totfact> 0.12436865E+03</totfact>
</mgrwt>
</event>
<event>
 4    1  0.1399921E-004  0.2706703E+03  0.7818608E-02  0.1100897E+00
         -2   -1    0    0    0  501 -0.00000000000E+00  0.00000000000E+00  0.42264326090E+02  0.42264326167E+02  0.25500000000E-02 0. -1.
          2   -1    0    0  501    0  0.00000000000E+00 -0.00000000000E+00 -0.43335856185E+03  0.43335856185E+03  0.25500000000E-02 0.  1.
    5000001    1    1    2    0    0  0.22902196565E+02  0.40705558381E+02 -0.19155764604E+03  0.23453098910E+03  0.12700000000E+03 0.  0.
   -5000001    1    1    2    0    0 -0.22902196565E+02 -0.40705558381E+02 -0.19953658971E+03  0.24109189892E+03  0.12700000000E+03 0.  0.
<mgrwt>
<rscale>  0 0.27067034E+03</rscale>
<asrwt>0</asrwt>
<pdfrwt beam="1">  1        2 0.61908364E-01 0.27067034E+03</pdfrwt>
<pdfrwt beam="2">  1       -2 0.60377611E-02 0.27067034E+03</pdfrwt>
<totfact> 0.11531951E+04</totfact>
</mgrwt>
</event>
<event>
 4    1  0.1399921E-004  0.3962046E+03  0.7818608E-02  0.1045102E+00
         -2   -1    0    0    0  501 -0.00000000000E+00  0.00000000000E+00  0.33869260460E+02  0.33869260556E+02  0.25500000000E-02 0. -1.
          2   -1    0    0  501    0  0.00000000000E+00 -0.00000000000E+00 -0.11587062765E+04  0.11587062765E+04  0.25500000000E-02 0.  1.
    5000001    1    1    2    0    0  0.80802715579E+02  0.12861600882E+03 -0.58246794148E+03  0.61519839029E+03  0.12700000000E+03 0.  0.
   -5000001    1    1    2    0    0 -0.80802715579E+02 -0.12861600882E+03 -0.54236907459E+03  0.57737714679E+03  0.12700000000E+03 0.  0.
<mgrwt>
<rscale>  0 0.39620462E+03</rscale>
<asrwt>0</asrwt>
<pdfrwt beam="1">  1        2 0.16552944E+00 0.39620462E+03</pdfrwt>
<pdfrwt beam="2">  1       -2 0.48384665E-02 0.39620462E+03</pdfrwt>
<totfact> 0.48877750E+03</totfact>
</mgrwt>
</event>
<event>
 4    1  0.1399921E-004  0.4873858E+03  0.7818608E-02  0.1017125E+00
          2   -1    0    0  501    0  0.00000000000E+00  0.00000000000E+00  0.59545635301E+03  0.59545635302E+03  0.25500000000E-02 0. -1.
         -2   -1    0    0    0  501 -0.00000000000E+00 -0.00000000000E+00 -0.99732288402E+02  0.99732288435E+02  0.25500000000E-02 0.  1.
    5000001    1    1    2    0    0 -0.20195985813E+03 -0.41210572364E+02  0.28747098689E+03  0.37583861413E+03  0.12700000000E+03 0.  0.
   -5000001    1    1    2    0    0  0.20195985813E+03  0.41210572364E+02  0.20825307772E+03  0.31935002732E+03  0.12700000000E+03 0.  0.
<mgrwt>
<rscale>  0 0.48738578E+03</rscale>
<asrwt>0</asrwt>
<pdfrwt beam="1">  1        2 0.85065191E-01 0.48738578E+03</pdfrwt>
<pdfrwt beam="2">  1       -2 0.14247470E-01 0.48738578E+03</pdfrwt>
<totfact> 0.20829531E+03</totfact>
</mgrwt>
</event>
<event>
 4    1  0.1399921E-004  0.3635800E+03  0.7818608E-02  0.1057175E+00
          2   -1    0    0  501    0  0.00000000000E+00  0.00000000000E+00  0.62377564202E+02  0.62377564254E+02  0.25500000000E-02 0.  1.
         -2   -1    0    0    0  501 -0.00000000000E+00 -0.00000000000E+00 -0.52979959529E+03  0.52979959529E+03  0.25500000000E-02 0. -1.
    5000001    1    1    2    0    0  0.75623489500E+02 -0.37581922404E+02 -0.72578575345E+02  0.16890222809E+03  0.12700000000E+03 0.  0.
   -5000001    1    1    2    0    0 -0.75623489500E+02  0.37581922404E+02 -0.39484345574E+03  0.42327493145E+03  0.12700000000E+03 0.  0.
<mgrwt>
<rscale>  0 0.36358002E+03</rscale>
<asrwt>0</asrwt>
<pdfrwt beam="1">  1        2 0.89110809E-02 0.36358002E+03</pdfrwt>
<pdfrwt beam="2">  1       -2 0.75685654E-01 0.36358002E+03</pdfrwt>
<totfact> 0.12008937E+03</totfact>
</mgrwt>
</event>
<event>
 4    1  0.1399921E-004  0.3524514E+03  0.7818608E-02  0.1061613E+00
          2   -1    0    0  501    0  0.00000000000E+00  0.00000000000E+00  0.17413643270E+04  0.17413643270E+04  0.25500000000E-02 0.  1.
         -2   -1    0    0    0  501 -0.00000000000E+00 -0.00000000000E+00 -0.17834003011E+02  0.17834003193E+02  0.25500000000E-02 0. -1.
    5000001    1    1    2    0    0  0.53960173539E+02 -0.10866627790E+03  0.79005035314E+03  0.80933838459E+03  0.12700000000E+03 0.  0.
   -5000001    1    1    2    0    0 -0.53960173539E+02  0.10866627790E+03  0.93347997084E+03  0.94985994559E+03  0.12700000000E+03 0.  0.
<mgrwt>
<rscale>  0 0.35245140E+03</rscale>
<asrwt>0</asrwt>
<pdfrwt beam="1">  1        2 0.24876637E+00 0.35245140E+03</pdfrwt>
<pdfrwt beam="2">  1       -2 0.25477143E-02 0.35245140E+03</pdfrwt>
<totfact> 0.64052398E+03</totfact>
</mgrwt>
</event>
<event>
 4    1  0.1399921E-004  0.4712814E+03  0.7818608E-02  0.1021559E+00
          2   -1    0    0  501    0  0.00000000000E+00  0.00000000000E+00  0.47386034872E+03  0.47386034873E+03  0.25500000000E-02 0. -1.
         -2   -1    0    0    0  501 -0.00000000000E+00 -0.00000000000E+00 -0.11717912253E+03  0.11717912256E+03  0.25500000000E-02 0.  1.
    5000001    1    1    2    0    0 -0.85615495695E+02  0.17858457903E+03  0.19493450029E+03  0.30553383507E+03  0.12700000000E+03 0.  0.
   -5000001    1    1    2    0    0  0.85615495695E+02 -0.17858457903E+03  0.16174672591E+03  0.28550563622E+03  0.12700000000E+03 0.  0.
<mgrwt>
<rscale>  0 0.47128140E+03</rscale>
<asrwt>0</asrwt>
<pdfrwt beam="1">  1        2 0.67694336E-01 0.47128140E+03</pdfrwt>
<pdfrwt beam="2">  1       -2 0.16739875E-01 0.47128140E+03</pdfrwt>
<totfact> 0.20613677E+03</totfact>
</mgrwt>
</event>
<event>
 4    1  0.1399921E-004  0.4563727E+03  0.7818608E-02  0.1025839E+00
          2   -1    0    0  501    0  0.00000000000E+00  0.00000000000E+00  0.22237934289E+04  0.22237934289E+04  0.25500000000E-02 0.  1.
         -2   -1    0    0    0  501 -0.00000000000E+00 -0.00000000000E+00 -0.23414500344E+02  0.23414500483E+02  0.25500000000E-02 0. -1.
    5000001    1    1    2    0    0 -0.80504503587E+02 -0.15821366777E+03  0.14278329404E+04  0.14444197609E+04  0.12700000000E+03 0.  0.
   -5000001    1    1    2    0    0  0.80504503587E+02  0.15821366777E+03  0.77254598813E+03  0.80278816853E+03  0.12700000000E+03 0.  0.
<mgrwt>
<rscale>  0 0.45637271E+03</rscale>
<asrwt>0</asrwt>
<pdfrwt beam="1">  1        2 0.31768484E+00 0.45637271E+03</pdfrwt>
<pdfrwt beam="2">  1       -2 0.33449279E-02 0.45637271E+03</pdfrwt>
<totfact> 0.24476464E+03</totfact>
</mgrwt>
</event>
<event>
 4    1  0.1399921E-004  0.2810146E+03  0.7818608E-02  0.1095136E+00
         -2   -1    0    0    0  501 -0.00000000000E+00  0.00000000000E+00  0.14709908817E+02  0.14709909038E+02  0.25500000000E-02 0. -1.
          2   -1    0    0  501    0  0.00000000000E+00 -0.00000000000E+00 -0.13421088402E+04  0.13421088402E+04  0.25500000000E-02 0.  1.
    5000001    1    1    2    0    0  0.48001670509E+02  0.29037215999E+02 -0.55947349878E+03  0.57644333297E+03  0.12700000000E+03 0.  0.
   -5000001    1    1    2    0    0 -0.48001670509E+02 -0.29037215999E+02 -0.76792543257E+03  0.78037541624E+03  0.12700000000E+03 0.  0.
<mgrwt>
<rscale>  0 0.28101458E+03</rscale>
<asrwt>0</asrwt>
<pdfrwt beam="1">  1        2 0.19172976E+00 0.28101458E+03</pdfrwt>
<pdfrwt beam="2">  1       -2 0.21014164E-02 0.28101458E+03</pdfrwt>
<totfact> 0.13516539E+04</totfact>
</mgrwt>
</event>
<event>
 4    1  0.1399921E-004  0.3146569E+03  0.7818608E-02  0.1078135E+00
          2   -1    0    0  501    0  0.00000000000E+00  0.00000000000E+00  0.10459055719E+04  0.10459055719E+04  0.25500000000E-02 0.  1.
         -2   -1    0    0    0  501 -0.00000000000E+00 -0.00000000000E+00 -0.23665845220E+02  0.23665845357E+02  0.25500000000E-02 0. -1.
    5000001    1    1    2    0    0 -0.80065004041E+02 -0.43183584831E+02  0.57453165415E+03  0.59539134062E+03  0.12700000000E+03 0.  0.
   -5000001    1    1    2    0    0  0.80065004041E+02  0.43183584831E+02  0.44770807257E+03  0.47418007667E+03  0.12700000000E+03 0.  0.
<mgrwt>
<rscale>  0 0.31465689E+03</rscale>
<asrwt>0</asrwt>
<pdfrwt beam="1">  1        2 0.14941510E+00 0.31465689E+03</pdfrwt>
<pdfrwt beam="2">  1       -2 0.33808345E-02 0.31465689E+03</pdfrwt>
<totfact> 0.97150164E+03</totfact>
</mgrwt>
</event>
<event>
 4    1  0.1399921E-004  0.4028028E+03  0.7818608E-02  0.1042813E+00
         -2   -1    0    0    0  501 -0.00000000000E+00  0.00000000000E+00  0.48298970391E+02  0.48298970459E+02  0.25500000000E-02 0. -1.
          2   -1    0    0  501    0  0.00000000000E+00 -0.00000000000E+00 -0.83982150574E+03  0.83982150574E+03  0.25500000000E-02 0.  1.
    5000001    1    1    2    0    0 -0.65702943199E+02  0.71464116493E+02 -0.66588504808E+03  0.68480354405E+03  0.12700000000E+03 0.  0.
   -5000001    1    1    2    0    0  0.65702943199E+02 -0.71464116493E+02 -0.12563748727E+03  0.20331693215E+03  0.12700000000E+03 0.  0.
<mgrwt>
<rscale>  0 0.40280275E+03</rscale>
<asrwt>0</asrwt>
<pdfrwt beam="1">  1        2 0.11997449E+00 0.40280275E+03</pdfrwt>
<pdfrwt beam="2">  1       -2 0.68998534E-02 0.40280275E+03</pdfrwt>
<totfact> 0.43972815E+03</totfact>
</mgrwt>
</event>
<event>
 4    1  0.1399921E-004  0.3234146E+03  0.7818608E-02  0.1074088E+00
         -2   -1    0    0    0  501 -0.00000000000E+00  0.00000000000E+00  0.52233119222E+02  0.52233119284E+02  0.25500000000E-02 0. -1.
          2   -1    0    0  501    0  0.00000000000E+00 -0.00000000000E+00 -0.50062581125E+03  0.50062581125E+03  0.25500000000E-02 0.  1.
    5000001    1    1    2    0    0 -0.91543064821E+02  0.39085073110E+02 -0.20606721310E+03  0.26172594822E+03  0.12700000000E+03 0.  0.
   -5000001    1    1    2    0    0  0.91543064821E+02 -0.39085073110E+02 -0.24232547893E+03  0.29113298232E+03  0.12700000000E+03 0.  0.
<mgrwt>
<rscale>  0 0.32341458E+03</rscale>
<asrwt>0</asrwt>
<pdfrwt beam="1">  1        2 0.71517970E-01 0.32341458E+03</pdfrwt>
<pdfrwt beam="2">  1       -2 0.74618745E-02 0.32341458E+03</pdfrwt>
<totfact> 0.71378972E+03</totfact>
</mgrwt>
</event>
<event>
 4    1  0.1399921E-004  0.8438739E+03  0.7818608E-02  0.9498596E-01
         -2   -1    0    0    0  501 -0.00000000000E+00  0.00000000000E+00  0.86438735133E+02  0.86438735171E+02  0.25500000000E-02 0. -1.
          2   -1    0    0  501    0  0.00000000000E+00 -0.00000000000E+00 -0.20596182069E+04  0.20596182069E+04  0.25500000000E-02 0.  1.
    5000001    1    1    2    0    0  0.29055938791E+03  0.13357794571E+03 -0.36556266209E+03  0.50202876949E+03  0.12700000000E+03 0.  0.
   -5000001    1    1    2    0    0 -0.29055938791E+03 -0.13357794571E+03 -0.16076168097E+04  0.16440281726E+04  0.12700000000E+03 0.  0.
<mgrwt>
<rscale>  0 0.84387391E+03</rscale>
<asrwt>0</asrwt>
<pdfrwt beam="1">  1        2 0.29423114E+00 0.84387391E+03</pdfrwt>
<pdfrwt beam="2">  1       -2 0.12348392E-01 0.84387391E+03</pdfrwt>
<totfact> 0.36809695E+02</totfact>
</mgrwt>
</event>
<event>
 4    1  0.1399921E-004  0.3338439E+03  0.7818608E-02  0.1069449E+00
         -2   -1    0    0    0  501 -0.00000000000E+00  0.00000000000E+00  0.14472864194E+02  0.14472864418E+02  0.25500000000E-02 0. -1.
          2   -1    0    0  501    0  0.00000000000E+00 -0.00000000000E+00 -0.19251846423E+04  0.19251846423E+04  0.25500000000E-02 0.  1.
    5000001    1    1    2    0    0 -0.60507354802E+02  0.88467696424E+02 -0.86417978666E+03  0.88001328227E+03  0.12700000000E+03 0.  0.
   -5000001    1    1    2    0    0  0.60507354802E+02 -0.88467696424E+02 -0.10465319915E+04  0.10596442245E+04  0.12700000000E+03 0.  0.
<mgrwt>
<rscale>  0 0.33384389E+03</rscale>
<asrwt>0</asrwt>
<pdfrwt beam="1">  1        2 0.27502621E+00 0.33384389E+03</pdfrwt>
<pdfrwt beam="2">  1       -2 0.20675533E-02 0.33384389E+03</pdfrwt>
<totfact> 0.70864979E+03</totfact>
</mgrwt>
</event>
<event>
 4    1  0.1399921E-004  0.3340502E+03  0.7818608E-02  0.1069359E+00
         -2   -1    0    0    0  501 -0.00000000000E+00  0.00000000000E+00  0.59259555609E+02  0.59259555664E+02  0.25500000000E-02 0. -1.
          2   -1    0    0  501    0  0.00000000000E+00 -0.00000000000E+00 -0.47076602087E+03  0.47076602088E+03  0.25500000000E-02 0.  1.
    5000001    1    1    2    0    0  0.36296805339E+02 -0.84898824227E+02 -0.29611118386E+03  0.33516578232E+03  0.12700000000E+03 0.  0.
   -5000001    1    1    2    0    0 -0.36296805339E+02  0.84898824227E+02 -0.11539528140E+03  0.19485979422E+03  0.12700000000E+03 0.  0.
<mgrwt>
<rscale>  0 0.33405021E+03</rscale>
<asrwt>0</asrwt>
<pdfrwt beam="1">  1        2 0.67252286E-01 0.33405021E+03</pdfrwt>
<pdfrwt beam="2">  1       -2 0.84656511E-02 0.33405021E+03</pdfrwt>
<totfact> 0.62751730E+03</totfact>
</mgrwt>
</event>
<event>
 4    1  0.1399921E-004  0.3847001E+03  0.7818608E-02  0.1049210E+00
         -2   -1    0    0    0  501 -0.00000000000E+00  0.00000000000E+00  0.24785502638E+04  0.24785502639E+04  0.25500000000E-02 0. -1.
          2   -1    0    0  501    0  0.00000000000E+00 -0.00000000000E+00 -0.14927493323E+02  0.14927493541E+02  0.25500000000E-02 0.  1.
    5000001    1    1    2    0    0  0.76703184628E+02 -0.72282336993E+02  0.59142827207E+03  0.61402322088E+03  0.12700000000E+03 0.  0.
   -5000001    1    1    2    0    0 -0.76703184628E+02  0.72282336993E+02  0.18721944985E+04  0.18794545365E+04  0.12700000000E+03 0.  0.
<mgrwt>
<rscale>  0 0.38470011E+03</rscale>
<asrwt>0</asrwt>
<pdfrwt beam="1">  1        2 0.21324992E-02 0.38470011E+03</pdfrwt>
<pdfrwt beam="2">  1       -2 0.35407858E+00 0.38470011E+03</pdfrwt>
<totfact> 0.86309441E+01</totfact>
</mgrwt>
</event>
<event>
 4    1  0.1399921E-004  0.3652379E+03  0.7818608E-02  0.1056529E+00
         -2   -1    0    0    0  501 -0.00000000000E+00  0.00000000000E+00  0.26128808021E+02  0.26128808145E+02  0.25500000000E-02 0. -1.
          2   -1    0    0  501    0  0.00000000000E+00 -0.00000000000E+00 -0.12763568334E+04  0.12763568334E+04  0.25500000000E-02 0.  1.
    5000001    1    1    2    0    0 -0.10066592995E+02 -0.13084090541E+03 -0.62533746991E+03  0.65145731256E+03  0.12700000000E+03 0.  0.
   -5000001    1    1    2    0    0  0.10066592995E+02  0.13084090541E+03 -0.62489055551E+03  0.65102832902E+03  0.12700000000E+03 0.  0.
<mgrwt>
<rscale>  0 0.36523791E+03</rscale>
<asrwt>0</asrwt>
<pdfrwt beam="1">  1        2 0.18233665E+00 0.36523791E+03</pdfrwt>
<pdfrwt beam="2">  1       -2 0.37326877E-02 0.36523791E+03</pdfrwt>
<totfact> 0.62490402E+03</totfact>
</mgrwt>
</event>
<event>
 4    1  0.1399921E-004  0.3084595E+03  0.7818608E-02  0.1081087E+00
          2   -1    0    0  501    0  0.00000000000E+00  0.00000000000E+00  0.33745076880E+03  0.33745076881E+03  0.25500000000E-02 0.  1.
         -2   -1    0    0    0  501 -0.00000000000E+00 -0.00000000000E+00 -0.70489741482E+02  0.70489741528E+02  0.25500000000E-02 0. -1.
    5000001    1    1    2    0    0 -0.31182375758E+02 -0.77340776886E+02  0.98393344263E+02  0.18100880233E+03  0.12700000000E+03 0.  0.
   -5000001    1    1    2    0    0  0.31182375758E+02  0.77340776886E+02  0.16856768306E+03  0.22693170801E+03  0.12700000000E+03 0.  0.
<mgrwt>
<rscale>  0 0.30845951E+03</rscale>
<asrwt>0</asrwt>
<pdfrwt beam="1">  1        2 0.48207253E-01 0.30845951E+03</pdfrwt>
<pdfrwt beam="2">  1       -2 0.10069963E-01 0.30845951E+03</pdfrwt>
<totfact> 0.68319876E+03</totfact>
</mgrwt>
</event>
<event>
 4    1  0.1399921E-004  0.3944778E+03  0.7818608E-02  0.1045709E+00
          2   -1    0    0  501    0  0.00000000000E+00  0.00000000000E+00  0.82087699965E+03  0.82087699965E+03  0.25500000000E-02 0.  1.
         -2   -1    0    0    0  501 -0.00000000000E+00 -0.00000000000E+00 -0.47392229985E+02  0.47392230054E+02  0.25500000000E-02 0. -1.
    5000001    1    1    2    0    0 -0.10530621171E+02  0.13508994456E+03  0.24050844402E+03  0.30386427685E+03  0.12700000000E+03 0.  0.
   -5000001    1    1    2    0    0  0.10530621171E+02 -0.13508994456E+03  0.53297632565E+03  0.56440495285E+03  0.12700000000E+03 0.  0.
<mgrwt>
<rscale>  0 0.39447784E+03</rscale>
<asrwt>0</asrwt>
<pdfrwt beam="1">  1        2 0.11726813E+00 0.39447784E+03</pdfrwt>
<pdfrwt beam="2">  1       -2 0.67703191E-02 0.39447784E+03</pdfrwt>
<totfact> 0.46615583E+03</totfact>
</mgrwt>
</event>
<event>
 4    1  0.1399921E-004  0.4725719E+03  0.7818608E-02  0.1021197E+00
          2   -1    0    0  501    0  0.00000000000E+00  0.00000000000E+00  0.22081244313E+04  0.22081244313E+04  0.25500000000E-02 0.  1.
         -2   -1    0    0    0  501 -0.00000000000E+00 -0.00000000000E+00 -0.25284373465E+02  0.25284373594E+02  0.25500000000E-02 0. -1.
    5000001    1    1    2    0    0 -0.18461321090E+03  0.23849192821E+02  0.14273111744E+04  0.14449903149E+04  0.12700000000E+03 0.  0.
   -5000001    1    1    2    0    0  0.18461321090E+03 -0.23849192821E+02  0.75552888347E+03  0.78841849001E+03  0.12700000000E+03 0.  0.
<mgrwt>
<rscale>  0 0.47257187E+03</rscale>
<asrwt>0</asrwt>
<pdfrwt beam="1">  1        2 0.31544640E+00 0.47257187E+03</pdfrwt>
<pdfrwt beam="2">  1       -2 0.36120527E-02 0.47257187E+03</pdfrwt>
<totfact> 0.22160459E+03</totfact>
</mgrwt>
</event>
<event>
 4    1  0.1399921E-004  0.3734106E+03  0.7818608E-02  0.1053396E+00
         -2   -1    0    0    0  501 -0.00000000000E+00  0.00000000000E+00  0.66078901858E+03  0.66078901859E+03  0.25500000000E-02 0. -1.
          2   -1    0    0  501    0  0.00000000000E+00 -0.00000000000E+00 -0.52753396213E+02  0.52753396275E+02  0.25500000000E-02 0.  1.
    5000001    1    1    2    0    0 -0.85076348049E+02 -0.60932432012E+02  0.13547960176E+03  0.21315362714E+03  0.12700000000E+03 0.  0.
   -5000001    1    1    2    0    0  0.85076348049E+02  0.60932432012E+02  0.47255602061E+03  0.50038878772E+03  0.12700000000E+03 0.  0.
<mgrwt>
<rscale>  0 0.37341058E+03</rscale>
<asrwt>0</asrwt>
<pdfrwt beam="1">  1        2 0.75361997E-02 0.37341058E+03</pdfrwt>
<pdfrwt beam="2">  1       -2 0.94398428E-01 0.37341058E+03</pdfrwt>
<totfact> 0.90634173E+02</totfact>
</mgrwt>
</event>
<event>
 4    1  0.1399921E-004  0.4413684E+03  0.7818608E-02  0.1030328E+00
         -2   -1    0    0    0  501 -0.00000000000E+00  0.00000000000E+00  0.36502950142E+02  0.36502950231E+02  0.25500000000E-02 0. -1.
          2   -1    0    0  501    0  0.00000000000E+00 -0.00000000000E+00 -0.13341801656E+04  0.13341801656E+04  0.25500000000E-02 0.  1.
    5000001    1    1    2    0    0  0.70356545031E+02  0.31882870604E+02 -0.14228520134E+03  0.20576841203E+03  0.12700000000E+03 0.  0.
   -5000001    1    1    2    0    0 -0.70356545031E+02 -0.31882870604E+02 -0.11553920141E+04  0.11649147038E+04  0.12700000000E+03 0.  0.
<mgrwt>
<rscale>  0 0.44136838E+03</rscale>
<asrwt>0</asrwt>
<pdfrwt beam="1">  1        2 0.19059714E+00 0.44136838E+03</pdfrwt>
<pdfrwt beam="2">  1       -2 0.52147080E-02 0.44136838E+03</pdfrwt>
<totfact> 0.34972737E+03</totfact>
</mgrwt>
</event>
<event>
 4    1  0.1399921E-004  0.3431935E+03  0.7818608E-02  0.1065444E+00
          2   -1    0    0  501    0  0.00000000000E+00  0.00000000000E+00  0.50693972912E+02  0.50693972976E+02  0.25500000000E-02 0.  1.
         -2   -1    0    0    0  501 -0.00000000000E+00 -0.00000000000E+00 -0.58084716353E+03  0.58084716353E+03  0.25500000000E-02 0. -1.
    5000001    1    1    2    0    0 -0.10746445946E+03  0.42004295732E+02 -0.26850917260E+03  0.31865207778E+03  0.12700000000E+03 0.  0.
   -5000001    1    1    2    0    0  0.10746445946E+03 -0.42004295732E+02 -0.26164401802E+03  0.31288905873E+03  0.12700000000E+03 0.  0.
<mgrwt>
<rscale>  0 0.34319353E+03</rscale>
<asrwt>0</asrwt>
<pdfrwt beam="1">  1        2 0.72419965E-02 0.34319353E+03</pdfrwt>
<pdfrwt beam="2">  1       -2 0.82978162E-01 0.34319353E+03</pdfrwt>
<totfact> 0.12766143E+03</totfact>
</mgrwt>
</event>
<event>
 4    1  0.1399921E-004  0.3780550E+03  0.7818608E-02  0.1051655E+00
          2   -1    0    0  501    0  0.00000000000E+00  0.00000000000E+00  0.27389701113E+02  0.27389701231E+02  0.25500000000E-02 0.  1.
         -2   -1    0    0    0  501 -0.00000000000E+00 -0.00000000000E+00 -0.13045559995E+04  0.13045559995E+04  0.25500000000E-02 0. -1.
    5000001    1    1    2    0    0  0.84860642480E+02  0.99508212082E+02 -0.81471212547E+03  0.83485810789E+03  0.12700000000E+03 0.  0.
   -5000001    1    1    2    0    0 -0.84860642480E+02 -0.99508212082E+02 -0.46245417289E+03  0.49708759283E+03  0.12700000000E+03 0.  0.
<mgrwt>
<rscale>  0 0.37805502E+03</rscale>
<asrwt>0</asrwt>
<pdfrwt beam="1">  1        2 0.39128153E-02 0.37805502E+03</pdfrwt>
<pdfrwt beam="2">  1       -2 0.18636510E+00 0.37805502E+03</pdfrwt>
<totfact> 0.38673494E+02</totfact>
</mgrwt>
</event>
<event>
 4    1  0.1399921E-004  0.5902838E+03  0.7818608E-02  0.9925772E-01
         -2   -1    0    0    0  501 -0.00000000000E+00  0.00000000000E+00  0.80091182557E+02  0.80091182598E+02  0.25500000000E-02 0. -1.
          2   -1    0    0  501    0  0.00000000000E+00 -0.00000000000E+00 -0.10876196048E+04  0.10876196048E+04  0.25500000000E-02 0.  1.
    5000001    1    1    2    0    0  0.15898996005E+03 -0.17571449085E+03 -0.74463912004E+03  0.79168794912E+03  0.12700000000E+03 0.  0.
   -5000001    1    1    2    0    0 -0.15898996005E+03  0.17571449085E+03 -0.26288930220E+03  0.37602283827E+03  0.12700000000E+03 0.  0.
<mgrwt>
<rscale>  0 0.59028380E+03</rscale>
<asrwt>0</asrwt>
<pdfrwt beam="1">  1        2 0.15537422E+00 0.59028380E+03</pdfrwt>
<pdfrwt beam="2">  1       -2 0.11441598E-01 0.59028380E+03</pdfrwt>
<totfact> 0.13762756E+03</totfact>
</mgrwt>
</event>
<event>
 4    1  0.1399921E-004  0.3226741E+03  0.7818608E-02  0.1074425E+00
         -2   -1    0    0    0  501 -0.00000000000E+00  0.00000000000E+00  0.47334649473E+02  0.47334649542E+02  0.25500000000E-02 0. -1.
          2   -1    0    0  501    0  0.00000000000E+00 -0.00000000000E+00 -0.54990660376E+03  0.54990660376E+03  0.25500000000E-02 0.  1.
    5000001    1    1    2    0    0 -0.43242095621E+02 -0.87562089414E+02 -0.28658156284E+03  0.32832147431E+03  0.12700000000E+03 0.  0.
   -5000001    1    1    2    0    0  0.43242095621E+02  0.87562089414E+02 -0.21599039145E+03  0.26891977899E+03  0.12700000000E+03 0.  0.
<mgrwt>
<rscale>  0 0.32267405E+03</rscale>
<asrwt>0</asrwt>
<pdfrwt beam="1">  1        2 0.78558083E-01 0.32267405E+03</pdfrwt>
<pdfrwt beam="2">  1       -2 0.67620931E-02 0.32267405E+03</pdfrwt>
<totfact> 0.74885315E+03</totfact>
</mgrwt>
</event>
<event>
 4    1  0.1399921E-004  0.3789155E+03  0.7818608E-02  0.1051335E+00
         -2   -1    0    0    0  501 -0.00000000000E+00  0.00000000000E+00  0.33737260847E+02  0.33737260944E+02  0.25500000000E-02 0. -1.
          2   -1    0    0  501    0  0.00000000000E+00 -0.00000000000E+00 -0.10639344146E+04  0.10639344146E+04  0.25500000000E-02 0.  1.
    5000001    1    1    2    0    0  0.48574774500E+02  0.11832077446E+03 -0.68416106327E+03  0.70750595395E+03  0.12700000000E+03 0.  0.
   -5000001    1    1    2    0    0 -0.48574774500E+02 -0.11832077446E+03 -0.34603609045E+03  0.39016572156E+03  0.12700000000E+03 0.  0.
<mgrwt>
<rscale>  0 0.37891547E+03</rscale>
<asrwt>0</asrwt>
<pdfrwt beam="1">  1        2 0.15199061E+00 0.37891547E+03</pdfrwt>
<pdfrwt beam="2">  1       -2 0.48196094E-02 0.37891547E+03</pdfrwt>
<totfact> 0.55643088E+03</totfact>
</mgrwt>
</event>
<event>
 4    1  0.1399921E-004  0.3767829E+03  0.7818608E-02  0.1052129E+00
          2   -1    0    0  501    0  0.00000000000E+00  0.00000000000E+00  0.32798556161E+04  0.32798556161E+04  0.25500000000E-02 0.  1.
         -2   -1    0    0    0  501 -0.00000000000E+00 -0.00000000000E+00 -0.10821006906E+02  0.10821007207E+02  0.25500000000E-02 0. -1.
    5000001    1    1    2    0    0  0.11569855060E+03  0.76339527618E+02  0.15281023512E+04  0.15396232246E+04  0.12700000000E+03 0.  0.
   -5000001    1    1    2    0    0 -0.11569855060E+03 -0.76339527618E+02  0.17409322581E+04  0.17510533987E+04  0.12700000000E+03 0.  0.
<mgrwt>
<rscale>  0 0.37678291E+03</rscale>
<asrwt>0</asrwt>
<pdfrwt beam="1">  1        2 0.46855112E+00 0.37678291E+03</pdfrwt>
<pdfrwt beam="2">  1       -2 0.15458571E-02 0.37678291E+03</pdfrwt>
<totfact> 0.21848891E+03</totfact>
</mgrwt>
</event>
<event>
 4    1  0.1399921E-004  0.8544434E+03  0.7818608E-02  0.9484393E-01
         -2   -1    0    0    0  501 -0.00000000000E+00  0.00000000000E+00  0.10985420273E+03  0.10985420276E+03  0.25500000000E-02 0. -1.
          2   -1    0    0  501    0  0.00000000000E+00 -0.00000000000E+00 -0.16614600548E+04  0.16614600548E+04  0.25500000000E-02 0.  1.
    5000001    1    1    2    0    0  0.29602711092E+03  0.17668601960E+03 -0.32380229373E+03  0.48972127312E+03  0.12700000000E+03 0.  0.
   -5000001    1    1    2    0    0 -0.29602711092E+03 -0.17668601960E+03 -0.12278035583E+04  0.12815929844E+04  0.12700000000E+03 0.  0.
<mgrwt>
<rscale>  0 0.85444337E+03</rscale>
<asrwt>0</asrwt>
<pdfrwt beam="1">  1        2 0.23735142E+00 0.85444337E+03</pdfrwt>
<pdfrwt beam="2">  1       -2 0.15693459E-01 0.85444337E+03</pdfrwt>
<totfact> 0.39249302E+02</totfact>
</mgrwt>
</event>
<event>
 4    1  0.1399921E-004  0.3456103E+03  0.7818608E-02  0.1064431E+00
         -2   -1    0    0    0  501 -0.00000000000E+00  0.00000000000E+00  0.18745620710E+03  0.18745620712E+03  0.25500000000E-02 0. -1.
          2   -1    0    0  501    0  0.00000000000E+00 -0.00000000000E+00 -0.15929917356E+03  0.15929917359E+03  0.25500000000E-02 0.  1.
    5000001    1    1    2    0    0  0.11089957494E+03 -0.37691109536E+02  0.17735234707E+02  0.17367462109E+03  0.12700000000E+03 0.  0.
   -5000001    1    1    2    0    0 -0.11089957494E+03  0.37691109536E+02  0.10421798830E+02  0.17308075962E+03  0.12700000000E+03 0.  0.
<mgrwt>
<rscale>  0 0.34561029E+03</rscale>
<asrwt>0</asrwt>
<pdfrwt beam="1">  1        2 0.22757025E-01 0.34561029E+03</pdfrwt>
<pdfrwt beam="2">  1       -2 0.26779458E-01 0.34561029E+03</pdfrwt>
<totfact> 0.30206013E+03</totfact>
</mgrwt>
</event>
<event>
 4    1  0.1399921E-004  0.3929661E+03  0.7818608E-02  0.1046243E+00
          2   -1    0    0  501    0  0.00000000000E+00  0.00000000000E+00  0.80258532181E+03  0.80258532181E+03  0.25500000000E-02 0.  1.
         -2   -1    0    0    0  501 -0.00000000000E+00 -0.00000000000E+00 -0.48101532168E+02  0.48101532235E+02  0.25500000000E-02 0. -1.
    5000001    1    1    2    0    0  0.63430100713E+02 -0.12161710549E+03  0.24623244224E+03  0.30914966219E+03  0.12700000000E+03 0.  0.
   -5000001    1    1    2    0    0 -0.63430100713E+02  0.12161710549E+03  0.50825134740E+03  0.54153719185E+03  0.12700000000E+03 0.  0.
<mgrwt>
<rscale>  0 0.39296607E+03</rscale>
<asrwt>0</asrwt>
<pdfrwt beam="1">  1        2 0.11465505E+00 0.39296607E+03</pdfrwt>
<pdfrwt beam="2">  1       -2 0.68716475E-02 0.39296607E+03</pdfrwt>
<totfact> 0.46859347E+03</totfact>
</mgrwt>
</event>
<event>
 4    1  0.1399921E-004  0.4265165E+03  0.7818608E-02  0.1034966E+00
         -2   -1    0    0    0  501 -0.00000000000E+00  0.00000000000E+00  0.13320830684E+03  0.13320830686E+03  0.25500000000E-02 0. -1.
          2   -1    0    0  501    0  0.00000000000E+00 -0.00000000000E+00 -0.34141322512E+03  0.34141322513E+03  0.25500000000E-02 0.  1.
    5000001    1    1    2    0    0  0.17052279671E+02  0.16790200146E+03 -0.13689124539E+03  0.25169440876E+03  0.12700000000E+03 0.  0.
   -5000001    1    1    2    0    0 -0.17052279671E+02 -0.16790200146E+03 -0.71313672897E+02  0.22292712324E+03  0.12700000000E+03 0.  0.
<mgrwt>
<rscale>  0 0.42651648E+03</rscale>
<asrwt>0</asrwt>
<pdfrwt beam="1">  1        2 0.48773318E-01 0.42651648E+03</pdfrwt>
<pdfrwt beam="2">  1       -2 0.19029758E-01 0.42651648E+03</pdfrwt>
<totfact> 0.23759384E+03</totfact>
</mgrwt>
</event>
<event>
 4    1  0.1399921E-004  0.3114751E+03  0.7818608E-02  0.1079641E+00
          2   -1    0    0  501    0  0.00000000000E+00  0.00000000000E+00  0.26675582719E+03  0.26675582721E+03  0.25500000000E-02 0.  1.
         -2   -1    0    0    0  501 -0.00000000000E+00 -0.00000000000E+00 -0.90922789306E+02  0.90922789341E+02  0.25500000000E-02 0. -1.
    5000001    1    1    2    0    0 -0.73504415934E+02 -0.51441398072E+02  0.97931925914E+02  0.18376283278E+03  0.12700000000E+03 0.  0.
   -5000001    1    1    2    0    0  0.73504415934E+02  0.51441398072E+02  0.77901111975E+02  0.17391578377E+03  0.12700000000E+03 0.  0.
<mgrwt>
<rscale>  0 0.31147510E+03</rscale>
<asrwt>0</asrwt>
<pdfrwt beam="1">  1        2 0.38107976E-01 0.31147510E+03</pdfrwt>
<pdfrwt beam="2">  1       -2 0.12988970E-01 0.31147510E+03</pdfrwt>
<totfact> 0.58447698E+03</totfact>
</mgrwt>
</event>
<event>
 4    1  0.1399921E-004  0.3076024E+03  0.7818608E-02  0.1081501E+00
          2   -1    0    0  501    0  0.00000000000E+00  0.00000000000E+00  0.60551926546E+02  0.60551926599E+02  0.25500000000E-02 0. -1.
         -2   -1    0    0    0  501 -0.00000000000E+00 -0.00000000000E+00 -0.39065321760E+03  0.39065321761E+03  0.25500000000E-02 0.  1.
    5000001    1    1    2    0    0 -0.20932188609E+02  0.62705957357E+02 -0.82650853547E+02  0.16531895596E+03  0.12700000000E+03 0.  0.
   -5000001    1    1    2    0    0  0.20932188609E+02 -0.62705957357E+02 -0.24745043751E+03  0.28588618825E+03  0.12700000000E+03 0.  0.
<mgrwt>
<rscale>  0 0.30760237E+03</rscale>
<asrwt>0</asrwt>
<pdfrwt beam="1">  1        2 0.86502755E-02 0.30760237E+03</pdfrwt>
<pdfrwt beam="2">  1       -2 0.55807601E-01 0.30760237E+03</pdfrwt>
<totfact> 0.23682102E+03</totfact>
</mgrwt>
</event>
<event>
 4    1  0.1399921E-004  0.5737142E+03  0.7818608E-02  0.9961493E-01
         -2   -1    0    0    0  501 -0.00000000000E+00  0.00000000000E+00  0.94873164796E+02  0.94873164830E+02  0.25500000000E-02 0. -1.
          2   -1    0    0  501    0  0.00000000000E+00 -0.00000000000E+00 -0.86733684207E+03  0.86733684207E+03  0.25500000000E-02 0.  1.
    5000001    1    1    2    0    0 -0.18519047690E+03  0.13154118889E+03 -0.58860174586E+03  0.64356787702E+03  0.12700000000E+03 0.  0.
   -5000001    1    1    2    0    0  0.18519047690E+03 -0.13154118889E+03 -0.18386193141E+03  0.31864212988E+03  0.12700000000E+03 0.  0.
<mgrwt>
<rscale>  0 0.57371418E+03</rscale>
<asrwt>0</asrwt>
<pdfrwt beam="1">  1        2 0.12390526E+00 0.57371418E+03</pdfrwt>
<pdfrwt beam="2">  1       -2 0.13553310E-01 0.57371418E+03</pdfrwt>
<totfact> 0.14239192E+03</totfact>
</mgrwt>
</event>
<event>
 4    1  0.1399921E-004  0.4663810E+03  0.7818608E-02  0.1022947E+00
         -2   -1    0    0    0  501 -0.00000000000E+00  0.00000000000E+00  0.37095387674E+02  0.37095387762E+02  0.25500000000E-02 0. -1.
          2   -1    0    0  501    0  0.00000000000E+00 -0.00000000000E+00 -0.14658916688E+04  0.14658916688E+04  0.25500000000E-02 0.  1.
    5000001    1    1    2    0    0 -0.13015178005E+03  0.62182192535E+02 -0.28877883811E+03  0.34688373882E+03  0.12700000000E+03 0.  0.
   -5000001    1    1    2    0    0  0.13015178005E+03 -0.62182192535E+02 -0.11400174430E+04  0.11561033178E+04  0.12700000000E+03 0.  0.
<mgrwt>
<rscale>  0 0.46638105E+03</rscale>
<asrwt>0</asrwt>
<pdfrwt beam="1">  1        2 0.20941306E+00 0.46638105E+03</pdfrwt>
<pdfrwt beam="2">  1       -2 0.52993420E-02 0.46638105E+03</pdfrwt>
<totfact> 0.29083831E+03</totfact>
</mgrwt>
</event>
<event>
 4    1  0.1399921E-004  0.8073944E+03  0.7818608E-02  0.9549375E-01
          2   -1    0    0  501    0  0.00000000000E+00  0.00000000000E+00  0.25120599594E+04  0.25120599594E+04  0.25500000000E-02 0.  1.
         -2   -1    0    0    0  501 -0.00000000000E+00 -0.00000000000E+00 -0.64875610970E+02  0.64875611020E+02  0.25500000000E-02 0. -1.
    5000001    1    1    2    0    0  0.32166050508E+03 -0.16963248953E+03  0.83791807256E+03  0.92221275113E+03  0.12700000000E+03 0.  0.
   -5000001    1    1    2    0    0 -0.32166050508E+03  0.16963248953E+03  0.16092662759E+04  0.16547228193E+04  0.12700000000E+03 0.  0.
<mgrwt>
<rscale>  0 0.80739439E+03</rscale>
<asrwt>0</asrwt>
<pdfrwt beam="1">  1        2 0.35886571E+00 0.80739439E+03</pdfrwt>
<pdfrwt beam="2">  1       -2 0.92679444E-02 0.80739439E+03</pdfrwt>
<totfact> 0.34677943E+02</totfact>
</mgrwt>
</event>
<event>
 4    1  0.1399921E-004  0.4273228E+03  0.7818608E-02  0.1034709E+00
         -2   -1    0    0    0  501 -0.00000000000E+00  0.00000000000E+00  0.58416877533E+02  0.58416877589E+02  0.25500000000E-02 0. -1.
          2   -1    0    0  501    0  0.00000000000E+00 -0.00000000000E+00 -0.78147282310E+03  0.78147282311E+03  0.25500000000E-02 0.  1.
    5000001    1    1    2    0    0  0.10467806952E+03 -0.12657825089E+03 -0.26241979863E+03  0.33462322476E+03  0.12700000000E+03 0.  0.
   -5000001    1    1    2    0    0 -0.10467806952E+03  0.12657825089E+03 -0.46063614694E+03  0.50526647594E+03  0.12700000000E+03 0.  0.
<mgrwt>
<rscale>  0 0.42732284E+03</rscale>
<asrwt>0</asrwt>
<pdfrwt beam="1">  1        2 0.11163897E+00 0.42732284E+03</pdfrwt>
<pdfrwt beam="2">  1       -2 0.83452687E-02 0.42732284E+03</pdfrwt>
<totfact> 0.35732767E+03</totfact>
</mgrwt>
</event>
<event>
 4    1  0.1399921E-004  0.6233641E+03  0.7818608E-02  0.9858084E-01
         -2   -1    0    0    0  501 -0.00000000000E+00  0.00000000000E+00  0.21866266108E+03  0.21866266110E+03  0.25500000000E-02 0. -1.
          2   -1    0    0  501    0  0.00000000000E+00 -0.00000000000E+00 -0.44427202664E+03  0.44427202665E+03  0.25500000000E-02 0.  1.
    5000001    1    1    2    0    0 -0.27972987986E+03 -0.51692847241E+02 -0.12321089243E+03  0.33500877623E+03  0.12700000000E+03 0.  0.
   -5000001    1    1    2    0    0  0.27972987986E+03  0.51692847241E+02 -0.10239847313E+03  0.32792591151E+03  0.12700000000E+03 0.  0.
<mgrwt>
<rscale>  0 0.62336411E+03</rscale>
<asrwt>0</asrwt>
<pdfrwt beam="1">  1        2 0.63467432E-01 0.62336411E+03</pdfrwt>
<pdfrwt beam="2">  1       -2 0.31237523E-01 0.62336411E+03</pdfrwt>
<totfact> 0.73336603E+02</totfact>
</mgrwt>
</event>
<event>
 4    1  0.1399921E-004  0.4183624E+03  0.7818608E-02  0.1037601E+00
          2   -1    0    0  501    0  0.00000000000E+00  0.00000000000E+00  0.37999312408E+03  0.37999312408E+03  0.25500000000E-02 0.  1.
         -2   -1    0    0    0  501 -0.00000000000E+00 -0.00000000000E+00 -0.11515150498E+03  0.11515150501E+03  0.25500000000E-02 0. -1.
    5000001    1    1    2    0    0  0.13301952426E+03 -0.37499555525E+02  0.24171244952E+03  0.30602993114E+03  0.12700000000E+03 0.  0.
   -5000001    1    1    2    0    0 -0.13301952426E+03  0.37499555525E+02  0.23129169569E+02  0.18911469796E+03  0.12700000000E+03 0.  0.
<mgrwt>
<rscale>  0 0.41836243E+03</rscale>
<asrwt>0</asrwt>
<pdfrwt beam="1">  1        2 0.54284733E-01 0.41836243E+03</pdfrwt>
<pdfrwt beam="2">  1       -2 0.16450215E-01 0.41836243E+03</pdfrwt>
<totfact> 0.27069422E+03</totfact>
</mgrwt>
</event>
<event>
 4    1  0.1399921E-004  0.1109168E+04  0.7818608E-02  0.9196302E-01
          2   -1    0    0  501    0  0.00000000000E+00  0.00000000000E+00  0.14229697192E+04  0.14229697192E+04  0.25500000000E-02 0.  1.
         -2   -1    0    0    0  501 -0.00000000000E+00 -0.00000000000E+00 -0.21614177239E+03  0.21614177240E+03  0.25500000000E-02 0. -1.
    5000001    1    1    2    0    0 -0.16246822119E+02 -0.34052360271E+03 -0.15165652410E+02  0.36411437797E+03  0.12700000000E+03 0.  0.
   -5000001    1    1    2    0    0  0.16246822119E+02  0.34052360271E+03  0.12219935992E+04  0.12749971136E+04  0.12700000000E+03 0.  0.
<mgrwt>
<rscale>  0 0.11091676E+04</rscale>
<asrwt>0</asrwt>
<pdfrwt beam="1">  1        2 0.20328140E+00 0.11091676E+04</pdfrwt>
<pdfrwt beam="2">  1       -2 0.30877395E-01 0.11091676E+04</pdfrwt>
<totfact> 0.15474090E+02</totfact>
</mgrwt>
</event>
<event>
 4    1  0.1399921E-004  0.3098372E+03  0.7818608E-02  0.1080424E+00
         -2   -1    0    0    0  501 -0.00000000000E+00  0.00000000000E+00  0.34281971581E+02  0.34281971676E+02  0.25500000000E-02 0. -1.
          2   -1    0    0  501    0  0.00000000000E+00 -0.00000000000E+00 -0.70006959445E+03  0.70006959445E+03  0.25500000000E-02 0.  1.
    5000001    1    1    2    0    0  0.61182016684E+02  0.45814784709E+02 -0.43964224024E+03  0.46395746903E+03  0.12700000000E+03 0.  0.
   -5000001    1    1    2    0    0 -0.61182016684E+02 -0.45814784709E+02 -0.22614538262E+03  0.27039409710E+03  0.12700000000E+03 0.  0.
<mgrwt>
<rscale>  0 0.30983716E+03</rscale>
<asrwt>0</asrwt>
<pdfrwt beam="1">  1        2 0.10000993E+00 0.30983716E+03</pdfrwt>
<pdfrwt beam="2">  1       -2 0.48974249E-02 0.30983716E+03</pdfrwt>
<totfact> 0.92830797E+03</totfact>
</mgrwt>
</event>
<event>
 4    1  0.1399921E-004  0.4586332E+03  0.7818608E-02  0.1025178E+00
         -2   -1    0    0    0  501 -0.00000000000E+00  0.00000000000E+00  0.59051373503E+02  0.59051373558E+02  0.25500000000E-02 0. -1.
          2   -1    0    0  501    0  0.00000000000E+00 -0.00000000000E+00 -0.89051445007E+03  0.89051445008E+03  0.25500000000E-02 0.  1.
    5000001    1    1    2    0    0  0.16043185212E+03 -0.97821417489E+02 -0.34552938267E+03  0.41331218611E+03  0.12700000000E+03 0.  0.
   -5000001    1    1    2    0    0 -0.16043185212E+03  0.97821417489E+02 -0.48593369390E+03  0.53625363753E+03  0.12700000000E+03 0.  0.
<mgrwt>
<rscale>  0 0.45863319E+03</rscale>
<asrwt>0</asrwt>
<pdfrwt beam="1">  1        2 0.12721634E+00 0.45863319E+03</pdfrwt>
<pdfrwt beam="2">  1       -2 0.84359110E-02 0.45863319E+03</pdfrwt>
<totfact> 0.29722200E+03</totfact>
</mgrwt>
</event>
<event>
 4    1  0.1399921E-004  0.3970536E+03  0.7818608E-02  0.1044805E+00
          2   -1    0    0  501    0  0.00000000000E+00  0.00000000000E+00  0.44857020698E+02  0.44857020770E+02  0.25500000000E-02 0.  1.
         -2   -1    0    0    0  501 -0.00000000000E+00 -0.00000000000E+00 -0.87863363796E+03  0.87863363796E+03  0.25500000000E-02 0. -1.
    5000001    1    1    2    0    0  0.14586412657E+03  0.20559278067E+02 -0.50948145364E+03  0.54534335876E+03  0.12700000000E+03 0.  0.
   -5000001    1    1    2    0    0 -0.14586412657E+03 -0.20559278067E+02 -0.32429516362E+03  0.37814729997E+03  0.12700000000E+03 0.  0.
<mgrwt>
<rscale>  0 0.39705358E+03</rscale>
<asrwt>0</asrwt>
<pdfrwt beam="1">  1        2 0.64081463E-02 0.39705358E+03</pdfrwt>
<pdfrwt beam="2">  1       -2 0.12551908E+00 0.39705358E+03</pdfrwt>
<totfact> 0.56720847E+02</totfact>
</mgrwt>
</event>
<event>
 4    1  0.1399921E-004  0.4145021E+03  0.7818608E-02  0.1038871E+00
          2   -1    0    0  501    0  0.00000000000E+00  0.00000000000E+00  0.26764855895E+04  0.26764855895E+04  0.25500000000E-02 0.  1.
         -2   -1    0    0    0  501 -0.00000000000E+00 -0.00000000000E+00 -0.16048279766E+02  0.16048279969E+02  0.25500000000E-02 0. -1.
    5000001    1    1    2    0    0  0.30118990085E+02 -0.16061665740E+03  0.14011171539E+04  0.14163202827E+04  0.12700000000E+03 0.  0.
   -5000001    1    1    2    0    0 -0.30118990085E+02  0.16061665740E+03  0.12593201558E+04  0.12762135868E+04  0.12700000000E+03 0.  0.
<mgrwt>
<rscale>  0 0.41450206E+03</rscale>
<asrwt>0</asrwt>
<pdfrwt beam="1">  1        2 0.38235465E+00 0.41450206E+03</pdfrwt>
<pdfrwt beam="2">  1       -2 0.22926140E-02 0.41450206E+03</pdfrwt>
<totfact> 0.25551485E+03</totfact>
</mgrwt>
</event>
<event>
 4    1  0.1399921E-004  0.5697567E+03  0.7818608E-02  0.9970217E-01
         -2   -1    0    0    0  501 -0.00000000000E+00  0.00000000000E+00  0.65620003308E+02  0.65620003358E+02  0.25500000000E-02 0. -1.
          2   -1    0    0  501    0  0.00000000000E+00 -0.00000000000E+00 -0.12367519522E+04  0.12367519522E+04  0.25500000000E-02 0.  1.
    5000001    1    1    2    0    0  0.21673206729E+03  0.12839073590E+03 -0.67612954813E+03  0.73262346121E+03  0.12700000000E+03 0.  0.
   -5000001    1    1    2    0    0 -0.21673206729E+03 -0.12839073590E+03 -0.49500240079E+03  0.56974849438E+03  0.12700000000E+03 0.  0.
<mgrwt>
<rscale>  0 0.56975668E+03</rscale>
<asrwt>0</asrwt>
<pdfrwt beam="1">  1        2 0.17667884E+00 0.56975668E+03</pdfrwt>
<pdfrwt beam="2">  1       -2 0.93742869E-02 0.56975668E+03</pdfrwt>
<totfact> 0.15661685E+03</totfact>
</mgrwt>
</event>
<event>
 4    1  0.1399921E-004  0.3207792E+03  0.7818608E-02  0.1075291E+00
         -2   -1    0    0    0  501 -0.00000000000E+00  0.00000000000E+00  0.19709425955E+02  0.19709426120E+02  0.25500000000E-02 0. -1.
          2   -1    0    0  501    0  0.00000000000E+00 -0.00000000000E+00 -0.13052044052E+04  0.13052044052E+04  0.25500000000E-02 0.  1.
    5000001    1    1    2    0    0  0.91697420254E+01  0.76240973317E+02 -0.39154320461E+03  0.41872646353E+03  0.12700000000E+03 0.  0.
   -5000001    1    1    2    0    0 -0.91697420254E+01 -0.76240973317E+02 -0.89395177467E+03  0.90618736784E+03  0.12700000000E+03 0.  0.
<mgrwt>
<rscale>  0 0.32077924E+03</rscale>
<asrwt>0</asrwt>
<pdfrwt beam="1">  1        2 0.18645772E+00 0.32077924E+03</pdfrwt>
<pdfrwt beam="2">  1       -2 0.28156331E-02 0.32077924E+03</pdfrwt>
<totfact> 0.91906709E+03</totfact>
</mgrwt>
</event>
<event>
 4    1  0.1399921E-004  0.5158896E+03  0.7818608E-02  0.1009713E+00
         -2   -1    0    0    0  501 -0.00000000000E+00  0.00000000000E+00  0.22445661145E+02  0.22445661289E+02  0.25500000000E-02 0. -1.
          2   -1    0    0  501    0  0.00000000000E+00 -0.00000000000E+00 -0.29642929988E+04  0.29642929988E+04  0.25500000000E-02 0.  1.
    5000001    1    1    2    0    0  0.18843199353E+03  0.79890290202E+02 -0.20052358163E+04  0.20196506513E+04  0.12700000000E+03 0.  0.
   -5000001    1    1    2    0    0 -0.18843199353E+03 -0.79890290202E+02 -0.93661152142E+03  0.96708800877E+03  0.12700000000E+03 0.  0.
<mgrwt>
<rscale>  0 0.51588959E+03</rscale>
<asrwt>0</asrwt>
<pdfrwt beam="1">  1        2 0.42347018E+00 0.51588959E+03</pdfrwt>
<pdfrwt beam="2">  1       -2 0.32065249E-02 0.51588959E+03</pdfrwt>
<totfact> 0.10788511E+03</totfact>
</mgrwt>
</event>
<event>
 4    1  0.1399921E-004  0.2742008E+03  0.7818608E-02  0.1098899E+00
         -2   -1    0    0    0  501 -0.00000000000E+00  0.00000000000E+00  0.44117773343E+02  0.44117773416E+02  0.25500000000E-02 0. -1.
          2   -1    0    0  501    0  0.00000000000E+00 -0.00000000000E+00 -0.42605330210E+03  0.42605330210E+03  0.25500000000E-02 0.  1.
    5000001    1    1    2    0    0 -0.18185946762E+02  0.48121816595E+02 -0.18309412707E+03  0.22868952153E+03  0.12700000000E+03 0.  0.
   -5000001    1    1    2    0    0  0.18185946762E+02 -0.48121816595E+02 -0.19884140169E+03  0.24148155399E+03  0.12700000000E+03 0.  0.
<mgrwt>
<rscale>  0 0.27420082E+03</rscale>
<asrwt>0</asrwt>
<pdfrwt beam="1">  1        2 0.60864755E-01 0.27420082E+03</pdfrwt>
<pdfrwt beam="2">  1       -2 0.63025393E-02 0.27420082E+03</pdfrwt>
<totfact> 0.11003676E+04</totfact>
</mgrwt>
</event>
<event>
 4    1  0.1399921E-004  0.4568254E+03  0.7818608E-02  0.1025706E+00
          2   -1    0    0  501    0  0.00000000000E+00  0.00000000000E+00  0.35601980217E+03  0.35601980218E+03  0.25500000000E-02 0.  1.
         -2   -1    0    0    0  501 -0.00000000000E+00 -0.00000000000E+00 -0.14654344715E+03  0.14654344718E+03  0.25500000000E-02 0. -1.
    5000001    1    1    2    0    0 -0.13882045405E+03 -0.46354379937E+02  0.23777334014E+03  0.30673279623E+03  0.12700000000E+03 0.  0.
   -5000001    1    1    2    0    0  0.13882045405E+03  0.46354379937E+02 -0.28296985131E+02  0.19583045312E+03  0.12700000000E+03 0.  0.
<mgrwt>
<rscale>  0 0.45682543E+03</rscale>
<asrwt>0</asrwt>
<pdfrwt beam="1">  1        2 0.50859971E-01 0.45682543E+03</pdfrwt>
<pdfrwt beam="2">  1       -2 0.20934779E-01 0.45682543E+03</pdfrwt>
<totfact> 0.19256375E+03</totfact>
</mgrwt>
</event>
<event>
 4    1  0.1399921E-004  0.3611261E+03  0.7818608E-02  0.1058139E+00
         -2   -1    0    0    0  501 -0.00000000000E+00  0.00000000000E+00  0.63754187503E+02  0.63754187554E+02  0.25500000000E-02 0. -1.
          2   -1    0    0  501    0  0.00000000000E+00 -0.00000000000E+00 -0.51138617567E+03  0.51138617568E+03  0.25500000000E-02 0.  1.
    5000001    1    1    2    0    0  0.83148632213E+01 -0.12093088540E+03 -0.29102035781E+03  0.33987536635E+03  0.12700000000E+03 0.  0.
   -5000001    1    1    2    0    0 -0.83148632213E+01  0.12093088540E+03 -0.15661163036E+03  0.23526499688E+03  0.12700000000E+03 0.  0.
<mgrwt>
<rscale>  0 0.36112607E+03</rscale>
<asrwt>0</asrwt>
<pdfrwt beam="1">  1        2 0.73055166E-01 0.36112607E+03</pdfrwt>
<pdfrwt beam="2">  1       -2 0.91077414E-02 0.36112607E+03</pdfrwt>
<totfact> 0.51079966E+03</totfact>
</mgrwt>
</event>
<event>
 4    1  0.1399921E-004  0.5660140E+03  0.7818608E-02  0.9978538E-01
         -2   -1    0    0    0  501 -0.00000000000E+00  0.00000000000E+00  0.41998850677E+03  0.41998850677E+03  0.25500000000E-02 0. -1.
          2   -1    0    0  501    0  0.00000000000E+00 -0.00000000000E+00 -0.19070275049E+03  0.19070275050E+03  0.25500000000E-02 0.  1.
    5000001    1    1    2    0    0  0.19936768481E+03  0.10232755209E+03  0.24113858095E+03  0.35283879731E+03  0.12700000000E+03 0.  0.
   -5000001    1    1    2    0    0 -0.19936768481E+03 -0.10232755209E+03 -0.11852824669E+02  0.25785245997E+03  0.12700000000E+03 0.  0.
<mgrwt>
<rscale>  0 0.56601400E+03</rscale>
<asrwt>0</asrwt>
<pdfrwt beam="1">  1        2 0.27243250E-01 0.56601400E+03</pdfrwt>
<pdfrwt beam="2">  1       -2 0.59998358E-01 0.56601400E+03</pdfrwt>
<totfact> 0.51851040E+02</totfact>
</mgrwt>
</event>
<event>
 4    1  0.1399921E-004  0.3195189E+03  0.7818608E-02  0.1075871E+00
          2   -1    0    0  501    0  0.00000000000E+00  0.00000000000E+00  0.36548484664E+03  0.36548484665E+03  0.25500000000E-02 0.  1.
         -2   -1    0    0    0  501 -0.00000000000E+00 -0.00000000000E+00 -0.69833467729E+02  0.69833467776E+02  0.25500000000E-02 0. -1.
    5000001    1    1    2    0    0 -0.72270456438E+02 -0.44676040366E+02  0.21136620645E+03  0.26081342122E+03  0.12700000000E+03 0.  0.
   -5000001    1    1    2    0    0  0.72270456438E+02  0.44676040366E+02  0.84285172453E+02  0.17450489320E+03  0.12700000000E+03 0.  0.
<mgrwt>
<rscale>  0 0.31951885E+03</rscale>
<asrwt>0</asrwt>
<pdfrwt beam="1">  1        2 0.52212121E-01 0.31951885E+03</pdfrwt>
<pdfrwt beam="2">  1       -2 0.99762096E-02 0.31951885E+03</pdfrwt>
<totfact> 0.63684999E+03</totfact>
</mgrwt>
</event>
<event>
 4    1  0.1399921E-004  0.2705877E+03  0.7818608E-02  0.1100944E+00
         -2   -1    0    0    0  501 -0.00000000000E+00  0.00000000000E+00  0.37737810270E+02  0.37737810357E+02  0.25500000000E-02 0. -1.
          2   -1    0    0  501    0  0.00000000000E+00 -0.00000000000E+00 -0.48504224850E+03  0.48504224851E+03  0.25500000000E-02 0.  1.
    5000001    1    1    2    0    0  0.21127677777E+02  0.24211883385E+02 -0.28896576754E+03  0.31727402805E+03  0.12700000000E+03 0.  0.
   -5000001    1    1    2    0    0 -0.21127677777E+02 -0.24211883385E+02 -0.15833867070E+03  0.20550603082E+03  0.12700000000E+03 0.  0.
<mgrwt>
<rscale>  0 0.27058775E+03</rscale>
<asrwt>0</asrwt>
<pdfrwt beam="1">  1        2 0.69291746E-01 0.27058775E+03</pdfrwt>
<pdfrwt beam="2">  1       -2 0.53911160E-02 0.27058775E+03</pdfrwt>
<totfact> 0.12123473E+04</totfact>
</mgrwt>
</event>
<event>
 4    1  0.1399921E-004  0.5590707E+03  0.7818608E-02  0.9994160E-01
          2   -1    0    0  501    0  0.00000000000E+00  0.00000000000E+00  0.68219150069E+03  0.68219150070E+03  0.25500000000E-02 0.  1.
         -2   -1    0    0    0  501 -0.00000000000E+00 -0.00000000000E+00 -0.11454264501E+03  0.11454264503E+03  0.25500000000E-02 0. -1.
    5000001    1    1    2    0    0 -0.91512529450E+02 -0.15015870479E+03  0.53509922557E+03  0.57739272672E+03  0.12700000000E+03 0.  0.
   -5000001    1    1    2    0    0  0.91512529450E+02  0.15015870479E+03  0.32549630120E+02  0.21934141901E+03  0.12700000000E+03 0.  0.
<mgrwt>
<rscale>  0 0.55907073E+03</rscale>
<asrwt>0</asrwt>
<pdfrwt beam="1">  1        2 0.97455926E-01 0.55907073E+03</pdfrwt>
<pdfrwt beam="2">  1       -2 0.16363235E-01 0.55907073E+03</pdfrwt>
<totfact> 0.14042096E+03</totfact>
</mgrwt>
</event>
<event>
 4    1  0.1399921E-004  0.6488160E+03  0.7818608E-02  0.9809003E-01
          2   -1    0    0  501    0  0.00000000000E+00  0.00000000000E+00  0.35045406965E+04  0.35045406965E+04  0.25500000000E-02 0.  1.
         -2   -1    0    0    0  501 -0.00000000000E+00 -0.00000000000E+00 -0.30029771097E+02  0.30029771205E+02  0.25500000000E-02 0. -1.
    5000001    1    1    2    0    0  0.12296889804E+03 -0.25830614619E+03  0.12728185519E+04  0.13107400510E+04  0.12700000000E+03 0.  0.
   -5000001    1    1    2    0    0 -0.12296889804E+03  0.25830614619E+03  0.22016923735E+04  0.22238304167E+04  0.12700000000E+03 0.  0.
<mgrwt>
<rscale>  0 0.64881601E+03</rscale>
<asrwt>0</asrwt>
<pdfrwt beam="1">  1        2 0.50064840E+00 0.64881601E+03</pdfrwt>
<pdfrwt beam="2">  1       -2 0.42899696E-02 0.64881601E+03</pdfrwt>
<totfact> 0.33728997E+02</totfact>
</mgrwt>
</event>
<event>
 4    1  0.1399921E-004  0.4605127E+03  0.7818608E-02  0.1024633E+00
         -2   -1    0    0    0  501 -0.00000000000E+00  0.00000000000E+00  0.25100942748E+03  0.25100942749E+03  0.25500000000E-02 0. -1.
          2   -1    0    0  501    0  0.00000000000E+00 -0.00000000000E+00 -0.21121910716E+03  0.21121910717E+03  0.25500000000E-02 0.  1.
    5000001    1    1    2    0    0  0.11789151146E+03 -0.14799360600E+03  0.53010073663E+02  0.23396492002E+03  0.12700000000E+03 0.  0.
   -5000001    1    1    2    0    0 -0.11789151146E+03  0.14799360600E+03 -0.13219753343E+02  0.22826361464E+03  0.12700000000E+03 0.  0.
<mgrwt>
<rscale>  0 0.46051270E+03</rscale>
<asrwt>0</asrwt>
<pdfrwt beam="1">  1        2 0.30174158E-01 0.46051270E+03</pdfrwt>
<pdfrwt beam="2">  1       -2 0.35858490E-01 0.46051270E+03</pdfrwt>
<totfact> 0.12895563E+03</totfact>
</mgrwt>
</event>
<event>
 4    1  0.1399921E-004  0.7453839E+03  0.7818608E-02  0.9642620E-01
         -2   -1    0    0    0  501 -0.00000000000E+00  0.00000000000E+00  0.97230210262E+03  0.97230210262E+03  0.25500000000E-02 0. -1.
          2   -1    0    0  501    0  0.00000000000E+00 -0.00000000000E+00 -0.14285612155E+03  0.14285612157E+03  0.25500000000E-02 0.  1.
    5000001    1    1    2    0    0  0.26389301859E+03 -0.64223248822E+02  0.83529511809E+02  0.31123998826E+03  0.12700000000E+03 0.  0.
   -5000001    1    1    2    0    0 -0.26389301859E+03  0.64223248822E+02  0.74591646926E+03  0.80391823593E+03  0.12700000000E+03 0.  0.
<mgrwt>
<rscale>  0 0.74538395E+03</rscale>
<asrwt>0</asrwt>
<pdfrwt beam="1">  1        2 0.20408018E-01 0.74538395E+03</pdfrwt>
<pdfrwt beam="2">  1       -2 0.13890030E+00 0.74538395E+03</pdfrwt>
<totfact> 0.10278857E+02</totfact>
</mgrwt>
</event>
<event>
 4    1  0.1399921E-004  0.3392070E+03  0.7818608E-02  0.1067134E+00
          2   -1    0    0  501    0  0.00000000000E+00  0.00000000000E+00  0.95883806417E+03  0.95883806418E+03  0.25500000000E-02 0.  1.
         -2   -1    0    0    0  501 -0.00000000000E+00 -0.00000000000E+00 -0.30000221720E+02  0.30000221828E+02  0.25500000000E-02 0. -1.
    5000001    1    1    2    0    0 -0.90808803891E+02  0.59054009787E+02  0.37683151457E+03  0.41214633967E+03  0.12700000000E+03 0.  0.
   -5000001    1    1    2    0    0  0.90808803891E+02 -0.59054009787E+02  0.55200632789E+03  0.57669194633E+03  0.12700000000E+03 0.  0.
<mgrwt>
<rscale>  0 0.33920704E+03</rscale>
<asrwt>0</asrwt>
<pdfrwt beam="1">  1        2 0.13697687E+00 0.33920704E+03</pdfrwt>
<pdfrwt beam="2">  1       -2 0.42857459E-02 0.33920704E+03</pdfrwt>
<totfact> 0.76669674E+03</totfact>
</mgrwt>
</event>
<event>
 4    1  0.1399921E-004  0.3929073E+03  0.7818608E-02  0.1046264E+00
         -2   -1    0    0    0  501 -0.00000000000E+00  0.00000000000E+00  0.34046669057E+02  0.34046669153E+02  0.25500000000E-02 0. -1.
          2   -1    0    0  501    0  0.00000000000E+00 -0.00000000000E+00 -0.11335628789E+04  0.11335628790E+04  0.25500000000E-02 0.  1.
    5000001    1    1    2    0    0  0.12262862382E+03 -0.68927782175E+02 -0.70349162261E+03  0.72857277030E+03  0.12700000000E+03 0.  0.
   -5000001    1    1    2    0    0 -0.12262862382E+03  0.68927782175E+02 -0.39602458728E+03  0.43903677780E+03  0.12700000000E+03 0.  0.
<mgrwt>
<rscale>  0 0.39290732E+03</rscale>
<asrwt>0</asrwt>
<pdfrwt beam="1">  1        2 0.16193753E+00 0.39290732E+03</pdfrwt>
<pdfrwt beam="2">  1       -2 0.48638106E-02 0.39290732E+03</pdfrwt>
<totfact> 0.50086262E+03</totfact>
</mgrwt>
</event>
<event>
 4    1  0.1399921E-004  0.3140714E+03  0.7818608E-02  0.1078411E+00
         -2   -1    0    0    0  501 -0.00000000000E+00  0.00000000000E+00  0.23982222511E+02  0.23982222646E+02  0.25500000000E-02 0.  1.
          2   -1    0    0  501    0  0.00000000000E+00 -0.00000000000E+00 -0.10282705103E+04  0.10282705103E+04  0.25500000000E-02 0. -1.
    5000001    1    1    2    0    0  0.30520157948E+01 -0.87560654280E+02 -0.60011167285E+03  0.61962827797E+03  0.12700000000E+03 0.  0.
   -5000001    1    1    2    0    0 -0.30520157948E+01  0.87560654280E+02 -0.40417661498E+03  0.43262445501E+03  0.12700000000E+03 0.  0.
<mgrwt>
<rscale>  0 0.31407141E+03</rscale>
<asrwt>0</asrwt>
<pdfrwt beam="1">  1        2 0.14689576E+00 0.31407141E+03</pdfrwt>
<pdfrwt beam="2">  1       -2 0.34260324E-02 0.31407141E+03</pdfrwt>
<totfact> 0.97508766E+03</totfact>
</mgrwt>
</event>
<event>
 4    1  0.1399921E-004  0.3107755E+03  0.7818608E-02  0.1079975E+00
         -2   -1    0    0    0  501 -0.00000000000E+00  0.00000000000E+00  0.11965055306E+02  0.11965055577E+02  0.25500000000E-02 0. -1.
          2   -1    0    0  501    0  0.00000000000E+00 -0.00000000000E+00 -0.20179888910E+04  0.20179888910E+04  0.25500000000E-02 0.  1.
    5000001    1    1    2    0    0  0.87128473959E+02  0.19965793608E+02 -0.96948534454E+03  0.98184562797E+03  0.12700000000E+03 0.  0.
   -5000001    1    1    2    0    0 -0.87128473959E+02 -0.19965793608E+02 -0.10365384911E+04  0.10481083186E+04  0.12700000000E+03 0.  0.
<mgrwt>
<rscale>  0 0.31077547E+03</rscale>
<asrwt>0</asrwt>
<pdfrwt beam="1">  1        2 0.28828391E+00 0.31077547E+03</pdfrwt>
<pdfrwt beam="2">  1       -2 0.17092949E-02 0.31077547E+03</pdfrwt>
<totfact> 0.84462125E+03</totfact>
</mgrwt>
</event>
<event>
 4    1  0.1399921E-004  0.1030682E+04  0.7818608E-02  0.9275519E-01
          2   -1    0    0  501    0  0.00000000000E+00  0.00000000000E+00  0.15102955418E+03  0.15102955420E+03  0.25500000000E-02 0.  1.
         -2   -1    0    0    0  501 -0.00000000000E+00 -0.00000000000E+00 -0.17584390131E+04  0.17584390131E+04  0.25500000000E-02 0. -1.
    5000001    1    1    2    0    0 -0.29793620769E+03  0.33697255192E+03 -0.12059029881E+04  0.12933087417E+04  0.12700000000E+03 0.  0.
   -5000001    1    1    2    0    0  0.29793620769E+03 -0.33697255192E+03 -0.40150647084E+03  0.61615982563E+03  0.12700000000E+03 0.  0.
<mgrwt>
<rscale>  0 0.10306818E+04</rscale>
<asrwt>0</asrwt>
<pdfrwt beam="1">  1        2 0.21575652E-01 0.10306818E+04</pdfrwt>
<pdfrwt beam="2">  1       -2 0.25120556E+00 0.10306818E+04</pdfrwt>
<totfact> 0.16509044E+01</totfact>
</mgrwt>
</event>
<event>
 4    1  0.1399921E-004  0.3106959E+03  0.7818608E-02  0.1080013E+00
         -2   -1    0    0    0  501 -0.00000000000E+00  0.00000000000E+00  0.59300818258E+02  0.59300818313E+02  0.25500000000E-02 0. -1.
          2   -1    0    0  501    0  0.00000000000E+00 -0.00000000000E+00 -0.40695869296E+03  0.40695869297E+03  0.25500000000E-02 0.  1.
    5000001    1    1    2    0    0  0.39043197763E+02  0.56778075271E+02 -0.25945879467E+03  0.29697809221E+03  0.12700000000E+03 0.  0.
   -5000001    1    1    2    0    0 -0.39043197763E+02 -0.56778075271E+02 -0.88199080032E+02  0.16928141907E+03  0.12700000000E+03 0.  0.
<mgrwt>
<rscale>  0 0.31069589E+03</rscale>
<asrwt>0</asrwt>
<pdfrwt beam="1">  1        2 0.58136955E-01 0.31069589E+03</pdfrwt>
<pdfrwt beam="2">  1       -2 0.84715457E-02 0.31069589E+03</pdfrwt>
<totfact> 0.73355931E+03</totfact>
</mgrwt>
</event>
<event>
 4    1  0.1399921E-004  0.7231427E+03  0.7818608E-02  0.9678454E-01
         -2   -1    0    0    0  501 -0.00000000000E+00  0.00000000000E+00  0.17793448418E+03  0.17793448420E+03  0.25500000000E-02 0. -1.
          2   -1    0    0  501    0  0.00000000000E+00 -0.00000000000E+00 -0.73473024323E+03  0.73473024323E+03  0.25500000000E-02 0.  1.
    5000001    1    1    2    0    0  0.28387240686E+03  0.22001287422E+02 -0.50952502414E+03  0.59733771875E+03  0.12700000000E+03 0.  0.
   -5000001    1    1    2    0    0 -0.28387240686E+03 -0.22001287422E+02 -0.47270734908E+02  0.31532700868E+03  0.12700000000E+03 0.  0.
<mgrwt>
<rscale>  0 0.72314272E+03</rscale>
<asrwt>0</asrwt>
<pdfrwt beam="1">  1        2 0.10496146E+00 0.72314272E+03</pdfrwt>
<pdfrwt beam="2">  1       -2 0.25419212E-01 0.72314272E+03</pdfrwt>
<totfact> 0.59130961E+02</totfact>
</mgrwt>
</event>
<event>
 4    1  0.1399921E-004  0.3595360E+03  0.7818608E-02  0.1058768E+00
          2   -1    0    0  501    0  0.00000000000E+00  0.00000000000E+00  0.24397786796E+04  0.24397786796E+04  0.25500000000E-02 0.  1.
         -2   -1    0    0    0  501 -0.00000000000E+00 -0.00000000000E+00 -0.13245679439E+02  0.13245679685E+02  0.25500000000E-02 0. -1.
    5000001    1    1    2    0    0 -0.42059000630E+02  0.90490116123E+02  0.17517932034E+04  0.17592230809E+04  0.12700000000E+03 0.  0.
   -5000001    1    1    2    0    0  0.42059000630E+02 -0.90490116123E+02  0.67473979669E+03  0.69380127838E+03  0.12700000000E+03 0.  0.
<mgrwt>
<rscale>  0 0.35953596E+03</rscale>
<asrwt>0</asrwt>
<pdfrwt beam="1">  1        2 0.34853988E+00 0.35953596E+03</pdfrwt>
<pdfrwt beam="2">  1       -2 0.18922396E-02 0.35953596E+03</pdfrwt>
<totfact> 0.44965709E+03</totfact>
</mgrwt>
</event>
<event>
 4    1  0.1399921E-004  0.5974298E+03  0.7818608E-02  0.9910753E-01
         -2   -1    0    0    0  501 -0.00000000000E+00  0.00000000000E+00  0.31052217059E+02  0.31052217164E+02  0.25500000000E-02 0. -1.
          2   -1    0    0  501    0  0.00000000000E+00 -0.00000000000E+00 -0.28735662496E+04  0.28735662496E+04  0.25500000000E-02 0.  1.
    5000001    1    1    2    0    0  0.22810807299E+03 -0.14085633229E+03 -0.15916166371E+04  0.16190263490E+04  0.12700000000E+03 0.  0.
   -5000001    1    1    2    0    0 -0.22810807299E+03  0.14085633229E+03 -0.12508973955E+04  0.12855921178E+04  0.12700000000E+03 0.  0.
<mgrwt>
<rscale>  0 0.59742984E+03</rscale>
<asrwt>0</asrwt>
<pdfrwt beam="1">  1        2 0.41050930E+00 0.59742984E+03</pdfrwt>
<pdfrwt beam="2">  1       -2 0.44360328E-02 0.59742984E+03</pdfrwt>
<totfact> 0.72900484E+02</totfact>
</mgrwt>
</event>
<event>
 4    1  0.1399921E-004  0.2768023E+03  0.7818608E-02  0.1097448E+00
         -2   -1    0    0    0  501 -0.00000000000E+00  0.00000000000E+00  0.12748723325E+02  0.12748723580E+02  0.25500000000E-02 0. -1.
          2   -1    0    0  501    0  0.00000000000E+00 -0.00000000000E+00 -0.15024936413E+04  0.15024936413E+04  0.25500000000E-02 0.  1.
    5000001    1    1    2    0    0  0.31255117807E+02  0.42288173106E+02 -0.83325902143E+03  0.84452043715E+03  0.12700000000E+03 0.  0.
   -5000001    1    1    2    0    0 -0.31255117807E+02 -0.42288173106E+02 -0.65648589655E+03  0.67072192773E+03  0.12700000000E+03 0.  0.
<mgrwt>
<rscale>  0 0.27680228E+03</rscale>
<asrwt>0</asrwt>
<pdfrwt beam="1">  1        2 0.21464184E+00 0.27680228E+03</pdfrwt>
<pdfrwt beam="2">  1       -2 0.18212472E-02 0.27680228E+03</pdfrwt>
<totfact> 0.13799344E+04</totfact>
</mgrwt>
</event>
<event>
 4    1  0.1399921E-004  0.3124017E+03  0.7818608E-02  0.1079200E+00
          2   -1    0    0  501    0  0.00000000000E+00  0.00000000000E+00  0.32897833395E+04  0.32897833395E+04  0.25500000000E-02 0.  1.
         -2   -1    0    0    0  501 -0.00000000000E+00 -0.00000000000E+00 -0.74165058756E+01  0.74165063139E+01  0.25500000000E-02 0. -1.
    5000001    1    1    2    0    0  0.56222002125E+02  0.71346480026E+02  0.16865358097E+04  0.16937482904E+04  0.12700000000E+03 0.  0.
   -5000001    1    1    2    0    0 -0.56222002125E+02 -0.71346480026E+02  0.15958310239E+04  0.16034515555E+04  0.12700000000E+03 0.  0.
<mgrwt>
<rscale>  0 0.31240165E+03</rscale>
<asrwt>0</asrwt>
<pdfrwt beam="1">  1        2 0.46996860E+00 0.31240165E+03</pdfrwt>
<pdfrwt beam="2">  1       -2 0.10595019E-02 0.31240165E+03</pdfrwt>
<totfact> 0.37773765E+03</totfact>
</mgrwt>
</event>
<event>
 4    1  0.1399921E-004  0.2660764E+03  0.7818608E-02  0.1103546E+00
          2   -1    0    0  501    0  0.00000000000E+00  0.00000000000E+00  0.14600373295E+04  0.14600373295E+04  0.25500000000E-02 0.  1.
         -2   -1    0    0    0  501 -0.00000000000E+00 -0.00000000000E+00 -0.12122401212E+02  0.12122401480E+02  0.25500000000E-02 0. -1.
    5000001    1    1    2    0    0 -0.14288845596E+02  0.14740271266E+02  0.91148030235E+03  0.92051441503E+03  0.12700000000E+03 0.  0.
   -5000001    1    1    2    0    0  0.14288845596E+02 -0.14740271266E+02  0.53643462589E+03  0.55164531591E+03  0.12700000000E+03 0.  0.
<mgrwt>
<rscale>  0 0.26607637E+03</rscale>
<asrwt>0</asrwt>
<pdfrwt beam="1">  1        2 0.20857669E+00 0.26607637E+03</pdfrwt>
<pdfrwt beam="2">  1       -2 0.17317722E-02 0.26607637E+03</pdfrwt>
<totfact> 0.15592565E+04</totfact>
</mgrwt>
</event>
<event>
 4    1  0.1399921E-004  0.5125276E+03  0.7818608E-02  0.1010560E+00
         -2   -1    0    0    0  501 -0.00000000000E+00  0.00000000000E+00  0.12663723861E+03  0.12663723863E+03  0.25500000000E-02 0. -1.
          2   -1    0    0  501    0  0.00000000000E+00 -0.00000000000E+00 -0.51857674789E+03  0.51857674789E+03  0.25500000000E-02 0.  1.
    5000001    1    1    2    0    0 -0.20702816730E+02 -0.16824368693E+03 -0.14377485798E+02  0.21229756690E+03  0.12700000000E+03 0.  0.
   -5000001    1    1    2    0    0  0.20702816730E+02  0.16824368693E+03 -0.37756202348E+03  0.43291641963E+03  0.12700000000E+03 0.  0.
<mgrwt>
<rscale>  0 0.51252757E+03</rscale>
<asrwt>0</asrwt>
<pdfrwt beam="1">  1        2 0.74082391E-01 0.51252757E+03</pdfrwt>
<pdfrwt beam="2">  1       -2 0.18091034E-01 0.51252757E+03</pdfrwt>
<totfact> 0.16318137E+03</totfact>
</mgrwt>
</event>
<event>
 4    1  0.1399921E-004  0.3242866E+03  0.7818608E-02  0.1073693E+00
          2   -1    0    0  501    0  0.00000000000E+00  0.00000000000E+00  0.64443869134E+03  0.64443869135E+03  0.25500000000E-02 0.  1.
         -2   -1    0    0    0  501 -0.00000000000E+00 -0.00000000000E+00 -0.40795885912E+02  0.40795885992E+02  0.25500000000E-02 0. -1.
    5000001    1    1    2    0    0  0.99431489969E+02  0.11016436395E+02  0.27564475951E+03  0.31955753240E+03  0.12700000000E+03 0.  0.
   -5000001    1    1    2    0    0 -0.99431489969E+02 -0.11016436395E+02  0.32799804593E+03  0.36567704494E+03  0.12700000000E+03 0.  0.
<mgrwt>
<rscale>  0 0.32428659E+03</rscale>
<asrwt>0</asrwt>
<pdfrwt beam="1">  1        2 0.92062669E-01 0.32428659E+03</pdfrwt>
<pdfrwt beam="2">  1       -2 0.58279838E-02 0.32428659E+03</pdfrwt>
<totfact> 0.78546833E+03</totfact>
</mgrwt>
</event>
<event>
 4    1  0.1399921E-004  0.3649920E+03  0.7818608E-02  0.1056625E+00
          2   -1    0    0  501    0  0.00000000000E+00  0.00000000000E+00  0.29127396067E+03  0.29127396068E+03  0.25500000000E-02 0.  1.
         -2   -1    0    0    0  501 -0.00000000000E+00 -0.00000000000E+00 -0.11434179315E+03  0.11434179318E+03  0.25500000000E-02 0. -1.
    5000001    1    1    2    0    0  0.61191818860E+02  0.10446968711E+03  0.32707667774E+02  0.17848570181E+03  0.12700000000E+03 0.  0.
   -5000001    1    1    2    0    0 -0.61191818860E+02 -0.10446968711E+03  0.14422449974E+03  0.22713005205E+03  0.12700000000E+03 0.  0.
<mgrwt>
<rscale>  0 0.36499198E+03</rscale>
<asrwt>0</asrwt>
<pdfrwt beam="1">  1        2 0.41610566E-01 0.36499198E+03</pdfrwt>
<pdfrwt beam="2">  1       -2 0.16334542E-01 0.36499198E+03</pdfrwt>
<totfact> 0.36508180E+03</totfact>
</mgrwt>
</event>
<event>
 4    1  0.1399921E-004  0.4849681E+03  0.7818608E-02  0.1017779E+00
          2   -1    0    0  501    0  0.00000000000E+00  0.00000000000E+00  0.10263827856E+04  0.10263827856E+04  0.25500000000E-02 0.  1.
         -2   -1    0    0    0  501 -0.00000000000E+00 -0.00000000000E+00 -0.57287113161E+02  0.57287113218E+02  0.25500000000E-02 0. -1.
    5000001    1    1    2    0    0  0.42401626905E+02 -0.20098950300E+03  0.53323923737E+03  0.58537830721E+03  0.12700000000E+03 0.  0.
   -5000001    1    1    2    0    0 -0.42401626905E+02  0.20098950300E+03  0.43585643506E+03  0.49829159160E+03  0.12700000000E+03 0.  0.
<mgrwt>
<rscale>  0 0.48496807E+03</rscale>
<asrwt>0</asrwt>
<pdfrwt beam="1">  1        2 0.14662610E+00 0.48496807E+03</pdfrwt>
<pdfrwt beam="2">  1       -2 0.81838738E-02 0.48496807E+03</pdfrwt>
<totfact> 0.25709310E+03</totfact>
</mgrwt>
</event>
<event>
 4    1  0.1399921E-004  0.4130192E+03  0.7818608E-02  0.1039363E+00
         -2   -1    0    0    0  501 -0.00000000000E+00  0.00000000000E+00  0.13094862927E+02  0.13094863175E+02  0.25500000000E-02 0. -1.
          2   -1    0    0  501    0  0.00000000000E+00 -0.00000000000E+00 -0.32567128896E+04  0.32567128896E+04  0.25500000000E-02 0.  1.
    5000001    1    1    2    0    0  0.12840533806E+03  0.48210177628E+02 -0.23167372216E+04  0.23242660144E+04  0.12700000000E+03 0.  0.
   -5000001    1    1    2    0    0 -0.12840533806E+03 -0.48210177628E+02 -0.92688080511E+03  0.94554173835E+03  0.12700000000E+03 0.  0.
<mgrwt>
<rscale>  0 0.41301917E+03</rscale>
<asrwt>0</asrwt>
<pdfrwt beam="1">  1        2 0.46524418E+00 0.41301917E+03</pdfrwt>
<pdfrwt beam="2">  1       -2 0.18706968E-02 0.41301917E+03</pdfrwt>
<totfact> 0.16907905E+03</totfact>
</mgrwt>
</event>
<event>
 4    1  0.1399921E-004  0.6391369E+03  0.7818608E-02  0.9827379E-01
          2   -1    0    0  501    0  0.00000000000E+00  0.00000000000E+00  0.48571351311E+03  0.48571351311E+03  0.25500000000E-02 0. -1.
         -2   -1    0    0    0  501 -0.00000000000E+00 -0.00000000000E+00 -0.21025559058E+03  0.21025559059E+03  0.25500000000E-02 0.  1.
    5000001    1    1    2    0    0 -0.19074036601E+03  0.50061823575E+02  0.37406959492E+03  0.44152591685E+03  0.12700000000E+03 0.  0.
   -5000001    1    1    2    0    0  0.19074036601E+03 -0.50061823575E+02 -0.98611672392E+02  0.25444318686E+03  0.12700000000E+03 0.  0.
<mgrwt>
<rscale>  0 0.63913686E+03</rscale>
<asrwt>0</asrwt>
<pdfrwt beam="1">  1        2 0.69387645E-01 0.63913686E+03</pdfrwt>
<pdfrwt beam="2">  1       -2 0.30036513E-01 0.63913686E+03</pdfrwt>
<totfact> 0.71297426E+02</totfact>
</mgrwt>
</event>
<event>
 4    1  0.1399921E-004  0.6895514E+03  0.7818608E-02  0.9735269E-01
         -2   -1    0    0    0  501 -0.00000000000E+00  0.00000000000E+00  0.15991509342E+03  0.15991509344E+03  0.25500000000E-02 0. -1.
          2   -1    0    0  501    0  0.00000000000E+00 -0.00000000000E+00 -0.74333378713E+03  0.74333378713E+03  0.25500000000E-02 0.  1.
    5000001    1    1    2    0    0 -0.27149722182E+03 -0.14216921727E+03 -0.41471844947E+03  0.53107741444E+03  0.12700000000E+03 0.  0.
   -5000001    1    1    2    0    0  0.27149722182E+03  0.14216921727E+03 -0.16870024424E+03  0.37217146614E+03  0.12700000000E+03 0.  0.
<mgrwt>
<rscale>  0 0.68955143E+03</rscale>
<asrwt>0</asrwt>
<pdfrwt beam="1">  1        2 0.10619054E+00 0.68955143E+03</pdfrwt>
<pdfrwt beam="2">  1       -2 0.22845014E-01 0.68955143E+03</pdfrwt>
<totfact> 0.70626352E+02</totfact>
</mgrwt>
</event>
<event>
 4    1  0.1399921E-004  0.2790074E+03  0.7818608E-02  0.1096232E+00
         -2   -1    0    0    0  501 -0.00000000000E+00  0.00000000000E+00  0.26286381405E+02  0.26286381529E+02  0.25500000000E-02 0.  1.
          2   -1    0    0  501    0  0.00000000000E+00 -0.00000000000E+00 -0.74035585255E+03  0.74035585256E+03  0.25500000000E-02 0. -1.
    5000001    1    1    2    0    0 -0.56131984916E+02  0.11791201832E+02 -0.33913336722E+03  0.36664734137E+03  0.12700000000E+03 0.  0.
   -5000001    1    1    2    0    0  0.56131984916E+02 -0.11791201832E+02 -0.37493610392E+03  0.39999489271E+03  0.12700000000E+03 0.  0.
<mgrwt>
<rscale>  0 0.27900736E+03</rscale>
<asrwt>0</asrwt>
<pdfrwt beam="1">  1        2 0.10576511E+00 0.27900736E+03</pdfrwt>
<pdfrwt beam="2">  1       -2 0.37551978E-02 0.27900736E+03</pdfrwt>
<totfact> 0.12919477E+04</totfact>
</mgrwt>
</event>
<event>
 4    1  0.1399921E-004  0.3061924E+03  0.7818608E-02  0.1082185E+00
         -2   -1    0    0    0  501 -0.00000000000E+00  0.00000000000E+00  0.18718921725E+03  0.18718921727E+03  0.25500000000E-02 0. -1.
          2   -1    0    0  501    0  0.00000000000E+00 -0.00000000000E+00 -0.12521254858E+03  0.12521254860E+03  0.25500000000E-02 0.  1.
    5000001    1    1    2    0    0  0.33019569889E+02  0.78346532650E+02  0.40169023612E+02  0.15802221879E+03  0.12700000000E+03 0.  0.
   -5000001    1    1    2    0    0 -0.33019569889E+02 -0.78346532650E+02  0.21807645063E+02  0.15437954708E+03  0.12700000000E+03 0.  0.
<mgrwt>
<rscale>  0 0.30619235E+03</rscale>
<asrwt>0</asrwt>
<pdfrwt beam="1">  1        2 0.17887507E-01 0.30619235E+03</pdfrwt>
<pdfrwt beam="2">  1       -2 0.26741317E-01 0.30619235E+03</pdfrwt>
<totfact> 0.39817251E+03</totfact>
</mgrwt>
</event>
<event>
 4    1  0.1399921E-004  0.7586117E+03  0.7818608E-02  0.9621936E-01
         -2   -1    0    0    0  501 -0.00000000000E+00  0.00000000000E+00  0.11294247400E+03  0.11294247403E+03  0.25500000000E-02 0. -1.
          2   -1    0    0  501    0  0.00000000000E+00 -0.00000000000E+00 -0.12738603645E+04  0.12738603645E+04  0.25500000000E-02 0.  1.
    5000001    1    1    2    0    0 -0.76191368926E+02  0.25214042205E+03 -0.13881957794E+03  0.32369706880E+03  0.12700000000E+03 0.  0.
   -5000001    1    1    2    0    0  0.76191368926E+02 -0.25214042205E+03 -0.10220983126E+04  0.10631057698E+04  0.12700000000E+03 0.  0.
<mgrwt>
<rscale>  0 0.75861174E+03</rscale>
<asrwt>0</asrwt>
<pdfrwt beam="1">  1        2 0.18198004E+00 0.75861174E+03</pdfrwt>
<pdfrwt beam="2">  1       -2 0.16134640E-01 0.75861174E+03</pdfrwt>
<totfact> 0.60433443E+02</totfact>
</mgrwt>
</event>
<event>
 4    1  0.1399921E-004  0.4128514E+03  0.7818608E-02  0.1039418E+00
          2   -1    0    0  501    0  0.00000000000E+00  0.00000000000E+00  0.52307210070E+03  0.52307210071E+03  0.25500000000E-02 0.  1.
         -2   -1    0    0    0  501 -0.00000000000E+00 -0.00000000000E+00 -0.81464040915E+02  0.81464040955E+02  0.25500000000E-02 0. -1.
    5000001    1    1    2    0    0  0.10085727229E+03 -0.36450881367E+02  0.40003342028E+03  0.43319348271E+03  0.12700000000E+03 0.  0.
   -5000001    1    1    2    0    0 -0.10085727229E+03  0.36450881367E+02  0.41574639507E+02  0.17134265895E+03  0.12700000000E+03 0.  0.
<mgrwt>
<rscale>  0 0.41285139E+03</rscale>
<asrwt>0</asrwt>
<pdfrwt beam="1">  1        2 0.74724584E-01 0.41285139E+03</pdfrwt>
<pdfrwt beam="2">  1       -2 0.11637720E-01 0.41285139E+03</pdfrwt>
<totfact> 0.33668822E+03</totfact>
</mgrwt>
</event>
<event>
 4    1  0.1399921E-004  0.4215025E+03  0.7818608E-02  0.1036578E+00
          2   -1    0    0  501    0  0.00000000000E+00  0.00000000000E+00  0.16387212548E+03  0.16387212550E+03  0.25500000000E-02 0.  1.
         -2   -1    0    0    0  501 -0.00000000000E+00 -0.00000000000E+00 -0.27104119380E+03  0.27104119381E+03  0.25500000000E-02 0. -1.
    5000001    1    1    2    0    0 -0.12738119328E+03 -0.10919736282E+03 -0.41504606115E+02  0.21447998689E+03  0.12700000000E+03 0.  0.
   -5000001    1    1    2    0    0  0.12738119328E+03  0.10919736282E+03 -0.65664462201E+02  0.22043333243E+03  0.12700000000E+03 0.  0.
<mgrwt>
<rscale>  0 0.42150253E+03</rscale>
<asrwt>0</asrwt>
<pdfrwt beam="1">  1        2 0.23410304E-01 0.42150253E+03</pdfrwt>
<pdfrwt beam="2">  1       -2 0.38720170E-01 0.42150253E+03</pdfrwt>
<totfact> 0.14820823E+03</totfact>
</mgrwt>
</event>
<event>
 4    1  0.1399921E-004  0.3493166E+03  0.7818608E-02  0.1062896E+00
          2   -1    0    0  501    0  0.00000000000E+00  0.00000000000E+00  0.59600872331E+02  0.59600872386E+02  0.25500000000E-02 0.  1.
         -2   -1    0    0    0  501 -0.00000000000E+00 -0.00000000000E+00 -0.51183007837E+03  0.51183007838E+03  0.25500000000E-02 0. -1.
    5000001    1    1    2    0    0 -0.59835591953E+02 -0.26809330497E+02 -0.39033252251E+03  0.41567717811E+03  0.12700000000E+03 0.  0.
   -5000001    1    1    2    0    0  0.59835591953E+02  0.26809330497E+02 -0.61896683529E+02  0.15575377266E+03  0.12700000000E+03 0.  0.
<mgrwt>
<rscale>  0 0.34931659E+03</rscale>
<asrwt>0</asrwt>
<pdfrwt beam="1">  1        2 0.85144106E-02 0.34931659E+03</pdfrwt>
<pdfrwt beam="2">  1       -2 0.73118580E-01 0.34931659E+03</pdfrwt>
<totfact> 0.13710984E+03</totfact>
</mgrwt>
</event>
<event>
 4    1  0.1399921E-004  0.4048452E+03  0.7818608E-02  0.1042115E+00
         -2   -1    0    0    0  501 -0.00000000000E+00  0.00000000000E+00  0.33901190817E+02  0.33901190913E+02  0.25500000000E-02 0. -1.
          2   -1    0    0  501    0  0.00000000000E+00 -0.00000000000E+00 -0.12086566323E+04  0.12086566323E+04  0.25500000000E-02 0.  1.
    5000001    1    1    2    0    0 -0.61558782499E+02  0.74509776370E+02 -0.96955025414E+03  0.98259751973E+03  0.12700000000E+03 0.  0.
   -5000001    1    1    2    0    0  0.61558782499E+02 -0.74509776370E+02 -0.20520518736E+03  0.25996030350E+03  0.12700000000E+03 0.  0.
<mgrwt>
<rscale>  0 0.40484515E+03</rscale>
<asrwt>0</asrwt>
<pdfrwt beam="1">  1        2 0.17266521E+00 0.40484515E+03</pdfrwt>
<pdfrwt beam="2">  1       -2 0.48430280E-02 0.40484515E+03</pdfrwt>
<totfact> 0.45800468E+03</totfact>
</mgrwt>
</event>
<event>
 4    1  0.1399921E-004  0.3383374E+03  0.7818608E-02  0.1067506E+00
          2   -1    0    0  501    0  0.00000000000E+00  0.00000000000E+00  0.94132915494E+02  0.94132915528E+02  0.25500000000E-02 0.  1.
         -2   -1    0    0    0  501 -0.00000000000E+00 -0.00000000000E+00 -0.30401741245E+03  0.30401741246E+03  0.25500000000E-02 0. -1.
    5000001    1    1    2    0    0  0.46582079262E+02 -0.58770595502E+02 -0.74381610670E+01  0.14767599414E+03  0.12700000000E+03 0.  0.
   -5000001    1    1    2    0    0 -0.46582079262E+02  0.58770595502E+02 -0.20244633589E+03  0.25047433385E+03  0.12700000000E+03 0.  0.
<mgrwt>
<rscale>  0 0.33833738E+03</rscale>
<asrwt>0</asrwt>
<pdfrwt beam="1">  1        2 0.13447560E-01 0.33833738E+03</pdfrwt>
<pdfrwt beam="2">  1       -2 0.43431058E-01 0.33833738E+03</pdfrwt>
<totfact> 0.22676719E+03</totfact>
</mgrwt>
</event>
<event>
 4    1  0.1399921E-004  0.8310278E+03  0.7818608E-02  0.9516161E-01
          2   -1    0    0  501    0  0.00000000000E+00  0.00000000000E+00  0.24632818368E+04  0.24632818368E+04  0.25500000000E-02 0.  1.
         -2   -1    0    0    0  501 -0.00000000000E+00 -0.00000000000E+00 -0.70090145030E+02  0.70090145076E+02  0.25500000000E-02 0. -1.
    5000001    1    1    2    0    0 -0.11631507467E+03 -0.36158157769E+03  0.15340331444E+04  0.15854517092E+04  0.12700000000E+03 0.  0.
   -5000001    1    1    2    0    0  0.11631507467E+03  0.36158157769E+03  0.85915854729E+03  0.94792027265E+03  0.12700000000E+03 0.  0.
<mgrwt>
<rscale>  0 0.83102775E+03</rscale>
<asrwt>0</asrwt>
<pdfrwt beam="1">  1        2 0.35189733E+00 0.83102775E+03</pdfrwt>
<pdfrwt beam="2">  1       -2 0.10012880E-01 0.83102775E+03</pdfrwt>
<totfact> 0.32351982E+02</totfact>
</mgrwt>
</event>
<event>
 4    1  0.1399921E-004  0.4571538E+03  0.7818608E-02  0.1025610E+00
         -2   -1    0    0    0  501 -0.00000000000E+00  0.00000000000E+00  0.20691711344E+03  0.20691711346E+03  0.25500000000E-02 0. -1.
          2   -1    0    0  501    0  0.00000000000E+00 -0.00000000000E+00 -0.25250399506E+03  0.25250399507E+03  0.25500000000E-02 0.  1.
    5000001    1    1    2    0    0  0.15025092647E+03 -0.11578264545E+03 -0.11011991517E+02  0.22854151888E+03  0.12700000000E+03 0.  0.
   -5000001    1    1    2    0    0 -0.15025092647E+03  0.11578264545E+03 -0.34574890105E+02  0.23087958965E+03  0.12700000000E+03 0.  0.
<mgrwt>
<rscale>  0 0.45715379E+03</rscale>
<asrwt>0</asrwt>
<pdfrwt beam="1">  1        2 0.36071999E-01 0.45715379E+03</pdfrwt>
<pdfrwt beam="2">  1       -2 0.29559588E-01 0.45715379E+03</pdfrwt>
<totfact> 0.15160975E+03</totfact>
</mgrwt>
</event>
<event>
 4    1  0.1399921E-004  0.5934602E+03  0.7818608E-02  0.9919068E-01
          2   -1    0    0  501    0  0.00000000000E+00  0.00000000000E+00  0.98483229598E+02  0.98483229631E+02  0.25500000000E-02 0.  1.
         -2   -1    0    0    0  501 -0.00000000000E+00 -0.00000000000E+00 -0.89404823618E+03  0.89404823618E+03  0.25500000000E-02 0. -1.
    5000001    1    1    2    0    0 -0.94025459349E+02  0.19412649442E+03 -0.66429474334E+03  0.70988899757E+03  0.12700000000E+03 0.  0.
   -5000001    1    1    2    0    0  0.94025459349E+02 -0.19412649442E+03 -0.13127026324E+03  0.28264246824E+03  0.12700000000E+03 0.  0.
<mgrwt>
<rscale>  0 0.59346022E+03</rscale>
<asrwt>0</asrwt>
<pdfrwt beam="1">  1        2 0.14069033E-01 0.59346022E+03</pdfrwt>
<pdfrwt beam="2">  1       -2 0.12772117E+00 0.59346022E+03</pdfrwt>
<totfact> 0.19969567E+02</totfact>
</mgrwt>
</event>
<event>
 4    1  0.1399921E-004  0.4737743E+03  0.7818608E-02  0.1020860E+00
         -2   -1    0    0    0  501 -0.00000000000E+00  0.00000000000E+00  0.77540784394E+03  0.77540784395E+03  0.25500000000E-02 0. -1.
          2   -1    0    0  501    0  0.00000000000E+00 -0.00000000000E+00 -0.72369050201E+02  0.72369050246E+02  0.25500000000E-02 0.  1.
    5000001    1    1    2    0    0  0.16304074911E+03 -0.41225811718E+02  0.54511243835E+03  0.58442999911E+03  0.12700000000E+03 0.  0.
   -5000001    1    1    2    0    0 -0.16304074911E+03  0.41225811718E+02  0.15792635539E+03  0.26334689508E+03  0.12700000000E+03 0.  0.
<mgrwt>
<rscale>  0 0.47377433E+03</rscale>
<asrwt>0</asrwt>
<pdfrwt beam="1">  1        2 0.10338435E-01 0.47377433E+03</pdfrwt>
<pdfrwt beam="2">  1       -2 0.11077256E+00 0.47377433E+03</pdfrwt>
<totfact> 0.41591547E+02</totfact>
</mgrwt>
</event>
<event>
 4    1  0.1399921E-004  0.5619094E+03  0.7818608E-02  0.9987744E-01
          2   -1    0    0  501    0  0.00000000000E+00  0.00000000000E+00  0.13458372727E+04  0.13458372727E+04  0.25500000000E-02 0.  1.
         -2   -1    0    0    0  501 -0.00000000000E+00 -0.00000000000E+00 -0.58651617480E+02  0.58651617535E+02  0.25500000000E-02 0. -1.
    5000001    1    1    2    0    0  0.10668007178E+03  0.19601045929E+03  0.92864246529E+03  0.96348667152E+03  0.12700000000E+03 0.  0.
   -5000001    1    1    2    0    0 -0.10668007178E+03 -0.19601045929E+03  0.35854318993E+03  0.44100221871E+03  0.12700000000E+03 0.  0.
<mgrwt>
<rscale>  0 0.56190936E+03</rscale>
<asrwt>0</asrwt>
<pdfrwt beam="1">  1        2 0.19226244E+00 0.56190936E+03</pdfrwt>
<pdfrwt beam="2">  1       -2 0.83788039E-02 0.56190936E+03</pdfrwt>
<totfact> 0.16358685E+03</totfact>
</mgrwt>
</event>
<event>
 4    1  0.1399921E-004  0.4845558E+03  0.7818608E-02  0.1017891E+00
         -2   -1    0    0    0  501 -0.00000000000E+00  0.00000000000E+00  0.50713368341E+03  0.50713368342E+03  0.25500000000E-02 0. -1.
          2   -1    0    0  501    0  0.00000000000E+00 -0.00000000000E+00 -0.11574576066E+03  0.11574576069E+03  0.25500000000E-02 0.  1.
    5000001    1    1    2    0    0 -0.93428458793E+02  0.83955473339E+02  0.40610291562E+03  0.44365073706E+03  0.12700000000E+03 0.  0.
   -5000001    1    1    2    0    0  0.93428458793E+02 -0.83955473339E+02 -0.14714992862E+02  0.17922870705E+03  0.12700000000E+03 0.  0.
<mgrwt>
<rscale>  0 0.48455577E+03</rscale>
<asrwt>0</asrwt>
<pdfrwt beam="1">  1        2 0.16535108E-01 0.48455577E+03</pdfrwt>
<pdfrwt beam="2">  1       -2 0.72447670E-01 0.48455577E+03</pdfrwt>
<totfact> 0.61860989E+02</totfact>
</mgrwt>
</event>
<event>
 4    1  0.1399921E-004  0.4955906E+03  0.7818608E-02  0.1014936E+00
          2   -1    0    0  501    0  0.00000000000E+00  0.00000000000E+00  0.17176761988E+04  0.17176761988E+04  0.25500000000E-02 0.  1.
         -2   -1    0    0    0  501 -0.00000000000E+00 -0.00000000000E+00 -0.35747435530E+02  0.35747435621E+02  0.25500000000E-02 0. -1.
    5000001    1    1    2    0    0  0.17515940824E+03 -0.11740786813E+03  0.74038833437E+03  0.78023670220E+03  0.12700000000E+03 0.  0.
   -5000001    1    1    2    0    0 -0.17515940824E+03  0.11740786813E+03  0.94154042895E+03  0.97318693227E+03  0.12700000000E+03 0.  0.
<mgrwt>
<rscale>  0 0.49559063E+03</rscale>
<asrwt>0</asrwt>
<pdfrwt beam="1">  1        2 0.24538235E+00 0.49559063E+03</pdfrwt>
<pdfrwt beam="2">  1       -2 0.51067757E-02 0.49559063E+03</pdfrwt>
<totfact> 0.22890648E+03</totfact>
</mgrwt>
</event>
<event>
 4    1  0.1399921E-004  0.3693213E+03  0.7818608E-02  0.1054953E+00
          2   -1    0    0  501    0  0.00000000000E+00  0.00000000000E+00  0.10359952310E+04  0.10359952311E+04  0.25500000000E-02 0.  1.
         -2   -1    0    0    0  501 -0.00000000000E+00 -0.00000000000E+00 -0.32914780174E+02  0.32914780272E+02  0.25500000000E-02 0. -1.
    5000001    1    1    2    0    0 -0.10436957607E+03 -0.42439912897E+02  0.29130490706E+03  0.33716717440E+03  0.12700000000E+03 0.  0.
   -5000001    1    1    2    0    0  0.10436957607E+03  0.42439912897E+02  0.71177554381E+03  0.73174283692E+03  0.12700000000E+03 0.  0.
<mgrwt>
<rscale>  0 0.36932130E+03</rscale>
<asrwt>0</asrwt>
<pdfrwt beam="1">  1        2 0.14799931E+00 0.36932130E+03</pdfrwt>
<pdfrwt beam="2">  1       -2 0.47021118E-02 0.36932130E+03</pdfrwt>
<totfact> 0.59969400E+03</totfact>
</mgrwt>
</event>
<event>
 4    1  0.1399921E-004  0.3844959E+03  0.7818608E-02  0.1049284E+00
          2   -1    0    0  501    0  0.00000000000E+00  0.00000000000E+00  0.31531221230E+03  0.31531221231E+03  0.25500000000E-02 0.  1.
         -2   -1    0    0    0  501 -0.00000000000E+00 -0.00000000000E+00 -0.11721484740E+03  0.11721484743E+03  0.25500000000E-02 0. -1.
    5000001    1    1    2    0    0  0.52126988533E+02  0.57037259819E+02 -0.38079927501E+02  0.15345863553E+03  0.12700000000E+03 0.  0.
   -5000001    1    1    2    0    0 -0.52126988533E+02 -0.57037259819E+02  0.23617729240E+03  0.27906842421E+03  0.12700000000E+03 0.  0.
<mgrwt>
<rscale>  0 0.38449589E+03</rscale>
<asrwt>0</asrwt>
<pdfrwt beam="1">  1        2 0.45044601E-01 0.38449589E+03</pdfrwt>
<pdfrwt beam="2">  1       -2 0.16744978E-01 0.38449589E+03</pdfrwt>
<totfact> 0.32156942E+03</totfact>
</mgrwt>
</event>
<event>
 4    1  0.1399921E-004  0.3540075E+03  0.7818608E-02  0.1060982E+00
         -2   -1    0    0    0  501 -0.00000000000E+00  0.00000000000E+00  0.62534308839E+02  0.62534308891E+02  0.25500000000E-02 0. -1.
          2   -1    0    0  501    0  0.00000000000E+00 -0.00000000000E+00 -0.50101017147E+03  0.50101017148E+03  0.25500000000E-02 0.  1.
    5000001    1    1    2    0    0  0.12037983047E+03  0.24142759842E+02 -0.23718820861E+03  0.29573877450E+03  0.12700000000E+03 0.  0.
   -5000001    1    1    2    0    0 -0.12037983047E+03 -0.24142759842E+02 -0.20128765402E+03  0.26780570587E+03  0.12700000000E+03 0.  0.
<mgrwt>
<rscale>  0 0.35400748E+03</rscale>
<asrwt>0</asrwt>
<pdfrwt beam="1">  1        2 0.71572880E-01 0.35400748E+03</pdfrwt>
<pdfrwt beam="2">  1       -2 0.89334729E-02 0.35400748E+03</pdfrwt>
<totfact> 0.53867269E+03</totfact>
</mgrwt>
</event>
<event>
 4    1  0.1399921E-004  0.3348922E+03  0.7818608E-02  0.1068992E+00
          2   -1    0    0  501    0  0.00000000000E+00  0.00000000000E+00  0.10094013562E+04  0.10094013562E+04  0.25500000000E-02 0.  1.
         -2   -1    0    0    0  501 -0.00000000000E+00 -0.00000000000E+00 -0.27777055061E+02  0.27777055178E+02  0.25500000000E-02 0. -1.
    5000001    1    1    2    0    0 -0.10004729146E+02 -0.10630305059E+03  0.56066861368E+03  0.58470396573E+03  0.12700000000E+03 0.  0.
   -5000001    1    1    2    0    0  0.10004729146E+02  0.10630305059E+03  0.42095568750E+03  0.45247444570E+03  0.12700000000E+03 0.  0.
<mgrwt>
<rscale>  0 0.33489220E+03</rscale>
<asrwt>0</asrwt>
<pdfrwt beam="1">  1        2 0.14420022E+00 0.33489220E+03</pdfrwt>
<pdfrwt beam="2">  1       -2 0.39681499E-02 0.33489220E+03</pdfrwt>
<totfact> 0.80311526E+03</totfact>
</mgrwt>
</event>
<event>
 4    1  0.1399921E-004  0.3043116E+03  0.7818608E-02  0.1083105E+00
         -2   -1    0    0    0  501 -0.00000000000E+00  0.00000000000E+00  0.44618113705E+03  0.44618113705E+03  0.25500000000E-02 0. -1.
          2   -1    0    0  501    0  0.00000000000E+00 -0.00000000000E+00 -0.51887860792E+02  0.51887860855E+02  0.25500000000E-02 0.  1.
    5000001    1    1    2    0    0  0.71786492859E+02 -0.40855261791E+02  0.22028922674E+03  0.26735518770E+03  0.12700000000E+03 0.  0.
   -5000001    1    1    2    0    0 -0.71786492859E+02  0.40855261791E+02  0.17400404952E+03  0.23071381021E+03  0.12700000000E+03 0.  0.
<mgrwt>
<rscale>  0 0.30431158E+03</rscale>
<asrwt>0</asrwt>
<pdfrwt beam="1">  1        2 0.74125515E-02 0.30431158E+03</pdfrwt>
<pdfrwt beam="2">  1       -2 0.63740163E-01 0.30431158E+03</pdfrwt>
<totfact> 0.21885378E+03</totfact>
</mgrwt>
</event>
<event>
 4    1  0.1399921E-004  0.5970063E+03  0.7818608E-02  0.9911637E-01
          2   -1    0    0  501    0  0.00000000000E+00  0.00000000000E+00  0.39178373588E+03  0.39178373589E+03  0.25500000000E-02 0.  1.
         -2   -1    0    0    0  501 -0.00000000000E+00 -0.00000000000E+00 -0.22743194906E+03  0.22743194908E+03  0.25500000000E-02 0. -1.
    5000001    1    1    2    0    0 -0.20996799862E+03  0.15697520330E+03  0.14977216527E+03  0.32754919690E+03  0.12700000000E+03 0.  0.
   -5000001    1    1    2    0    0  0.20996799862E+03 -0.15697520330E+03  0.14579621548E+02  0.29166648807E+03  0.12700000000E+03 0.  0.
<mgrwt>
<rscale>  0 0.59700633E+03</rscale>
<asrwt>0</asrwt>
<pdfrwt beam="1">  1        2 0.55969105E-01 0.59700633E+03</pdfrwt>
<pdfrwt beam="2">  1       -2 0.32490279E-01 0.59700633E+03</pdfrwt>
<totfact> 0.78441717E+02</totfact>
</mgrwt>
</event>
<event>
 4    1  0.1399921E-004  0.3288175E+03  0.7818608E-02  0.1071661E+00
          2   -1    0    0  501    0  0.00000000000E+00  0.00000000000E+00  0.10713465763E+04  0.10713465763E+04  0.25500000000E-02 0.  1.
         -2   -1    0    0    0  501 -0.00000000000E+00 -0.00000000000E+00 -0.25230146051E+02  0.25230146179E+02  0.25500000000E-02 0. -1.
    5000001    1    1    2    0    0  0.69633006724E+02 -0.67187463290E+02  0.65385813198E+03  0.67306936315E+03  0.12700000000E+03 0.  0.
   -5000001    1    1    2    0    0 -0.69633006724E+02  0.67187463290E+02  0.39225829823E+03  0.42350735930E+03  0.12700000000E+03 0.  0.
<mgrwt>
<rscale>  0 0.32881746E+03</rscale>
<asrwt>0</asrwt>
<pdfrwt beam="1">  1        2 0.15304954E+00 0.32881746E+03</pdfrwt>
<pdfrwt beam="2">  1       -2 0.36043059E-02 0.32881746E+03</pdfrwt>
<totfact> 0.85402077E+03</totfact>
</mgrwt>
</event>
<event>
 4    1  0.1399921E-004  0.6070599E+03  0.7818608E-02  0.9890866E-01
          2   -1    0    0  501    0  0.00000000000E+00  0.00000000000E+00  0.36946926724E+03  0.36946926725E+03  0.25500000000E-02 0.  1.
         -2   -1    0    0    0  501 -0.00000000000E+00 -0.00000000000E+00 -0.24935884632E+03  0.24935884633E+03  0.25500000000E-02 0. -1.
    5000001    1    1    2    0    0 -0.25306942690E+03  0.72247375708E+02 -0.23618974857E+02  0.29317345395E+03  0.12700000000E+03 0.  0.
   -5000001    1    1    2    0    0  0.25306942690E+03 -0.72247375708E+02  0.14372939578E+03  0.32565465963E+03  0.12700000000E+03 0.  0.
<mgrwt>
<rscale>  0 0.60705990E+03</rscale>
<asrwt>0</asrwt>
<pdfrwt beam="1">  1        2 0.52781324E-01 0.60705990E+03</pdfrwt>
<pdfrwt beam="2">  1       -2 0.35622692E-01 0.60705990E+03</pdfrwt>
<totfact> 0.70362008E+02</totfact>
</mgrwt>
</event>
<event>
 4    1  0.1399921E-004  0.4542163E+03  0.7818608E-02  0.1026472E+00
         -2   -1    0    0    0  501 -0.00000000000E+00  0.00000000000E+00  0.94747730646E+02  0.94747730681E+02  0.25500000000E-02 0. -1.
          2   -1    0    0  501    0  0.00000000000E+00 -0.00000000000E+00 -0.54437296487E+03  0.54437296487E+03  0.25500000000E-02 0.  1.
    5000001    1    1    2    0    0  0.14270300596E+03  0.88039316622E+02 -0.10431133766E+03  0.23478697653E+03  0.12700000000E+03 0.  0.
   -5000001    1    1    2    0    0 -0.14270300596E+03 -0.88039316622E+02 -0.34531389656E+03  0.40433371903E+03  0.12700000000E+03 0.  0.
<mgrwt>
<rscale>  0 0.45421626E+03</rscale>
<asrwt>0</asrwt>
<pdfrwt beam="1">  1        2 0.77767565E-01 0.45421626E+03</pdfrwt>
<pdfrwt beam="2">  1       -2 0.13535390E-01 0.45421626E+03</pdfrwt>
<totfact> 0.25141152E+03</totfact>
</mgrwt>
</event>
<event>
 4    1  0.1399921E-004  0.3040215E+03  0.7818608E-02  0.1083247E+00
         -2   -1    0    0    0  501 -0.00000000000E+00  0.00000000000E+00  0.14722437927E+02  0.14722438148E+02  0.25500000000E-02 0. -1.
          2   -1    0    0  501    0  0.00000000000E+00 -0.00000000000E+00 -0.15695273861E+04  0.15695273861E+04  0.25500000000E-02 0.  1.
    5000001    1    1    2    0    0  0.57545961480E+02 -0.59649991281E+02 -0.72309553026E+03  0.73882731746E+03  0.12700000000E+03 0.  0.
   -5000001    1    1    2    0    0 -0.57545961480E+02  0.59649991281E+02 -0.83170941794E+03  0.84542250682E+03  0.12700000000E+03 0.  0.
<mgrwt>
<rscale>  0 0.30402151E+03</rscale>
<asrwt>0</asrwt>
<pdfrwt beam="1">  1        2 0.22421809E+00 0.30402151E+03</pdfrwt>
<pdfrwt beam="2">  1       -2 0.21032064E-02 0.30402151E+03</pdfrwt>
<totfact> 0.10352063E+04</totfact>
</mgrwt>
</event>
<event>
 4    1  0.1399921E-004  0.5653760E+03  0.7818608E-02  0.9979963E-01
          2   -1    0    0  501    0  0.00000000000E+00  0.00000000000E+00  0.67348046588E+03  0.67348046588E+03  0.25500000000E-02 0.  1.
         -2   -1    0    0    0  501 -0.00000000000E+00 -0.00000000000E+00 -0.11865599152E+03  0.11865599154E+03  0.25500000000E-02 0. -1.
    5000001    1    1    2    0    0  0.13882177091E+03  0.13911854663E+03  0.49964140267E+03  0.55172093069E+03  0.12700000000E+03 0.  0.
   -5000001    1    1    2    0    0 -0.13882177091E+03 -0.13911854663E+03  0.55183071687E+02  0.24041552673E+03  0.12700000000E+03 0.  0.
<mgrwt>
<rscale>  0 0.56537595E+03</rscale>
<asrwt>0</asrwt>
<pdfrwt beam="1">  1        2 0.96211498E-01 0.56537595E+03</pdfrwt>
<pdfrwt beam="2">  1       -2 0.16950855E-01 0.56537595E+03</pdfrwt>
<totfact> 0.13431068E+03</totfact>
</mgrwt>
</event>
<event>
 4    1  0.1399921E-004  0.9738242E+03  0.7818608E-02  0.9337729E-01
         -2   -1    0    0    0  501 -0.00000000000E+00  0.00000000000E+00  0.15024196089E+03  0.15024196091E+03  0.25500000000E-02 0. -1.
          2   -1    0    0  501    0  0.00000000000E+00 -0.00000000000E+00 -0.15780104344E+04  0.15780104344E+04  0.25500000000E-02 0.  1.
    5000001    1    1    2    0    0 -0.35142499620E+03  0.16418608424E+03 -0.24267440100E+03  0.47484361964E+03  0.12700000000E+03 0.  0.
   -5000001    1    1    2    0    0  0.35142499620E+03 -0.16418608424E+03 -0.11850940725E+04  0.12534087757E+04  0.12700000000E+03 0.  0.
<mgrwt>
<rscale>  0 0.97382418E+03</rscale>
<asrwt>0</asrwt>
<pdfrwt beam="1">  1        2 0.22543005E+00 0.97382418E+03</pdfrwt>
<pdfrwt beam="2">  1       -2 0.21463138E-01 0.97382418E+03</pdfrwt>
<totfact> 0.25015113E+02</totfact>
</mgrwt>
</event>
<event>
 4    1  0.1399921E-004  0.3737727E+03  0.7818608E-02  0.1053260E+00
         -2   -1    0    0    0  501 -0.00000000000E+00  0.00000000000E+00  0.13431960819E+03  0.13431960821E+03  0.25500000000E-02 0. -1.
          2   -1    0    0  501    0  0.00000000000E+00 -0.00000000000E+00 -0.26002545189E+03  0.26002545191E+03  0.25500000000E-02 0.  1.
    5000001    1    1    2    0    0  0.11523138639E+03 -0.42012795017E+02 -0.12749654770E+03  0.21777905553E+03  0.12700000000E+03 0.  0.
   -5000001    1    1    2    0    0 -0.11523138639E+03  0.42012795017E+02  0.17907039921E+01  0.17656600458E+03  0.12700000000E+03 0.  0.
<mgrwt>
<rscale>  0 0.37377275E+03</rscale>
<asrwt>0</asrwt>
<pdfrwt beam="1">  1        2 0.37146493E-01 0.37377275E+03</pdfrwt>
<pdfrwt beam="2">  1       -2 0.19188515E-01 0.37377275E+03</pdfrwt>
<totfact> 0.31457583E+03</totfact>
</mgrwt>
</event>
<event>
 4    1  0.1399921E-004  0.6949508E+03  0.7818608E-02  0.9725906E-01
         -2   -1    0    0    0  501 -0.00000000000E+00  0.00000000000E+00  0.53039175708E+03  0.53039175708E+03  0.25500000000E-02 0. -1.
          2   -1    0    0  501    0  0.00000000000E+00 -0.00000000000E+00 -0.22764144696E+03  0.22764144697E+03  0.25500000000E-02 0.  1.
    5000001    1    1    2    0    0  0.83559852701E+02 -0.31223279338E+03  0.16421576673E+03  0.38414500425E+03  0.12700000000E+03 0.  0.
   -5000001    1    1    2    0    0 -0.83559852701E+02  0.31223279338E+03  0.13853454338E+03  0.37388819981E+03  0.12700000000E+03 0.  0.
<mgrwt>
<rscale>  0 0.69495078E+03</rscale>
<asrwt>0</asrwt>
<pdfrwt beam="1">  1        2 0.32520207E-01 0.69495078E+03</pdfrwt>
<pdfrwt beam="2">  1       -2 0.75770250E-01 0.69495078E+03</pdfrwt>
<totfact> 0.25600054E+02</totfact>
</mgrwt>
</event>
<event>
 4    1  0.1399921E-004  0.4364968E+03  0.7818608E-02  0.1031827E+00
         -2   -1    0    0    0  501 -0.00000000000E+00  0.00000000000E+00  0.36282809568E+03  0.36282809568E+03  0.25500000000E-02 0. -1.
          2   -1    0    0  501    0  0.00000000000E+00 -0.00000000000E+00 -0.13128077910E+03  0.13128077912E+03  0.25500000000E-02 0.  1.
    5000001    1    1    2    0    0  0.10571581885E+03 -0.72380511913E+02 -0.23274694452E+02  0.18189415676E+03  0.12700000000E+03 0.  0.
   -5000001    1    1    2    0    0 -0.10571581885E+03  0.72380511913E+02  0.25482201103E+03  0.31221471805E+03  0.12700000000E+03 0.  0.
<mgrwt>
<rscale>  0 0.43649676E+03</rscale>
<asrwt>0</asrwt>
<pdfrwt beam="1">  1        2 0.18754397E-01 0.43649676E+03</pdfrwt>
<pdfrwt beam="2">  1       -2 0.51832586E-01 0.43649676E+03</pdfrwt>
<totfact> 0.10777634E+03</totfact>
</mgrwt>
</event>
<event>
 4    1  0.1399921E-004  0.3230443E+03  0.7818608E-02  0.1074257E+00
          2   -1    0    0  501    0  0.00000000000E+00  0.00000000000E+00  0.23788877617E+03  0.23788877618E+03  0.25500000000E-02 0.  1.
         -2   -1    0    0    0  501 -0.00000000000E+00 -0.00000000000E+00 -0.10967058128E+03  0.10967058131E+03  0.25500000000E-02 0. -1.
    5000001    1    1    2    0    0 -0.69443479063E+02 -0.66597434065E+02  0.35587207827E+02  0.16325766251E+03  0.12700000000E+03 0.  0.
   -5000001    1    1    2    0    0  0.69443479063E+02  0.66597434065E+02  0.92630987056E+02  0.18430169498E+03  0.12700000000E+03 0.  0.
<mgrwt>
<rscale>  0 0.32304427E+03</rscale>
<asrwt>0</asrwt>
<pdfrwt beam="1">  1        2 0.33984110E-01 0.32304427E+03</pdfrwt>
<pdfrwt beam="2">  1       -2 0.15667226E-01 0.32304427E+03</pdfrwt>
<totfact> 0.48659990E+03</totfact>
</mgrwt>
</event>
<event>
 4    1  0.1399921E-004  0.1111134E+04  0.7818608E-02  0.9194408E-01
          2   -1    0    0  501    0  0.00000000000E+00  0.00000000000E+00  0.23672729161E+04  0.23672729161E+04  0.25500000000E-02 0.  1.
         -2   -1    0    0    0  501 -0.00000000000E+00 -0.00000000000E+00 -0.13038400863E+03  0.13038400866E+03  0.25500000000E-02 0. -1.
    5000001    1    1    2    0    0 -0.92379778040E+02  0.48053940540E+03  0.16362955125E+04  0.17126132511E+04  0.12700000000E+03 0.  0.
   -5000001    1    1    2    0    0  0.92379778040E+02 -0.48053940540E+03  0.60059339500E+03  0.78504367372E+03  0.12700000000E+03 0.  0.
<mgrwt>
<rscale>  0 0.11111337E+04</rscale>
<asrwt>0</asrwt>
<pdfrwt beam="1">  1        2 0.33818183E+00 0.11111337E+04</pdfrwt>
<pdfrwt beam="2">  1       -2 0.18626288E-01 0.11111337E+04</pdfrwt>
<totfact> 0.12490765E+02</totfact>
</mgrwt>
</event>
<event>
 4    1  0.1399921E-004  0.3301027E+03  0.7818608E-02  0.1071091E+00
          2   -1    0    0  501    0  0.00000000000E+00  0.00000000000E+00  0.24122969982E+02  0.24122970117E+02  0.25500000000E-02 0.  1.
         -2   -1    0    0    0  501 -0.00000000000E+00 -0.00000000000E+00 -0.11292946454E+04  0.11292946454E+04  0.25500000000E-02 0. -1.
    5000001    1    1    2    0    0  0.87195305699E+02  0.49954432707E+02 -0.44129534371E+03  0.47007344858E+03  0.12700000000E+03 0.  0.
   -5000001    1    1    2    0    0 -0.87195305699E+02 -0.49954432707E+02 -0.66387633167E+03  0.68334416690E+03  0.12700000000E+03 0.  0.
<mgrwt>
<rscale>  0 0.33010266E+03</rscale>
<asrwt>0</asrwt>
<pdfrwt beam="1">  1        2 0.34461393E-02 0.33010266E+03</pdfrwt>
<pdfrwt beam="2">  1       -2 0.16132777E+00 0.33010266E+03</pdfrwt>
<totfact> 0.68255006E+02</totfact>
</mgrwt>
</event>
<event>
 4    1  0.1399921E-004  0.2829059E+03  0.7818608E-02  0.1094112E+00
         -2   -1    0    0    0  501 -0.00000000000E+00  0.00000000000E+00  0.23810998279E+02  0.23810998416E+02  0.25500000000E-02 0. -1.
          2   -1    0    0  501    0  0.00000000000E+00 -0.00000000000E+00 -0.84032350332E+03  0.84032350332E+03  0.25500000000E-02 0.  1.
    5000001    1    1    2    0    0 -0.13555484310E+01  0.60508814601E+02 -0.45322971307E+03  0.47456224772E+03  0.12700000000E+03 0.  0.
   -5000001    1    1    2    0    0  0.13555484310E+01 -0.60508814601E+02 -0.36328279197E+03  0.38957225401E+03  0.12700000000E+03 0.  0.
<mgrwt>
<rscale>  0 0.28290593E+03</rscale>
<asrwt>0</asrwt>
<pdfrwt beam="1">  1        2 0.12004620E+00 0.28290593E+03</pdfrwt>
<pdfrwt beam="2">  1       -2 0.34015717E-02 0.28290593E+03</pdfrwt>
<totfact> 0.12822632E+04</totfact>
</mgrwt>
</event>
<event>
 4    1  0.1399921E-004  0.4756783E+03  0.7818608E-02  0.1020330E+00
          2   -1    0    0  501    0  0.00000000000E+00  0.00000000000E+00  0.80105196785E+03  0.80105196786E+03  0.25500000000E-02 0. -1.
         -2   -1    0    0    0  501 -0.00000000000E+00 -0.00000000000E+00 -0.70616464560E+02  0.70616464606E+02  0.25500000000E-02 0.  1.
    5000001    1    1    2    0    0  0.12252413989E+03 -0.14670917381E+03  0.25073996893E+03  0.33990480808E+03  0.12700000000E+03 0.  0.
   -5000001    1    1    2    0    0 -0.12252413989E+03  0.14670917381E+03  0.47969553436E+03  0.53176362438E+03  0.12700000000E+03 0.  0.
<mgrwt>
<rscale>  0 0.47567829E+03</rscale>
<asrwt>0</asrwt>
<pdfrwt beam="1">  1        2 0.11443599E+00 0.47567829E+03</pdfrwt>
<pdfrwt beam="2">  1       -2 0.10088067E-01 0.47567829E+03</pdfrwt>
<totfact> 0.25597457E+03</totfact>
</mgrwt>
</event>
<event>
 4    1  0.1399921E-004  0.5607774E+03  0.7818608E-02  0.9990297E-01
         -2   -1    0    0    0  501 -0.00000000000E+00  0.00000000000E+00  0.37633757821E+03  0.37633757822E+03  0.25500000000E-02 0. -1.
          2   -1    0    0  501    0  0.00000000000E+00 -0.00000000000E+00 -0.20890238343E+03  0.20890238345E+03  0.25500000000E-02 0.  1.
    5000001    1    1    2    0    0 -0.21307572383E+02 -0.24898763257E+03  0.77120180420E+02  0.29073248191E+03  0.12700000000E+03 0.  0.
   -5000001    1    1    2    0    0  0.21307572383E+02  0.24898763257E+03  0.90315014358E+02  0.29450747975E+03  0.12700000000E+03 0.  0.
<mgrwt>
<rscale>  0 0.56077738E+03</rscale>
<asrwt>0</asrwt>
<pdfrwt beam="1">  1        2 0.29843198E-01 0.56077738E+03</pdfrwt>
<pdfrwt beam="2">  1       -2 0.53762511E-01 0.56077738E+03</pdfrwt>
<totfact> 0.58770631E+02</totfact>
</mgrwt>
</event>
<event>
 4    1  0.1399921E-004  0.5310126E+03  0.7818608E-02  0.1005987E+00
         -2   -1    0    0    0  501 -0.00000000000E+00  0.00000000000E+00  0.84063305349E+02  0.84063305387E+02  0.25500000000E-02 0. -1.
          2   -1    0    0  501    0  0.00000000000E+00 -0.00000000000E+00 -0.83857746157E+03  0.83857746158E+03  0.25500000000E-02 0.  1.
    5000001    1    1    2    0    0  0.14537847744E+03 -0.13361931936E+03 -0.16180860586E+03  0.28513163476E+03  0.12700000000E+03 0.  0.
   -5000001    1    1    2    0    0 -0.14537847744E+03  0.13361931936E+03 -0.59270555036E+03  0.63750913220E+03  0.12700000000E+03 0.  0.
<mgrwt>
<rscale>  0 0.53101259E+03</rscale>
<asrwt>0</asrwt>
<pdfrwt beam="1">  1        2 0.11979678E+00 0.53101259E+03</pdfrwt>
<pdfrwt beam="2">  1       -2 0.12009044E-01 0.53101259E+03</pdfrwt>
<totfact> 0.18180270E+03</totfact>
</mgrwt>
</event>
<event>
 4    1  0.1399921E-004  0.2816439E+03  0.7818608E-02  0.1094794E+00
          2   -1    0    0  501    0  0.00000000000E+00  0.00000000000E+00  0.51695936860E+02  0.51695936923E+02  0.25500000000E-02 0.  1.
         -2   -1    0    0    0  501 -0.00000000000E+00 -0.00000000000E+00 -0.38360502464E+03  0.38360502465E+03  0.25500000000E-02 0. -1.
    5000001    1    1    2    0    0 -0.24971685113E+02 -0.52634305964E+02 -0.13883576720E+03  0.19697290543E+03  0.12700000000E+03 0.  0.
   -5000001    1    1    2    0    0  0.24971685113E+02  0.52634305964E+02 -0.19307332058E+03  0.23832805614E+03  0.12700000000E+03 0.  0.
<mgrwt>
<rscale>  0 0.28164390E+03</rscale>
<asrwt>0</asrwt>
<pdfrwt beam="1">  1        2 0.73851341E-02 0.28164390E+03</pdfrwt>
<pdfrwt beam="2">  1       -2 0.54800716E-01 0.28164390E+03</pdfrwt>
<totfact> 0.29989725E+03</totfact>
</mgrwt>
</event>
<event>
 4    1  0.1399921E-004  0.4704668E+03  0.7818608E-02  0.1021789E+00
          2   -1    0    0  501    0  0.00000000000E+00  0.00000000000E+00  0.41934744987E+03  0.41934744988E+03  0.25500000000E-02 0.  1.
         -2   -1    0    0    0  501 -0.00000000000E+00 -0.00000000000E+00 -0.13195443068E+03  0.13195443071E+03  0.25500000000E-02 0. -1.
    5000001    1    1    2    0    0  0.18682257921E+03  0.60951543957E+02  0.17211129774E+03  0.29046353579E+03  0.12700000000E+03 0.  0.
   -5000001    1    1    2    0    0 -0.18682257921E+03 -0.60951543957E+02  0.11528172144E+03  0.26083834479E+03  0.12700000000E+03 0.  0.
<mgrwt>
<rscale>  0 0.47046681E+03</rscale>
<asrwt>0</asrwt>
<pdfrwt beam="1">  1        2 0.59906778E-01 0.47046681E+03</pdfrwt>
<pdfrwt beam="2">  1       -2 0.18850633E-01 0.47046681E+03</pdfrwt>
<totfact> 0.19284461E+03</totfact>
</mgrwt>
</event>
<event>
 4    1  0.1399921E-004  0.7228607E+03  0.7818608E-02  0.9678917E-01
          2   -1    0    0  501    0  0.00000000000E+00  0.00000000000E+00  0.67850000526E+03  0.67850000527E+03  0.25500000000E-02 0.  1.
         -2   -1    0    0    0  501 -0.00000000000E+00 -0.00000000000E+00 -0.19253044098E+03  0.19253044100E+03  0.25500000000E-02 0. -1.
    5000001    1    1    2    0    0  0.29997609343E+03  0.15632767720E+03  0.23228109112E+03  0.42954336752E+03  0.12700000000E+03 0.  0.
   -5000001    1    1    2    0    0 -0.29997609343E+03 -0.15632767720E+03  0.25368847316E+03  0.44148707875E+03  0.12700000000E+03 0.  0.
<mgrwt>
<rscale>  0 0.72286072E+03</rscale>
<asrwt>0</asrwt>
<pdfrwt beam="1">  1        2 0.96928573E-01 0.72286072E+03</pdfrwt>
<pdfrwt beam="2">  1       -2 0.27504348E-01 0.72286072E+03</pdfrwt>
<totfact> 0.56533065E+02</totfact>
</mgrwt>
</event>
<event>
 4    1  0.1399921E-004  0.7003225E+03  0.7818608E-02  0.9716681E-01
          2   -1    0    0  501    0  0.00000000000E+00  0.00000000000E+00  0.76826377529E+03  0.76826377530E+03  0.25500000000E-02 0.  1.
         -2   -1    0    0    0  501 -0.00000000000E+00 -0.00000000000E+00 -0.15959739867E+03  0.15959739869E+03  0.25500000000E-02 0. -1.
    5000001    1    1    2    0    0 -0.23916307051E+03  0.21425319137E+03  0.22730048831E+03  0.41339801196E+03  0.12700000000E+03 0.  0.
   -5000001    1    1    2    0    0  0.23916307051E+03 -0.21425319137E+03  0.38136588832E+03  0.51446316203E+03  0.12700000000E+03 0.  0.
<mgrwt>
<rscale>  0 0.70032250E+03</rscale>
<asrwt>0</asrwt>
<pdfrwt beam="1">  1        2 0.10975197E+00 0.70032250E+03</pdfrwt>
<pdfrwt beam="2">  1       -2 0.22799628E-01 0.70032250E+03</pdfrwt>
<totfact> 0.67973258E+02</totfact>
</mgrwt>
</event>
<event>
 4    1  0.1399921E-004  0.9726158E+03  0.7818608E-02  0.9339100E-01
          2   -1    0    0  501    0  0.00000000000E+00  0.00000000000E+00  0.13387022413E+04  0.13387022413E+04  0.25500000000E-02 0.  1.
         -2   -1    0    0    0  501 -0.00000000000E+00 -0.00000000000E+00 -0.17666018087E+03  0.17666018088E+03  0.25500000000E-02 0. -1.
    5000001    1    1    2    0    0 -0.37988576659E+02 -0.46663859729E+03  0.52769031497E+03  0.71678503120E+03  0.12700000000E+03 0.  0.
   -5000001    1    1    2    0    0  0.37988576659E+02  0.46663859729E+03  0.63435174548E+03  0.79857739101E+03  0.12700000000E+03 0.  0.
<mgrwt>
<rscale>  0 0.97261581E+03</rscale>
<asrwt>0</asrwt>
<pdfrwt beam="1">  1        2 0.19124319E+00 0.97261581E+03</pdfrwt>
<pdfrwt beam="2">  1       -2 0.25237168E-01 0.97261581E+03</pdfrwt>
<totfact> 0.25118262E+02</totfact>
</mgrwt>
</event>
<event>
 4    1  0.1399921E-004  0.4359759E+03  0.7818608E-02  0.1031989E+00
          2   -1    0    0  501    0  0.00000000000E+00  0.00000000000E+00  0.82384624326E+03  0.82384624326E+03  0.25500000000E-02 0.  1.
         -2   -1    0    0    0  501 -0.00000000000E+00 -0.00000000000E+00 -0.57679152858E+02  0.57679152915E+02  0.25500000000E-02 0. -1.
    5000001    1    1    2    0    0 -0.30158929204E+02 -0.14537429553E+03  0.18760595700E+03  0.27086572672E+03  0.12700000000E+03 0.  0.
   -5000001    1    1    2    0    0  0.30158929204E+02  0.14537429553E+03  0.57856113340E+03  0.61065966945E+03  0.12700000000E+03 0.  0.
<mgrwt>
<rscale>  0 0.43597593E+03</rscale>
<asrwt>0</asrwt>
<pdfrwt beam="1">  1        2 0.11769233E+00 0.43597593E+03</pdfrwt>
<pdfrwt beam="2">  1       -2 0.82398786E-02 0.43597593E+03</pdfrwt>
<totfact> 0.34114489E+03</totfact>
</mgrwt>
</event>
<event>
 4    1  0.1399921E-004  0.5838479E+03  0.7818608E-02  0.9939495E-01
          2   -1    0    0  501    0  0.00000000000E+00  0.00000000000E+00  0.24883329724E+04  0.24883329724E+04  0.25500000000E-02 0. -1.
         -2   -1    0    0    0  501 -0.00000000000E+00 -0.00000000000E+00 -0.34247658618E+02  0.34247658713E+02  0.25500000000E-02 0.  1.
    5000001    1    1    2    0    0  0.12041214638E+03 -0.18530084363E+03  0.61213136783E+03  0.66307563606E+03  0.12700000000E+03 0.  0.
   -5000001    1    1    2    0    0 -0.12041214638E+03  0.18530084363E+03  0.18419539459E+04  0.18595049950E+04  0.12700000000E+03 0.  0.
<mgrwt>
<rscale>  0 0.58384785E+03</rscale>
<asrwt>0</asrwt>
<pdfrwt beam="1">  1        2 0.35547608E+00 0.58384785E+03</pdfrwt>
<pdfrwt beam="2">  1       -2 0.48925235E-02 0.58384785E+03</pdfrwt>
<totfact> 0.99703872E+02</totfact>
</mgrwt>
</event>
<event>
 4    1  0.1399921E-004  0.4847675E+03  0.7818608E-02  0.1017833E+00
          2   -1    0    0  501    0  0.00000000000E+00  0.00000000000E+00  0.95233468276E+03  0.95233468276E+03  0.25500000000E-02 0.  1.
         -2   -1    0    0    0  501 -0.00000000000E+00 -0.00000000000E+00 -0.61690375632E+02  0.61690375685E+02  0.25500000000E-02 0. -1.
    5000001    1    1    2    0    0  0.90391703216E+02 -0.18173304391E+03  0.36640575920E+03  0.43769822896E+03  0.12700000000E+03 0.  0.
   -5000001    1    1    2    0    0 -0.90391703216E+02  0.18173304391E+03  0.52423854793E+03  0.57632682949E+03  0.12700000000E+03 0.  0.
<mgrwt>
<rscale>  0 0.48476751E+03</rscale>
<asrwt>0</asrwt>
<pdfrwt beam="1">  1        2 0.13604781E+00 0.48476751E+03</pdfrwt>
<pdfrwt beam="2">  1       -2 0.88129111E-02 0.48476751E+03</pdfrwt>
<totfact> 0.25345458E+03</totfact>
</mgrwt>
</event>
<event>
 4    1  0.1399921E-004  0.5653661E+03  0.7818608E-02  0.9979985E-01
         -2   -1    0    0    0  501 -0.00000000000E+00  0.00000000000E+00  0.18897142545E+03  0.18897142546E+03  0.25500000000E-02 0. -1.
          2   -1    0    0  501    0  0.00000000000E+00 -0.00000000000E+00 -0.42286665005E+03  0.42286665006E+03  0.25500000000E-02 0.  1.
    5000001    1    1    2    0    0 -0.13357828439E+03  0.17190603814E+03  0.21581631971E+02  0.25296167862E+03  0.12700000000E+03 0.  0.
   -5000001    1    1    2    0    0  0.13357828439E+03 -0.17190603814E+03 -0.25547685658E+03  0.35887639691E+03  0.12700000000E+03 0.  0.
<mgrwt>
<rscale>  0 0.56536612E+03</rscale>
<asrwt>0</asrwt>
<pdfrwt beam="1">  1        2 0.60409521E-01 0.56536612E+03</pdfrwt>
<pdfrwt beam="2">  1       -2 0.26995918E-01 0.56536612E+03</pdfrwt>
<totfact> 0.10140104E+03</totfact>
</mgrwt>
</event>
<event>
 4    1  0.1399921E-004  0.4442383E+03  0.7818608E-02  0.1029454E+00
         -2   -1    0    0    0  501 -0.00000000000E+00  0.00000000000E+00  0.12017695046E+03  0.12017695049E+03  0.25500000000E-02 0. -1.
          2   -1    0    0  501    0  0.00000000000E+00 -0.00000000000E+00 -0.41053563517E+03  0.41053563518E+03  0.25500000000E-02 0.  1.
    5000001    1    1    2    0    0  0.13830690050E+03  0.57920049361E+02 -0.21462260463E+02  0.19766931848E+03  0.12700000000E+03 0.  0.
   -5000001    1    1    2    0    0 -0.13830690050E+03 -0.57920049361E+02 -0.26889642425E+03  0.33304326718E+03  0.12700000000E+03 0.  0.
<mgrwt>
<rscale>  0 0.44423832E+03</rscale>
<asrwt>0</asrwt>
<pdfrwt beam="1">  1        2 0.58647947E-01 0.44423832E+03</pdfrwt>
<pdfrwt beam="2">  1       -2 0.17168136E-01 0.44423832E+03</pdfrwt>
<totfact> 0.23147323E+03</totfact>
</mgrwt>
</event>
<event>
 4    1  0.1399921E-004  0.5867124E+03  0.7818608E-02  0.9933364E-01
         -2   -1    0    0    0  501 -0.00000000000E+00  0.00000000000E+00  0.62401633664E+02  0.62401633716E+02  0.25500000000E-02 0. -1.
          2   -1    0    0  501    0  0.00000000000E+00 -0.00000000000E+00 -0.13790963310E+04  0.13790963310E+04  0.25500000000E-02 0.  1.
    5000001    1    1    2    0    0  0.49722169602E+02  0.22626970046E+03 -0.97162558885E+03  0.10069039460E+04  0.12700000000E+03 0.  0.
   -5000001    1    1    2    0    0 -0.49722169602E+02 -0.22626970046E+03 -0.34506910845E+03  0.43459401871E+03  0.12700000000E+03 0.  0.
<mgrwt>
<rscale>  0 0.58671241E+03</rscale>
<asrwt>0</asrwt>
<pdfrwt beam="1">  1        2 0.19701374E+00 0.58671241E+03</pdfrwt>
<pdfrwt beam="2">  1       -2 0.89145199E-02 0.58671241E+03</pdfrwt>
<totfact> 0.14209450E+03</totfact>
</mgrwt>
</event>
<event>
 4    1  0.1399921E-004  0.3368521E+03  0.7818608E-02  0.1068145E+00
          2   -1    0    0  501    0  0.00000000000E+00  0.00000000000E+00  0.39377284897E+03  0.39377284898E+03  0.25500000000E-02 0.  1.
         -2   -1    0    0    0  501 -0.00000000000E+00 -0.00000000000E+00 -0.72039849162E+02  0.72039849207E+02  0.25500000000E-02 0. -1.
    5000001    1    1    2    0    0  0.71702286102E+02  0.31715832092E+02  0.52940927477E+02  0.15836304379E+03  0.12700000000E+03 0.  0.
   -5000001    1    1    2    0    0 -0.71702286102E+02 -0.31715832092E+02  0.26879207233E+03  0.30744965439E+03  0.12700000000E+03 0.  0.
<mgrwt>
<rscale>  0 0.33685211E+03</rscale>
<asrwt>0</asrwt>
<pdfrwt beam="1">  1        2 0.56253266E-01 0.33685211E+03</pdfrwt>
<pdfrwt beam="2">  1       -2 0.10291407E-01 0.33685211E+03</pdfrwt>
<totfact> 0.55971734E+03</totfact>
</mgrwt>
</event>
<event>
 4    1  0.1399921E-004  0.5098645E+03  0.7818608E-02  0.1011236E+00
         -2   -1    0    0    0  501 -0.00000000000E+00  0.00000000000E+00  0.10030570206E+03  0.10030570209E+03  0.25500000000E-02 0. -1.
          2   -1    0    0  501    0  0.00000000000E+00 -0.00000000000E+00 -0.64792381395E+03  0.64792381396E+03  0.25500000000E-02 0.  1.
    5000001    1    1    2    0    0 -0.17625004257E+03  0.52509784170E+02 -0.45378124244E+03  0.50583373843E+03  0.12700000000E+03 0.  0.
   -5000001    1    1    2    0    0  0.17625004257E+03 -0.52509784170E+02 -0.93836869453E+02  0.24239577762E+03  0.12700000000E+03 0.  0.
<mgrwt>
<rscale>  0 0.50986450E+03</rscale>
<asrwt>0</asrwt>
<pdfrwt beam="1">  1        2 0.92560542E-01 0.50986450E+03</pdfrwt>
<pdfrwt beam="2">  1       -2 0.14329386E-01 0.50986450E+03</pdfrwt>
<totfact> 0.18679986E+03</totfact>
</mgrwt>
</event>
<event>
 4    1  0.1399921E-004  0.2978249E+03  0.7818608E-02  0.1086333E+00
         -2   -1    0    0    0  501 -0.00000000000E+00  0.00000000000E+00  0.17969015530E+03  0.17969015532E+03  0.25500000000E-02 0. -1.
          2   -1    0    0  501    0  0.00000000000E+00 -0.00000000000E+00 -0.12340640054E+03  0.12340640057E+03  0.25500000000E-02 0.  1.
    5000001    1    1    2    0    0 -0.20597614299E+02  0.74804377590E+02  0.33327025717E+02  0.15251113817E+03  0.12700000000E+03 0.  0.
   -5000001    1    1    2    0    0  0.20597614299E+02 -0.74804377590E+02  0.22956729044E+02  0.15058541772E+03  0.12700000000E+03 0.  0.
<mgrwt>
<rscale>  0 0.29782488E+03</rscale>
<asrwt>0</asrwt>
<pdfrwt beam="1">  1        2 0.17629486E-01 0.29782488E+03</pdfrwt>
<pdfrwt beam="2">  1       -2 0.25670022E-01 0.29782488E+03</pdfrwt>
<totfact> 0.43519031E+03</totfact>
</mgrwt>
</event>
<event>
 4    1  0.1399921E-004  0.3159811E+03  0.7818608E-02  0.1077514E+00
          2   -1    0    0  501    0  0.00000000000E+00  0.00000000000E+00  0.34137583433E+02  0.34137583528E+02  0.25500000000E-02 0.  1.
         -2   -1    0    0    0  501 -0.00000000000E+00 -0.00000000000E+00 -0.73118879474E+03  0.73118879474E+03  0.25500000000E-02 0. -1.
    5000001    1    1    2    0    0  0.57531686443E+02 -0.33268726764E+02 -0.18758471467E+03  0.23607991932E+03  0.12700000000E+03 0.  0.
   -5000001    1    1    2    0    0 -0.57531686443E+02  0.33268726764E+02 -0.50946649663E+03  0.52924645896E+03  0.12700000000E+03 0.  0.
<mgrwt>
<rscale>  0 0.31598113E+03</rscale>
<asrwt>0</asrwt>
<pdfrwt beam="1">  1        2 0.48767981E-02 0.31598113E+03</pdfrwt>
<pdfrwt beam="2">  1       -2 0.10445553E+00 0.31598113E+03</pdfrwt>
<totfact> 0.12634025E+03</totfact>
</mgrwt>
</event>
<event>
 4    1  0.1399921E-004  0.3335902E+03  0.7818608E-02  0.1069559E+00
          2   -1    0    0  501    0  0.00000000000E+00  0.00000000000E+00  0.16403771163E+04  0.16403771163E+04  0.25500000000E-02 0.  1.
         -2   -1    0    0    0  501 -0.00000000000E+00 -0.00000000000E+00 -0.16959883394E+02  0.16959883586E+02  0.25500000000E-02 0. -1.
    5000001    1    1    2    0    0  0.28587950229E+02  0.81831698064E+02  0.11328356998E+04  0.11432232592E+04  0.12700000000E+03 0.  0.
   -5000001    1    1    2    0    0 -0.28587950229E+02 -0.81831698064E+02  0.49058153309E+03  0.51411374064E+03  0.12700000000E+03 0.  0.
<mgrwt>
<rscale>  0 0.33359020E+03</rscale>
<asrwt>0</asrwt>
<pdfrwt beam="1">  1        2 0.23433954E+00 0.33359020E+03</pdfrwt>
<pdfrwt beam="2">  1       -2 0.24228410E-02 0.33359020E+03</pdfrwt>
<totfact> 0.77467370E+03</totfact>
</mgrwt>
</event>
<event>
 4    1  0.1399921E-004  0.4305028E+03  0.7818608E-02  0.1033701E+00
         -2   -1    0    0    0  501 -0.00000000000E+00  0.00000000000E+00  0.20247567154E+03  0.20247567155E+03  0.25500000000E-02 0. -1.
          2   -1    0    0  501    0  0.00000000000E+00 -0.00000000000E+00 -0.22883326946E+03  0.22883326948E+03  0.25500000000E-02 0.  1.
    5000001    1    1    2    0    0 -0.13927202127E+03  0.10369018231E+03 -0.20664073683E+02  0.21611190101E+03  0.12700000000E+03 0.  0.
   -5000001    1    1    2    0    0  0.13927202127E+03 -0.10369018231E+03 -0.56935242433E+01  0.21519704002E+03  0.12700000000E+03 0.  0.
<mgrwt>
<rscale>  0 0.43050282E+03</rscale>
<asrwt>0</asrwt>
<pdfrwt beam="1">  1        2 0.32690467E-01 0.43050282E+03</pdfrwt>
<pdfrwt beam="2">  1       -2 0.28925096E-01 0.43050282E+03</pdfrwt>
<totfact> 0.17576594E+03</totfact>
</mgrwt>
</event>
<event>
 4    1  0.1399921E-004  0.5589856E+03  0.7818608E-02  0.9994353E-01
         -2   -1    0    0    0  501 -0.00000000000E+00  0.00000000000E+00  0.32316011841E+02  0.32316011942E+02  0.25500000000E-02 0. -1.
          2   -1    0    0  501    0  0.00000000000E+00 -0.00000000000E+00 -0.24172607957E+04  0.24172607957E+04  0.25500000000E-02 0.  1.
    5000001    1    1    2    0    0 -0.24495016686E+03 -0.29644506589E+02 -0.13383304555E+04  0.13667980060E+04  0.12700000000E+03 0.  0.
   -5000001    1    1    2    0    0  0.24495016686E+03  0.29644506589E+02 -0.10466143283E+04  0.10827788016E+04  0.12700000000E+03 0.  0.
<mgrwt>
<rscale>  0 0.55898561E+03</rscale>
<asrwt>0</asrwt>
<pdfrwt beam="1">  1        2 0.34532286E+00 0.55898561E+03</pdfrwt>
<pdfrwt beam="2">  1       -2 0.46165747E-02 0.55898561E+03</pdfrwt>
<totfact> 0.11877816E+03</totfact>
</mgrwt>
</event>
<event>
 4    1  0.1399921E-004  0.6637460E+03  0.7818608E-02  0.9781322E-01
         -2   -1    0    0    0  501 -0.00000000000E+00  0.00000000000E+00  0.53903247225E+02  0.53903247285E+02  0.25500000000E-02 0. -1.
          2   -1    0    0  501    0  0.00000000000E+00 -0.00000000000E+00 -0.20432846385E+04  0.20432846385E+04  0.25500000000E-02 0.  1.
    5000001    1    1    2    0    0  0.24139956454E+03 -0.91771798821E+02 -0.47249297878E+03  0.55323993693E+03  0.12700000000E+03 0.  0.
   -5000001    1    1    2    0    0 -0.24139956454E+03  0.91771798821E+02 -0.15168884125E+04  0.15439479489E+04  0.12700000000E+03 0.  0.
<mgrwt>
<rscale>  0 0.66374597E+03</rscale>
<asrwt>0</asrwt>
<pdfrwt beam="1">  1        2 0.29189776E+00 0.66374597E+03</pdfrwt>
<pdfrwt beam="2">  1       -2 0.77004652E-02 0.66374597E+03</pdfrwt>
<totfact> 0.81775269E+02</totfact>
</mgrwt>
</event>
<event>
 4    1  0.1399921E-004  0.4512393E+03  0.7818608E-02  0.1027353E+00
          2   -1    0    0  501    0  0.00000000000E+00  0.00000000000E+00  0.18359686822E+04  0.18359686822E+04  0.25500000000E-02 0.  1.
         -2   -1    0    0    0  501 -0.00000000000E+00 -0.00000000000E+00 -0.27726086386E+02  0.27726086503E+02  0.25500000000E-02 0. -1.
    5000001    1    1    2    0    0 -0.16479958383E+03 -0.51774289778E+02  0.61395678850E+03  0.65031639843E+03  0.12700000000E+03 0.  0.
   -5000001    1    1    2    0    0  0.16479958383E+03  0.51774289778E+02  0.11942858073E+04  0.12133783703E+04  0.12700000000E+03 0.  0.
<mgrwt>
<rscale>  0 0.45123930E+03</rscale>
<asrwt>0</asrwt>
<pdfrwt beam="1">  1        2 0.26228128E+00 0.45123930E+03</pdfrwt>
<pdfrwt beam="2">  1       -2 0.39608690E-02 0.45123930E+03</pdfrwt>
<totfact> 0.29531311E+03</totfact>
</mgrwt>
</event>
<event>
 4    1  0.1399921E-004  0.4493117E+03  0.7818608E-02  0.1027927E+00
          2   -1    0    0  501    0  0.00000000000E+00  0.00000000000E+00  0.47681992950E+03  0.47681992950E+03  0.25500000000E-02 0.  1.
         -2   -1    0    0    0  501 -0.00000000000E+00 -0.00000000000E+00 -0.10584760862E+03  0.10584760865E+03  0.25500000000E-02 0. -1.
    5000001    1    1    2    0    0  0.76574328089E+02 -0.10499954665E+03  0.14167518515E+02  0.18225874766E+03  0.12700000000E+03 0.  0.
   -5000001    1    1    2    0    0 -0.76574328089E+02  0.10499954665E+03  0.35680480236E+03  0.40040879049E+03  0.12700000000E+03 0.  0.
<mgrwt>
<rscale>  0 0.44931169E+03</rscale>
<asrwt>0</asrwt>
<pdfrwt beam="1">  1        2 0.68117134E-01 0.44931169E+03</pdfrwt>
<pdfrwt beam="2">  1       -2 0.15121087E-01 0.44931169E+03</pdfrwt>
<totfact> 0.24284021E+03</totfact>
</mgrwt>
</event>
<event>
 4    1  0.1399921E-004  0.4577513E+03  0.7818608E-02  0.1025435E+00
          2   -1    0    0  501    0  0.00000000000E+00  0.00000000000E+00  0.21266641233E+04  0.21266641233E+04  0.25500000000E-02 0.  1.
         -2   -1    0    0    0  501 -0.00000000000E+00 -0.00000000000E+00 -0.24632028808E+02  0.24632028940E+02  0.25500000000E-02 0. -1.
    5000001    1    1    2    0    0 -0.29982966759E+02 -0.15268877359E+03  0.53528438096E+03  0.57172651537E+03  0.12700000000E+03 0.  0.
   -5000001    1    1    2    0    0  0.29982966759E+02  0.15268877359E+03  0.15667477135E+04  0.15795696368E+04  0.12700000000E+03 0.  0.
<mgrwt>
<rscale>  0 0.45775125E+03</rscale>
<asrwt>0</asrwt>
<pdfrwt beam="1">  1        2 0.30380904E+00 0.45775125E+03</pdfrwt>
<pdfrwt beam="2">  1       -2 0.35188627E-02 0.45775125E+03</pdfrwt>
<totfact> 0.25336627E+03</totfact>
</mgrwt>
</event>
<event>
 4    1  0.1399921E-004  0.2847852E+03  0.7818608E-02  0.1093104E+00
         -2   -1    0    0    0  501 -0.00000000000E+00  0.00000000000E+00  0.50754643531E+02  0.50754643595E+02  0.25500000000E-02 0. -1.
          2   -1    0    0  501    0  0.00000000000E+00 -0.00000000000E+00 -0.39948373405E+03  0.39948373405E+03  0.25500000000E-02 0.  1.
    5000001    1    1    2    0    0  0.50996776795E+02  0.19193353875E+02 -0.12011155404E+03  0.18309790138E+03  0.12700000000E+03 0.  0.
   -5000001    1    1    2    0    0 -0.50996776795E+02 -0.19193353875E+02 -0.22861753647E+03  0.26714047627E+03  0.12700000000E+03 0.  0.
<mgrwt>
<rscale>  0 0.28478521E+03</rscale>
<asrwt>0</asrwt>
<pdfrwt beam="1">  1        2 0.57069103E-01 0.28478521E+03</pdfrwt>
<pdfrwt beam="2">  1       -2 0.72506636E-02 0.28478521E+03</pdfrwt>
<totfact> 0.95159686E+03</totfact>
</mgrwt>
</event>
<event>
 4    1  0.1399921E-004  0.3101792E+03  0.7818608E-02  0.1080260E+00
          2   -1    0    0  501    0  0.00000000000E+00  0.00000000000E+00  0.66771568182E+03  0.66771568182E+03  0.25500000000E-02 0.  1.
         -2   -1    0    0    0  501 -0.00000000000E+00 -0.00000000000E+00 -0.36022490096E+02  0.36022490187E+02  0.25500000000E-02 0. -1.
    5000001    1    1    2    0    0 -0.75681810680E+02 -0.31183916561E+02  0.39520989128E+03  0.42310758831E+03  0.12700000000E+03 0.  0.
   -5000001    1    1    2    0    0  0.75681810680E+02  0.31183916561E+02  0.23648330044E+03  0.28063058370E+03  0.12700000000E+03 0.  0.
<mgrwt>
<rscale>  0 0.31017918E+03</rscale>
<asrwt>0</asrwt>
<pdfrwt beam="1">  1        2 0.95387963E-01 0.31017918E+03</pdfrwt>
<pdfrwt beam="2">  1       -2 0.51460696E-02 0.31017918E+03</pdfrwt>
<totfact> 0.91045408E+03</totfact>
</mgrwt>
</event>
<event>
 4    1  0.1399921E-004  0.4648568E+03  0.7818608E-02  0.1023382E+00
          2   -1    0    0  501    0  0.00000000000E+00  0.00000000000E+00  0.12235393186E+04  0.12235393186E+04  0.25500000000E-02 0.  1.
         -2   -1    0    0    0  501 -0.00000000000E+00 -0.00000000000E+00 -0.44153029166E+02  0.44153029240E+02  0.25500000000E-02 0. -1.
    5000001    1    1    2    0    0  0.89566335008E+02 -0.17107804678E+03  0.65672229947E+03  0.69620615128E+03  0.12700000000E+03 0.  0.
   -5000001    1    1    2    0    0 -0.89566335008E+02  0.17107804678E+03  0.52266398995E+03  0.57148619655E+03  0.12700000000E+03 0.  0.
<mgrwt>
<rscale>  0 0.46485683E+03</rscale>
<asrwt>0</asrwt>
<pdfrwt beam="1">  1        2 0.17479135E+00 0.46485683E+03</pdfrwt>
<pdfrwt beam="2">  1       -2 0.63075750E-02 0.46485683E+03</pdfrwt>
<totfact> 0.29882241E+03</totfact>
</mgrwt>
</event>
<event>
 4    1  0.1399921E-004  0.6446149E+03  0.7818608E-02  0.9816937E-01
          2   -1    0    0  501    0  0.00000000000E+00  0.00000000000E+00  0.57418848056E+03  0.57418848057E+03  0.25500000000E-02 0.  1.
         -2   -1    0    0    0  501 -0.00000000000E+00 -0.00000000000E+00 -0.18091986803E+03  0.18091986805E+03  0.25500000000E-02 0. -1.
    5000001    1    1    2    0    0  0.22396769048E+03  0.11952356033E+03  0.17804482462E+02  0.28441766375E+03  0.12700000000E+03 0.  0.
   -5000001    1    1    2    0    0 -0.22396769048E+03 -0.11952356033E+03  0.37546413007E+03  0.47069068487E+03  0.12700000000E+03 0.  0.
<mgrwt>
<rscale>  0 0.64461494E+03</rscale>
<asrwt>0</asrwt>
<pdfrwt beam="1">  1        2 0.82026927E-01 0.64461494E+03</pdfrwt>
<pdfrwt beam="2">  1       -2 0.25845695E-01 0.64461494E+03</pdfrwt>
<totfact> 0.77389211E+02</totfact>
</mgrwt>
</event>
<event>
 4    1  0.1399921E-004  0.5537891E+03  0.7818608E-02  0.1000621E+00
         -2   -1    0    0    0  501 -0.00000000000E+00  0.00000000000E+00  0.19881325647E+02  0.19881325811E+02  0.25500000000E-02 0. -1.
          2   -1    0    0  501    0  0.00000000000E+00 -0.00000000000E+00 -0.38564130342E+04  0.38564130342E+04  0.25500000000E-02 0.  1.
    5000001    1    1    2    0    0  0.34336981770E+02 -0.10019644788E+03 -0.36373930875E+03  0.39956681696E+03  0.12700000000E+03 0.  0.
   -5000001    1    1    2    0    0 -0.34336981770E+02  0.10019644788E+03 -0.34727923998E+04  0.34767275430E+04  0.12700000000E+03 0.  0.
<mgrwt>
<rscale>  0 0.55378914E+03</rscale>
<asrwt>0</asrwt>
<pdfrwt beam="1">  1        2 0.55091567E+00 0.55378914E+03</pdfrwt>
<pdfrwt beam="2">  1       -2 0.28401918E-02 0.55378914E+03</pdfrwt>
<totfact> 0.38878923E+02</totfact>
</mgrwt>
</event>
<event>
 4    1  0.1399921E-004  0.6014793E+03  0.7818608E-02  0.9902342E-01
          2   -1    0    0  501    0  0.00000000000E+00  0.00000000000E+00  0.47944903203E+03  0.47944903204E+03  0.25500000000E-02 0. -1.
         -2   -1    0    0    0  501 -0.00000000000E+00 -0.00000000000E+00 -0.18864226344E+03  0.18864226346E+03  0.25500000000E-02 0.  1.
    5000001    1    1    2    0    0  0.17108463419E+03 -0.12701651218E+03 -0.43463448074E+02  0.25183569593E+03  0.12700000000E+03 0.  0.
   -5000001    1    1    2    0    0 -0.17108463419E+03  0.12701651218E+03  0.33427021667E+03  0.41625559957E+03  0.12700000000E+03 0.  0.
<mgrwt>
<rscale>  0 0.60147934E+03</rscale>
<asrwt>0</asrwt>
<pdfrwt beam="1">  1        2 0.68492719E-01 0.60147934E+03</pdfrwt>
<pdfrwt beam="2">  1       -2 0.26948895E-01 0.60147934E+03</pdfrwt>
<totfact> 0.88323368E+02</totfact>
</mgrwt>
</event>
<event>
 4    1  0.1399921E-004  0.4377658E+03  0.7818608E-02  0.1031435E+00
          2   -1    0    0  501    0  0.00000000000E+00  0.00000000000E+00  0.22305935434E+04  0.22305935434E+04  0.25500000000E-02 0.  1.
         -2   -1    0    0    0  501 -0.00000000000E+00 -0.00000000000E+00 -0.21478465197E+02  0.21478465348E+02  0.25500000000E-02 0. -1.
    5000001    1    1    2    0    0 -0.43843745635E+02 -0.65478619370E+02  0.28190904009E+03  0.31907903489E+03  0.12700000000E+03 0.  0.
   -5000001    1    1    2    0    0  0.43843745635E+02  0.65478619370E+02  0.19272060382E+04  0.19329929739E+04  0.12700000000E+03 0.  0.
<mgrwt>
<rscale>  0 0.43776581E+03</rscale>
<asrwt>0</asrwt>
<pdfrwt beam="1">  1        2 0.31865602E+00 0.43776581E+03</pdfrwt>
<pdfrwt beam="2">  1       -2 0.30683541E-02 0.43776581E+03</pdfrwt>
<totfact> 0.27695152E+03</totfact>
</mgrwt>
</event>
<event>
 4    1  0.1399921E-004  0.3845115E+03  0.7818608E-02  0.1049279E+00
          2   -1    0    0  501    0  0.00000000000E+00  0.00000000000E+00  0.12914522021E+04  0.12914522021E+04  0.25500000000E-02 0.  1.
         -2   -1    0    0    0  501 -0.00000000000E+00 -0.00000000000E+00 -0.28620711628E+02  0.28620711741E+02  0.25500000000E-02 0. -1.
    5000001    1    1    2    0    0 -0.61124764343E+02  0.79154807326E+02  0.27411488468E+03  0.31822899042E+03  0.12700000000E+03 0.  0.
   -5000001    1    1    2    0    0  0.61124764343E+02 -0.79154807326E+02  0.98871660580E+03  0.10018439234E+04  0.12700000000E+03 0.  0.
<mgrwt>
<rscale>  0 0.38451154E+03</rscale>
<asrwt>0</asrwt>
<pdfrwt beam="1">  1        2 0.18449321E+00 0.38451154E+03</pdfrwt>
<pdfrwt beam="2">  1       -2 0.40886722E-02 0.38451154E+03</pdfrwt>
<totfact> 0.53457376E+03</totfact>
</mgrwt>
</event>
<event>
 4    1  0.1399921E-004  0.3999410E+03  0.7818608E-02  0.1043800E+00
         -2   -1    0    0    0  501 -0.00000000000E+00  0.00000000000E+00  0.24329760821E+02  0.24329760954E+02  0.25500000000E-02 0. -1.
          2   -1    0    0  501    0  0.00000000000E+00 -0.00000000000E+00 -0.16435920285E+04  0.16435920285E+04  0.25500000000E-02 0.  1.
    5000001    1    1    2    0    0  0.13325563770E+03  0.56226371911E+01 -0.11345633501E+04  0.11494136220E+04  0.12700000000E+03 0.  0.
   -5000001    1    1    2    0    0 -0.13325563770E+03 -0.56226371911E+01 -0.48469891759E+03  0.51850816748E+03  0.12700000000E+03 0.  0.
<mgrwt>
<rscale>  0 0.39994100E+03</rscale>
<asrwt>0</asrwt>
<pdfrwt beam="1">  1        2 0.23479879E+00 0.39994100E+03</pdfrwt>
<pdfrwt beam="2">  1       -2 0.34756812E-02 0.39994100E+03</pdfrwt>
<totfact> 0.44983307E+03</totfact>
</mgrwt>
</event>
<event>
 4    1  0.1399921E-004  0.2833246E+03  0.7818608E-02  0.1093887E+00
          2   -1    0    0  501    0  0.00000000000E+00  0.00000000000E+00  0.12328506978E+04  0.12328506978E+04  0.25500000000E-02 0.  1.
         -2   -1    0    0    0  501 -0.00000000000E+00 -0.00000000000E+00 -0.16277893616E+02  0.16277893815E+02  0.25500000000E-02 0. -1.
    5000001    1    1    2    0    0  0.32874030977E+02 -0.50614277151E+02  0.68422904820E+03  0.69852766399E+03  0.12700000000E+03 0.  0.
   -5000001    1    1    2    0    0 -0.32874030977E+02  0.50614277151E+02  0.53234375596E+03  0.55060092760E+03  0.12700000000E+03 0.  0.
<mgrwt>
<rscale>  0 0.28332464E+03</rscale>
<asrwt>0</asrwt>
<pdfrwt beam="1">  1        2 0.17612161E+00 0.28332464E+03</pdfrwt>
<pdfrwt beam="2">  1       -2 0.23254123E-02 0.28332464E+03</pdfrwt>
<totfact> 0.13300642E+04</totfact>
</mgrwt>
</event>
<event>
 4    1  0.1399921E-004  0.2832546E+03  0.7818608E-02  0.1093925E+00
          2   -1    0    0  501    0  0.00000000000E+00  0.00000000000E+00  0.20516918264E+03  0.20516918266E+03  0.25500000000E-02 0.  1.
         -2   -1    0    0    0  501 -0.00000000000E+00 -0.00000000000E+00 -0.97764634608E+02  0.97764634641E+02  0.25500000000E-02 0. -1.
    5000001    1    1    2    0    0  0.28135569116E+02 -0.41802757130E+02  0.13826335141E+02  0.13732897836E+03  0.12700000000E+03 0.  0.
   -5000001    1    1    2    0    0 -0.28135569116E+02  0.41802757130E+02  0.93578212894E+02  0.16560483894E+03  0.12700000000E+03 0.  0.
<mgrwt>
<rscale>  0 0.28325459E+03</rscale>
<asrwt>0</asrwt>
<pdfrwt beam="1">  1        2 0.29309883E-01 0.28325459E+03</pdfrwt>
<pdfrwt beam="2">  1       -2 0.13966377E-01 0.28325459E+03</pdfrwt>
<totfact> 0.68910038E+03</totfact>
</mgrwt>
</event>
<event>
 4    1  0.1399921E-004  0.3550269E+03  0.7818608E-02  0.1060571E+00
          2   -1    0    0  501    0  0.00000000000E+00  0.00000000000E+00  0.15679170063E+02  0.15679170270E+02  0.25500000000E-02 0.  1.
         -2   -1    0    0    0  501 -0.00000000000E+00 -0.00000000000E+00 -0.20097380963E+04  0.20097380963E+04  0.25500000000E-02 0. -1.
    5000001    1    1    2    0    0  0.11329303035E+03  0.25796995340E+02 -0.74958702816E+03  0.76909720354E+03  0.12700000000E+03 0.  0.
   -5000001    1    1    2    0    0 -0.11329303035E+03 -0.25796995340E+02 -0.12444718981E+04  0.12563200631E+04  0.12700000000E+03 0.  0.
<mgrwt>
<rscale>  0 0.35502690E+03</rscale>
<asrwt>0</asrwt>
<pdfrwt beam="1">  1        2 0.22398827E-02 0.35502690E+03</pdfrwt>
<pdfrwt beam="2">  1       -2 0.28710528E+00 0.35502690E+03</pdfrwt>
<totfact> 0.20315523E+02</totfact>
</mgrwt>
</event>
<event>
 4    1  0.1399921E-004  0.3736658E+03  0.7818608E-02  0.1053300E+00
          2   -1    0    0  501    0  0.00000000000E+00  0.00000000000E+00  0.17125744277E+04  0.17125744277E+04  0.25500000000E-02 0.  1.
         -2   -1    0    0    0  501 -0.00000000000E+00 -0.00000000000E+00 -0.20382494263E+02  0.20382494422E+02  0.25500000000E-02 0. -1.
    5000001    1    1    2    0    0 -0.10599228341E+03  0.13880830455E+02  0.44848099314E+03  0.47821673204E+03  0.12700000000E+03 0.  0.
   -5000001    1    1    2    0    0  0.10599228341E+03 -0.13880830455E+02  0.12437109403E+04  0.12547401901E+04  0.12700000000E+03 0.  0.
<mgrwt>
<rscale>  0 0.37366583E+03</rscale>
<asrwt>0</asrwt>
<pdfrwt beam="1">  1        2 0.24465361E+00 0.37366583E+03</pdfrwt>
<pdfrwt beam="2">  1       -2 0.29117835E-02 0.37366583E+03</pdfrwt>
<totfact> 0.54228105E+03</totfact>
</mgrwt>
</event>
<event>
 4    1  0.1399921E-004  0.4478044E+03  0.7818608E-02  0.1028379E+00
          2   -1    0    0  501    0  0.00000000000E+00  0.00000000000E+00  0.19682576079E+04  0.19682576079E+04  0.25500000000E-02 0.  1.
         -2   -1    0    0    0  501 -0.00000000000E+00 -0.00000000000E+00 -0.25470345944E+02  0.25470346072E+02  0.25500000000E-02 0. -1.
    5000001    1    1    2    0    0  0.93674530895E+01  0.15967782453E+03  0.13798949494E+04  0.13949278936E+04  0.12700000000E+03 0.  0.
   -5000001    1    1    2    0    0 -0.93674530895E+01 -0.15967782453E+03  0.56289231248E+03  0.59880006035E+03  0.12700000000E+03 0.  0.
<mgrwt>
<rscale>  0 0.44780443E+03</rscale>
<asrwt>0</asrwt>
<pdfrwt beam="1">  1        2 0.28117975E+00 0.44780443E+03</pdfrwt>
<pdfrwt beam="2">  1       -2 0.36386197E-02 0.44780443E+03</pdfrwt>
<totfact> 0.28878862E+03</totfact>
</mgrwt>
</event>
<event>
 4    1  0.1399921E-004  0.4609663E+03  0.7818608E-02  0.1024501E+00
         -2   -1    0    0    0  501 -0.00000000000E+00  0.00000000000E+00  0.29526744607E+02  0.29526744717E+02  0.25500000000E-02 0. -1.
          2   -1    0    0  501    0  0.00000000000E+00 -0.00000000000E+00 -0.17991311174E+04  0.17991311174E+04  0.25500000000E-02 0.  1.
    5000001    1    1    2    0    0 -0.34345921118E+02  0.18614842670E+03 -0.10200653565E+04  0.10452240002E+04  0.12700000000E+03 0.  0.
   -5000001    1    1    2    0    0  0.34345921118E+02 -0.18614842670E+03 -0.74953901627E+03  0.78343386190E+03  0.12700000000E+03 0.  0.
<mgrwt>
<rscale>  0 0.46096631E+03</rscale>
<asrwt>0</asrwt>
<pdfrwt beam="1">  1        2 0.25701866E+00 0.46096631E+03</pdfrwt>
<pdfrwt beam="2">  1       -2 0.42181075E-02 0.46096631E+03</pdfrwt>
<totfact> 0.27979875E+03</totfact>
</mgrwt>
</event>
<event>
 4    1  0.1399921E-004  0.3370442E+03  0.7818608E-02  0.1068062E+00
          2   -1    0    0  501    0  0.00000000000E+00  0.00000000000E+00  0.10097316267E+04  0.10097316267E+04  0.25500000000E-02 0.  1.
         -2   -1    0    0    0  501 -0.00000000000E+00 -0.00000000000E+00 -0.28125990083E+02  0.28125990199E+02  0.25500000000E-02 0. -1.
    5000001    1    1    2    0    0 -0.25829017581E+02 -0.69089248678E+02  0.23631391344E+03  0.27823322612E+03  0.12700000000E+03 0.  0.
   -5000001    1    1    2    0    0  0.25829017581E+02  0.69089248678E+02  0.74529172314E+03  0.75962439074E+03  0.12700000000E+03 0.  0.
<mgrwt>
<rscale>  0 0.33704422E+03</rscale>
<asrwt>0</asrwt>
<pdfrwt beam="1">  1        2 0.14424739E+00 0.33704422E+03</pdfrwt>
<pdfrwt beam="2">  1       -2 0.40179982E-02 0.33704422E+03</pdfrwt>
<totfact> 0.78785951E+03</totfact>
</mgrwt>
</event>
<event>
 4    1  0.1399921E-004  0.3621356E+03  0.7818608E-02  0.1057741E+00
          2   -1    0    0  501    0  0.00000000000E+00  0.00000000000E+00  0.25665396725E+03  0.25665396727E+03  0.25500000000E-02 0.  1.
         -2   -1    0    0    0  501 -0.00000000000E+00 -0.00000000000E+00 -0.12774223249E+03  0.12774223251E+03  0.25500000000E-02 0. -1.
    5000001    1    1    2    0    0 -0.97692827095E+02  0.83163768403E+02  0.79333498173E+02  0.19718748635E+03  0.12700000000E+03 0.  0.
   -5000001    1    1    2    0    0  0.97692827095E+02 -0.83163768403E+02  0.49578236591E+02  0.18720871343E+03  0.12700000000E+03 0.  0.
<mgrwt>
<rscale>  0 0.36213561E+03</rscale>
<asrwt>0</asrwt>
<pdfrwt beam="1">  1        2 0.36664852E-01 0.36213561E+03</pdfrwt>
<pdfrwt beam="2">  1       -2 0.18248890E-01 0.36213561E+03</pdfrwt>
<totfact> 0.34743003E+03</totfact>
</mgrwt>
</event>
<event>
 4    1  0.1399921E-004  0.4858014E+03  0.7818608E-02  0.1017553E+00
          2   -1    0    0  501    0  0.00000000000E+00  0.00000000000E+00  0.29333779211E+04  0.29333779211E+04  0.25500000000E-02 0.  1.
         -2   -1    0    0    0  501 -0.00000000000E+00 -0.00000000000E+00 -0.20113588420E+02  0.20113588581E+02  0.25500000000E-02 0. -1.
    5000001    1    1    2    0    0 -0.17448466752E+03  0.53764424480E+02  0.86293412527E+03  0.89113400625E+03  0.12700000000E+03 0.  0.
   -5000001    1    1    2    0    0  0.17448466752E+03 -0.53764424480E+02  0.20503302074E+04  0.20623575034E+04  0.12700000000E+03 0.  0.
<mgrwt>
<rscale>  0 0.48580143E+03</rscale>
<asrwt>0</asrwt>
<pdfrwt beam="1">  1        2 0.41905398E+00 0.48580143E+03</pdfrwt>
<pdfrwt beam="2">  1       -2 0.28733699E-02 0.48580143E+03</pdfrwt>
<totfact> 0.13269923E+03</totfact>
</mgrwt>
</event>
<event>
 4    1  0.1399921E-004  0.3913108E+03  0.7818608E-02  0.1046831E+00
          2   -1    0    0  501    0  0.00000000000E+00  0.00000000000E+00  0.28679723725E+03  0.28679723726E+03  0.25500000000E-02 0.  1.
         -2   -1    0    0    0  501 -0.00000000000E+00 -0.00000000000E+00 -0.13347770429E+03  0.13347770432E+03  0.25500000000E-02 0. -1.
    5000001    1    1    2    0    0  0.11977608708E+03  0.76071159443E+02  0.28401741648E+02  0.19253257196E+03  0.12700000000E+03 0.  0.
   -5000001    1    1    2    0    0 -0.11977608708E+03 -0.76071159443E+02  0.12491779131E+03  0.22774236962E+03  0.12700000000E+03 0.  0.
<mgrwt>
<rscale>  0 0.39131081E+03</rscale>
<asrwt>0</asrwt>
<pdfrwt beam="1">  1        2 0.40971033E-01 0.39131081E+03</pdfrwt>
<pdfrwt beam="2">  1       -2 0.19068244E-01 0.39131081E+03</pdfrwt>
<totfact> 0.28597068E+03</totfact>
</mgrwt>
</event>
<event>
 4    1  0.1399921E-004  0.4183057E+03  0.7818608E-02  0.1037619E+00
         -2   -1    0    0    0  501 -0.00000000000E+00  0.00000000000E+00  0.22949319116E+03  0.22949319117E+03  0.25500000000E-02 0. -1.
          2   -1    0    0  501    0  0.00000000000E+00 -0.00000000000E+00 -0.19061534917E+03  0.19061534919E+03  0.25500000000E-02 0.  1.
    5000001    1    1    2    0    0  0.16231979279E+03 -0.34097338472E+02  0.29758473641E+02  0.21100926609E+03  0.12700000000E+03 0.  0.
   -5000001    1    1    2    0    0 -0.16231979279E+03  0.34097338472E+02  0.91193683419E+01  0.20909927427E+03  0.12700000000E+03 0.  0.
<mgrwt>
<rscale>  0 0.41830575E+03</rscale>
<asrwt>0</asrwt>
<pdfrwt beam="1">  1        2 0.27230764E-01 0.41830575E+03</pdfrwt>
<pdfrwt beam="2">  1       -2 0.32784742E-01 0.41830575E+03</pdfrwt>
<totfact> 0.17099785E+03</totfact>
</mgrwt>
</event>
<event>
 4    1  0.1399921E-004  0.3823484E+03  0.7818608E-02  0.1050069E+00
          2   -1    0    0  501    0  0.00000000000E+00  0.00000000000E+00  0.10452301132E+04  0.10452301132E+04  0.25500000000E-02 0.  1.
         -2   -1    0    0    0  501 -0.00000000000E+00 -0.00000000000E+00 -0.34966049397E+02  0.34966049490E+02  0.25500000000E-02 0. -1.
    5000001    1    1    2    0    0  0.73758019235E+02  0.12057544776E+03  0.44587875309E+03  0.48468087074E+03  0.12700000000E+03 0.  0.
   -5000001    1    1    2    0    0 -0.73758019235E+02 -0.12057544776E+03  0.56438531073E+03  0.59551529198E+03  0.12700000000E+03 0.  0.
<mgrwt>
<rscale>  0 0.38234836E+03</rscale>
<asrwt>0</asrwt>
<pdfrwt beam="1">  1        2 0.14931860E+00 0.38234836E+03</pdfrwt>
<pdfrwt beam="2">  1       -2 0.49951495E-02 0.38234836E+03</pdfrwt>
<totfact> 0.54021482E+03</totfact>
</mgrwt>
</event>
<event>
 4    1  0.1399921E-004  0.4929196E+03  0.7818608E-02  0.1015644E+00
          2   -1    0    0  501    0  0.00000000000E+00  0.00000000000E+00  0.27148471972E+04  0.27148471972E+04  0.25500000000E-02 0.  1.
         -2   -1    0    0    0  501 -0.00000000000E+00 -0.00000000000E+00 -0.22374163786E+02  0.22374163931E+02  0.25500000000E-02 0. -1.
    5000001    1    1    2    0    0 -0.32787544149E+02  0.19278438764E+03  0.17895305740E+04  0.18046577289E+04  0.12700000000E+03 0.  0.
   -5000001    1    1    2    0    0  0.32787544149E+02 -0.19278438764E+03  0.90294245948E+03  0.93256363230E+03  0.12700000000E+03 0.  0.
<mgrwt>
<rscale>  0 0.49291961E+03</rscale>
<asrwt>0</asrwt>
<pdfrwt beam="1">  1        2 0.38783581E+00 0.49291961E+03</pdfrwt>
<pdfrwt beam="2">  1       -2 0.31963051E-02 0.49291961E+03</pdfrwt>
<totfact> 0.14721010E+03</totfact>
</mgrwt>
</event>
<event>
 4    1  0.1399921E-004  0.3732631E+03  0.7818608E-02  0.1053452E+00
         -2   -1    0    0    0  501 -0.00000000000E+00  0.00000000000E+00  0.20190964025E+02  0.20190964186E+02  0.25500000000E-02 0. -1.
          2   -1    0    0  501    0  0.00000000000E+00 -0.00000000000E+00 -0.17250950464E+04  0.17250950464E+04  0.25500000000E-02 0.  1.
    5000001    1    1    2    0    0  0.94380490645E+02  0.13281612361E+02 -0.13110157577E+04  0.13205966058E+04  0.12700000000E+03 0.  0.
   -5000001    1    1    2    0    0 -0.94380490645E+02 -0.13281612361E+02 -0.39388832459E+03  0.42468940473E+03  0.12700000000E+03 0.  0.
<mgrwt>
<rscale>  0 0.37326308E+03</rscale>
<asrwt>0</asrwt>
<pdfrwt beam="1">  1        2 0.24644206E+00 0.37326308E+03</pdfrwt>
<pdfrwt beam="2">  1       -2 0.28844245E-02 0.37326308E+03</pdfrwt>
<totfact> 0.54216241E+03</totfact>
</mgrwt>
</event>
<event>
 4    1  0.1399921E-004  0.6562324E+03  0.7818608E-02  0.9795154E-01
         -2   -1    0    0    0  501 -0.00000000000E+00  0.00000000000E+00  0.58010522612E+02  0.58010522668E+02  0.25500000000E-02 0. -1.
          2   -1    0    0  501    0  0.00000000000E+00 -0.00000000000E+00 -0.18558740830E+04  0.18558740830E+04  0.25500000000E-02 0.  1.
    5000001    1    1    2    0    0 -0.19496718350E+03 -0.16390044725E+03 -0.13750917501E+04  0.14042371169E+04  0.12700000000E+03 0.  0.
   -5000001    1    1    2    0    0  0.19496718350E+03  0.16390044725E+03 -0.42277181030E+03  0.50964748880E+03  0.12700000000E+03 0.  0.
<mgrwt>
<rscale>  0 0.65623235E+03</rscale>
<asrwt>0</asrwt>
<pdfrwt beam="1">  1        2 0.26512483E+00 0.65623235E+03</pdfrwt>
<pdfrwt beam="2">  1       -2 0.82872186E-02 0.65623235E+03</pdfrwt>
<totfact> 0.90442586E+02</totfact>
</mgrwt>
</event>
<event>
 4    1  0.1399921E-004  0.3035223E+03  0.7818608E-02  0.1083493E+00
         -2   -1    0    0    0  501 -0.00000000000E+00  0.00000000000E+00  0.32698475832E+02  0.32698475931E+02  0.25500000000E-02 0. -1.
          2   -1    0    0  501    0  0.00000000000E+00 -0.00000000000E+00 -0.70435834523E+03  0.70435834524E+03  0.25500000000E-02 0.  1.
    5000001    1    1    2    0    0  0.54121223927E+02  0.59895187033E+02 -0.38353341437E+03  0.41199929642E+03  0.12700000000E+03 0.  0.
   -5000001    1    1    2    0    0 -0.54121223927E+02 -0.59895187033E+02 -0.28812645503E+03  0.32505752475E+03  0.12700000000E+03 0.  0.
<mgrwt>
<rscale>  0 0.30352228E+03</rscale>
<asrwt>0</asrwt>
<pdfrwt beam="1">  1        2 0.10062261E+00 0.30352228E+03</pdfrwt>
<pdfrwt beam="2">  1       -2 0.46712113E-02 0.30352228E+03</pdfrwt>
<totfact> 0.98961047E+03</totfact>
</mgrwt>
</event>
<event>
 4    1  0.1399921E-004  0.3469712E+03  0.7818608E-02  0.1063865E+00
         -2   -1    0    0    0  501 -0.00000000000E+00  0.00000000000E+00  0.12695260115E+03  0.12695260118E+03  0.25500000000E-02 0. -1.
          2   -1    0    0  501    0  0.00000000000E+00 -0.00000000000E+00 -0.23707475397E+03  0.23707475398E+03  0.25500000000E-02 0.  1.
    5000001    1    1    2    0    0 -0.50113435777E+02 -0.61498974485E+02 -0.14697333404E+03  0.20981811463E+03  0.12700000000E+03 0.  0.
   -5000001    1    1    2    0    0  0.50113435777E+02  0.61498974485E+02  0.36851181223E+02  0.15420924053E+03  0.12700000000E+03 0.  0.
<mgrwt>
<rscale>  0 0.34697122E+03</rscale>
<asrwt>0</asrwt>
<pdfrwt beam="1">  1        2 0.33867822E-01 0.34697122E+03</pdfrwt>
<pdfrwt beam="2">  1       -2 0.18136086E-01 0.34697122E+03</pdfrwt>
<totfact> 0.38260537E+03</totfact>
</mgrwt>
</event>
<event>
 4    1  0.1399921E-004  0.3916692E+03  0.7818608E-02  0.1046703E+00
         -2   -1    0    0    0  501 -0.00000000000E+00  0.00000000000E+00  0.13059620919E+03  0.13059620921E+03  0.25500000000E-02 0. -1.
          2   -1    0    0  501    0  0.00000000000E+00 -0.00000000000E+00 -0.29366233462E+03  0.29366233463E+03  0.25500000000E-02 0.  1.
    5000001    1    1    2    0    0 -0.26424424108E+02 -0.14639770876E+03 -0.91902938720E+02  0.21611499130E+03  0.12700000000E+03 0.  0.
   -5000001    1    1    2    0    0  0.26424424108E+02  0.14639770876E+03 -0.71163186712E+02  0.20814355254E+03  0.12700000000E+03 0.  0.
<mgrwt>
<rscale>  0 0.39166919E+03</rscale>
<asrwt>0</asrwt>
<pdfrwt beam="1">  1        2 0.41951762E-01 0.39166919E+03</pdfrwt>
<pdfrwt beam="2">  1       -2 0.18656601E-01 0.39166919E+03</pdfrwt>
<totfact> 0.28930855E+03</totfact>
</mgrwt>
</event>
<event>
 4    1  0.1399921E-004  0.3970018E+03  0.7818608E-02  0.1044823E+00
          2   -1    0    0  501    0  0.00000000000E+00  0.00000000000E+00  0.21741962290E+04  0.21741962290E+04  0.25500000000E-02 0.  1.
         -2   -1    0    0    0  501 -0.00000000000E+00 -0.00000000000E+00 -0.18122836714E+02  0.18122836894E+02  0.25500000000E-02 0. -1.
    5000001    1    1    2    0    0  0.47948168026E+02  0.12443469454E+03  0.66885089670E+03  0.69373881399E+03  0.12700000000E+03 0.  0.
   -5000001    1    1    2    0    0 -0.47948168026E+02 -0.12443469454E+03  0.14872224956E+04  0.14985802519E+04  0.12700000000E+03 0.  0.
<mgrwt>
<rscale>  0 0.39700178E+03</rscale>
<asrwt>0</asrwt>
<pdfrwt beam="1">  1        2 0.31059951E+00 0.39700178E+03</pdfrwt>
<pdfrwt beam="2">  1       -2 0.25889763E-02 0.39700178E+03</pdfrwt>
<totfact> 0.38192936E+03</totfact>
</mgrwt>
</event>
<event>
 4    1  0.1399921E-004  0.5517052E+03  0.7818608E-02  0.1001100E+00
          2   -1    0    0  501    0  0.00000000000E+00  0.00000000000E+00  0.22031420688E+04  0.22031420688E+04  0.25500000000E-02 0.  1.
         -2   -1    0    0    0  501 -0.00000000000E+00 -0.00000000000E+00 -0.34539155537E+02  0.34539155631E+02  0.25500000000E-02 0. -1.
    5000001    1    1    2    0    0  0.69634119095E+02  0.86118004519E+02  0.19701354254E+04  0.19773284542E+04  0.12700000000E+03 0.  0.
   -5000001    1    1    2    0    0 -0.69634119095E+02 -0.86118004519E+02  0.19846748785E+03  0.26035277025E+03  0.12700000000E+03 0.  0.
<mgrwt>
<rscale>  0 0.55170524E+03</rscale>
<asrwt>0</asrwt>
<pdfrwt beam="1">  1        2 0.31473463E+00 0.55170524E+03</pdfrwt>
<pdfrwt beam="2">  1       -2 0.49341644E-02 0.55170524E+03</pdfrwt>
<totfact> 0.13754780E+03</totfact>
</mgrwt>
</event>
<event>
 4    1  0.1399921E-004  0.3497698E+03  0.7818608E-02  0.1062710E+00
         -2   -1    0    0    0  501 -0.00000000000E+00  0.00000000000E+00  0.42625814562E+03  0.42625814563E+03  0.25500000000E-02 0. -1.
          2   -1    0    0  501    0  0.00000000000E+00 -0.00000000000E+00 -0.71751663282E+02  0.71751663328E+02  0.25500000000E-02 0.  1.
    5000001    1    1    2    0    0 -0.34813923394E+02  0.72745938577E+02  0.30421909298E+03  0.33938508715E+03  0.12700000000E+03 0.  0.
   -5000001    1    1    2    0    0  0.34813923394E+02 -0.72745938577E+02  0.50287389357E+02  0.15862472181E+03  0.12700000000E+03 0.  0.
<mgrwt>
<rscale>  0 0.34976982E+03</rscale>
<asrwt>0</asrwt>
<pdfrwt beam="1">  1        2 0.10250238E-01 0.34976982E+03</pdfrwt>
<pdfrwt beam="2">  1       -2 0.60894020E-01 0.34976982E+03</pdfrwt>
<totfact> 0.16021794E+03</totfact>
</mgrwt>
</event>
<event>
 4    1  0.1399921E-004  0.7090207E+03  0.7818608E-02  0.9701929E-01
         -2   -1    0    0    0  501 -0.00000000000E+00  0.00000000000E+00  0.20981310421E+03  0.20981310423E+03  0.25500000000E-02 0. -1.
          2   -1    0    0  501    0  0.00000000000E+00 -0.00000000000E+00 -0.59899780653E+03  0.59899780654E+03  0.25500000000E-02 0.  1.
    5000001    1    1    2    0    0  0.30952758903E+03 -0.10968860083E+03 -0.24176002356E+03  0.42710165829E+03  0.12700000000E+03 0.  0.
   -5000001    1    1    2    0    0 -0.30952758903E+03  0.10968860083E+03 -0.14742467875E+03  0.38170925248E+03  0.12700000000E+03 0.  0.
<mgrwt>
<rscale>  0 0.70902070E+03</rscale>
<asrwt>0</asrwt>
<pdfrwt beam="1">  1        2 0.85571114E-01 0.70902070E+03</pdfrwt>
<pdfrwt beam="2">  1       -2 0.29973301E-01 0.70902070E+03</pdfrwt>
<totfact> 0.56070787E+02</totfact>
</mgrwt>
</event>
<event>
 4    1  0.1399921E-004  0.3479604E+03  0.7818608E-02  0.1063455E+00
          2   -1    0    0  501    0  0.00000000000E+00  0.00000000000E+00  0.13739807419E+03  0.13739807421E+03  0.25500000000E-02 0.  1.
         -2   -1    0    0    0  501 -0.00000000000E+00 -0.00000000000E+00 -0.22030233152E+03  0.22030233154E+03  0.25500000000E-02 0. -1.
    5000001    1    1    2    0    0 -0.74016706502E+02 -0.91981777926E+02 -0.56026272211E+02  0.18222805352E+03  0.12700000000E+03 0.  0.
   -5000001    1    1    2    0    0  0.74016706502E+02  0.91981777926E+02 -0.26877985127E+02  0.17547235223E+03  0.12700000000E+03 0.  0.
<mgrwt>
<rscale>  0 0.34796044E+03</rscale>
<asrwt>0</asrwt>
<pdfrwt beam="1">  1        2 0.19628296E-01 0.34796044E+03</pdfrwt>
<pdfrwt beam="2">  1       -2 0.31471762E-01 0.34796044E+03</pdfrwt>
<totfact> 0.26694145E+03</totfact>
</mgrwt>
</event>
<event>
 4    1  0.1399921E-004  0.3866860E+03  0.7818608E-02  0.1048490E+00
         -2   -1    0    0    0  501 -0.00000000000E+00  0.00000000000E+00  0.34336601222E+02  0.34336601316E+02  0.25500000000E-02 0. -1.
          2   -1    0    0  501    0  0.00000000000E+00 -0.00000000000E+00 -0.10886786087E+04  0.10886786087E+04  0.25500000000E-02 0.  1.
    5000001    1    1    2    0    0 -0.11977824908E+03 -0.62813855322E+02 -0.68517983406E+03  0.70985407964E+03  0.12700000000E+03 0.  0.
   -5000001    1    1    2    0    0  0.11977824908E+03  0.62813855322E+02 -0.36916217338E+03  0.41316113035E+03  0.12700000000E+03 0.  0.
<mgrwt>
<rscale>  0 0.38668604E+03</rscale>
<asrwt>0</asrwt>
<pdfrwt beam="1">  1        2 0.15552549E+00 0.38668604E+03</pdfrwt>
<pdfrwt beam="2">  1       -2 0.49052294E-02 0.38668604E+03</pdfrwt>
<totfact> 0.52425120E+03</totfact>
</mgrwt>
</event>
<event>
 4    1  0.1399921E-004  0.2973124E+03  0.7818608E-02  0.1086592E+00
         -2   -1    0    0    0  501 -0.00000000000E+00  0.00000000000E+00  0.25413822972E+02  0.25413823100E+02  0.25500000000E-02 0. -1.
          2   -1    0    0  501    0  0.00000000000E+00 -0.00000000000E+00 -0.86955272594E+03  0.86955272594E+03  0.25500000000E-02 0.  1.
    5000001    1    1    2    0    0 -0.23450148124E+02  0.73127990449E+02 -0.39651886974E+03  0.42338378157E+03  0.12700000000E+03 0.  0.
   -5000001    1    1    2    0    0  0.23450148124E+02 -0.73127990449E+02 -0.44762003322E+03  0.47158276747E+03  0.12700000000E+03 0.  0.
<mgrwt>
<rscale>  0 0.29731235E+03</rscale>
<asrwt>0</asrwt>
<pdfrwt beam="1">  1        2 0.12422180E+00 0.29731235E+03</pdfrwt>
<pdfrwt beam="2">  1       -2 0.36305467E-02 0.29731235E+03</pdfrwt>
<totfact> 0.11154251E+04</totfact>
</mgrwt>
</event>
<event>
 4    1  0.1399921E-004  0.3602248E+03  0.7818608E-02  0.1058495E+00
         -2   -1    0    0    0  501 -0.00000000000E+00  0.00000000000E+00  0.19601195382E+02  0.19601195548E+02  0.25500000000E-02 0. -1.
          2   -1    0    0  501    0  0.00000000000E+00 -0.00000000000E+00 -0.16550256653E+04  0.16550256653E+04  0.25500000000E-02 0.  1.
    5000001    1    1    2    0    0 -0.39324572823E+02 -0.10080971224E+03 -0.11330961146E+04  0.11453142909E+04  0.12700000000E+03 0.  0.
   -5000001    1    1    2    0    0  0.39324572823E+02  0.10080971224E+03 -0.50232835537E+03  0.52931256996E+03  0.12700000000E+03 0.  0.
<mgrwt>
<rscale>  0 0.36022483E+03</rscale>
<asrwt>0</asrwt>
<pdfrwt beam="1">  1        2 0.23643215E+00 0.36022483E+03</pdfrwt>
<pdfrwt beam="2">  1       -2 0.28001718E-02 0.36022483E+03</pdfrwt>
<totfact> 0.61423806E+03</totfact>
</mgrwt>
</event>
<event>
 4    1  0.1399921E-004  0.1029697E+04  0.7818608E-02  0.9276560E-01
         -2   -1    0    0    0  501 -0.00000000000E+00  0.00000000000E+00  0.31082116333E+03  0.31082116334E+03  0.25500000000E-02 0. -1.
          2   -1    0    0  501    0  0.00000000000E+00 -0.00000000000E+00 -0.85280230346E+03  0.85280230346E+03  0.25500000000E-02 0.  1.
    5000001    1    1    2    0    0 -0.40460514577E+03  0.27827166472E+03 -0.17118883922E+03  0.53532706081E+03  0.12700000000E+03 0.  0.
   -5000001    1    1    2    0    0  0.40460514577E+03 -0.27827166472E+03 -0.37079230091E+03  0.62829640599E+03  0.12700000000E+03 0.  0.
<mgrwt>
<rscale>  0 0.10296971E+04</rscale>
<asrwt>0</asrwt>
<pdfrwt beam="1">  1        2 0.12182890E+00 0.10296971E+04</pdfrwt>
<pdfrwt beam="2">  1       -2 0.44403024E-01 0.10296971E+04</pdfrwt>
<totfact> 0.16745638E+02</totfact>
</mgrwt>
</event>
<event>
 4    1  0.1399921E-004  0.3128544E+03  0.7818608E-02  0.1078986E+00
         -2   -1    0    0    0  501 -0.00000000000E+00  0.00000000000E+00  0.18136930305E+02  0.18136930484E+02  0.25500000000E-02 0. -1.
          2   -1    0    0  501    0  0.00000000000E+00 -0.00000000000E+00 -0.13491514984E+04  0.13491514984E+04  0.25500000000E-02 0.  1.
    5000001    1    1    2    0    0  0.82785763256E+02 -0.22747459817E+02 -0.80158911674E+03  0.81611582609E+03  0.12700000000E+03 0.  0.
   -5000001    1    1    2    0    0 -0.82785763256E+02  0.22747459817E+02 -0.52942545135E+03  0.55117260279E+03  0.12700000000E+03 0.  0.
<mgrwt>
<rscale>  0 0.31285439E+03</rscale>
<asrwt>0</asrwt>
<pdfrwt beam="1">  1        2 0.19273586E+00 0.31285439E+03</pdfrwt>
<pdfrwt beam="2">  1       -2 0.25909909E-02 0.31285439E+03</pdfrwt>
<totfact> 0.98573402E+03</totfact>
</mgrwt>
</event>
<event>
 4    1  0.1399921E-004  0.4139328E+03  0.7818608E-02  0.1039059E+00
         -2   -1    0    0    0  501 -0.00000000000E+00  0.00000000000E+00  0.81491597237E+02  0.81491597277E+02  0.25500000000E-02 0. -1.
          2   -1    0    0  501    0  0.00000000000E+00 -0.00000000000E+00 -0.52563806762E+03  0.52563806762E+03  0.25500000000E-02 0.  1.
    5000001    1    1    2    0    0 -0.82090880817E+02  0.13999990501E+03 -0.25017947425E+03  0.32412598700E+03  0.12700000000E+03 0.  0.
   -5000001    1    1    2    0    0  0.82090880817E+02 -0.13999990501E+03 -0.19396699614E+03  0.28300367790E+03  0.12700000000E+03 0.  0.
<mgrwt>
<rscale>  0 0.41393278E+03</rscale>
<asrwt>0</asrwt>
<pdfrwt beam="1">  1        2 0.75091151E-01 0.41393278E+03</pdfrwt>
<pdfrwt beam="2">  1       -2 0.11641657E-01 0.41393278E+03</pdfrwt>
<totfact> 0.33465725E+03</totfact>
</mgrwt>
</event>
<event>
 4    1  0.1399921E-004  0.5290548E+03  0.7818608E-02  0.1006462E+00
          2   -1    0    0  501    0  0.00000000000E+00  0.00000000000E+00  0.45874549222E+04  0.45874549222E+04  0.25500000000E-02 0.  1.
         -2   -1    0    0    0  501 -0.00000000000E+00 -0.00000000000E+00 -0.15253501984E+02  0.15253502197E+02  0.25500000000E-02 0. -1.
    5000001    1    1    2    0    0 -0.20718456915E+03 -0.79257423113E+02  0.28786230984E+04  0.28899493295E+04  0.12700000000E+03 0.  0.
   -5000001    1    1    2    0    0  0.20718456915E+03  0.79257423113E+02  0.16935783219E+04  0.17127590949E+04  0.12700000000E+03 0.  0.
<mgrwt>
<rscale>  0 0.52905483E+03</rscale>
<asrwt>0</asrwt>
<pdfrwt beam="1">  1        2 0.65535073E+00 0.52905483E+03</pdfrwt>
<pdfrwt beam="2">  1       -2 0.21790716E-02 0.52905483E+03</pdfrwt>
<totfact> 0.17583836E+02</totfact>
</mgrwt>
</event>
<event>
 4    1  0.1399921E-004  0.4461615E+03  0.7818608E-02  0.1028873E+00
          2   -1    0    0  501    0  0.00000000000E+00  0.00000000000E+00  0.15329504921E+04  0.15329504922E+04  0.25500000000E-02 0.  1.
         -2   -1    0    0    0  501 -0.00000000000E+00 -0.00000000000E+00 -0.32463561096E+02  0.32463561196E+02  0.25500000000E-02 0. -1.
    5000001    1    1    2    0    0 -0.59326500028E+02  0.17345744142E+03  0.73137682650E+03  0.76462290047E+03  0.12700000000E+03 0.  0.
   -5000001    1    1    2    0    0  0.59326500028E+02 -0.17345744142E+03  0.76911010456E+03  0.80079115287E+03  0.12700000000E+03 0.  0.
<mgrwt>
<rscale>  0 0.44616155E+03</rscale>
<asrwt>0</asrwt>
<pdfrwt beam="1">  1        2 0.21899291E+00 0.44616155E+03</pdfrwt>
<pdfrwt beam="2">  1       -2 0.46376520E-02 0.44616155E+03</pdfrwt>
<totfact> 0.32989546E+03</totfact>
</mgrwt>
</event>
<event>
 4    1  0.1399921E-004  0.6454295E+03  0.7818608E-02  0.9815393E-01
         -2   -1    0    0    0  501 -0.00000000000E+00  0.00000000000E+00  0.10496818755E+04  0.10496818755E+04  0.25500000000E-02 0. -1.
          2   -1    0    0  501    0  0.00000000000E+00 -0.00000000000E+00 -0.99215590867E+02  0.99215590900E+02  0.25500000000E-02 0.  1.
    5000001    1    1    2    0    0  0.23095487332E+03  0.18534237788E+03  0.50726698871E+03  0.60094987177E+03  0.12700000000E+03 0.  0.
   -5000001    1    1    2    0    0 -0.23095487332E+03 -0.18534237788E+03  0.44319929592E+03  0.54794759462E+03  0.12700000000E+03 0.  0.
<mgrwt>
<rscale>  0 0.64542949E+03</rscale>
<asrwt>0</asrwt>
<pdfrwt beam="1">  1        2 0.14173655E-01 0.64542949E+03</pdfrwt>
<pdfrwt beam="2">  1       -2 0.14995456E+00 0.64542949E+03</pdfrwt>
<totfact> 0.13081686E+02</totfact>
</mgrwt>
</event>
<event>
 4    1  0.1399921E-004  0.5299230E+03  0.7818608E-02  0.1006251E+00
         -2   -1    0    0    0  501 -0.00000000000E+00  0.00000000000E+00  0.24912406641E+02  0.24912406772E+02  0.25500000000E-02 0. -1.
          2   -1    0    0  501    0  0.00000000000E+00 -0.00000000000E+00 -0.28180571784E+04  0.28180571784E+04  0.25500000000E-02 0.  1.
    5000001    1    1    2    0    0 -0.13397556721E+03  0.17877166127E+03 -0.10502646337E+04  0.10812462996E+04  0.12700000000E+03 0.  0.
   -5000001    1    1    2    0    0  0.13397556721E+03 -0.17877166127E+03 -0.17428801380E+04  0.17617232855E+04  0.12700000000E+03 0.  0.
<mgrwt>
<rscale>  0 0.52992296E+03</rscale>
<asrwt>0</asrwt>
<pdfrwt beam="1">  1        2 0.40257939E+00 0.52992296E+03</pdfrwt>
<pdfrwt beam="2">  1       -2 0.35589171E-02 0.52992296E+03</pdfrwt>
<totfact> 0.11004002E+03</totfact>
</mgrwt>
</event>
<event>
 4    1  0.1399921E-004  0.3155107E+03  0.7818608E-02  0.1077734E+00
         -2   -1    0    0    0  501 -0.00000000000E+00  0.00000000000E+00  0.67424507074E+02  0.67424507122E+02  0.25500000000E-02 0. -1.
          2   -1    0    0  501    0  0.00000000000E+00 -0.00000000000E+00 -0.36910533760E+03  0.36910533760E+03  0.25500000000E-02 0.  1.
    5000001    1    1    2    0    0  0.50145571906E+02  0.78867801411E+02 -0.14419973400E+03  0.21367562277E+03  0.12700000000E+03 0.  0.
   -5000001    1    1    2    0    0 -0.50145571906E+02 -0.78867801411E+02 -0.15748109652E+03  0.22285422195E+03  0.12700000000E+03 0.  0.
<mgrwt>
<rscale>  0 0.31551067E+03</rscale>
<asrwt>0</asrwt>
<pdfrwt beam="1">  1        2 0.52729333E-01 0.31551067E+03</pdfrwt>
<pdfrwt beam="2">  1       -2 0.96320726E-02 0.31551067E+03</pdfrwt>
<totfact> 0.66604002E+03</totfact>
</mgrwt>
</event>
<event>
 4    1  0.1399921E-004  0.6362336E+03  0.7818608E-02  0.9832959E-01
          2   -1    0    0  501    0  0.00000000000E+00  0.00000000000E+00  0.13656232015E+04  0.13656232015E+04  0.25500000000E-02 0.  1.
         -2   -1    0    0    0  501 -0.00000000000E+00 -0.00000000000E+00 -0.74104120316E+02  0.74104120360E+02  0.25500000000E-02 0. -1.
    5000001    1    1    2    0    0 -0.24178900336E+03 -0.16174792468E+03  0.59802419048E+03  0.67704227762E+03  0.12700000000E+03 0.  0.
   -5000001    1    1    2    0    0  0.24178900336E+03  0.16174792468E+03  0.69349489070E+03  0.76268504425E+03  0.12700000000E+03 0.  0.
<mgrwt>
<rscale>  0 0.63623362E+03</rscale>
<asrwt>0</asrwt>
<pdfrwt beam="1">  1        2 0.19508904E+00 0.63623362E+03</pdfrwt>
<pdfrwt beam="2">  1       -2 0.10586302E-01 0.63623362E+03</pdfrwt>
<totfact> 0.10921782E+03</totfact>
</mgrwt>
</event>
<event>
 4    1  0.1399921E-004  0.3253404E+03  0.7818608E-02  0.1073217E+00
          2   -1    0    0  501    0  0.00000000000E+00  0.00000000000E+00  0.21175998269E+04  0.21175998269E+04  0.25500000000E-02 0.  1.
         -2   -1    0    0    0  501 -0.00000000000E+00 -0.00000000000E+00 -0.12496027638E+02  0.12496027898E+02  0.25500000000E-02 0. -1.
    5000001    1    1    2    0    0 -0.91959483749E+02  0.42766909659E+02  0.10974526346E+04  0.11094218496E+04  0.12700000000E+03 0.  0.
   -5000001    1    1    2    0    0  0.91959483749E+02 -0.42766909659E+02  0.10076511646E+04  0.10206740051E+04  0.12700000000E+03 0.  0.
<mgrwt>
<rscale>  0 0.32534035E+03</rscale>
<asrwt>0</asrwt>
<pdfrwt beam="1">  1        2 0.30251458E+00 0.32534035E+03</pdfrwt>
<pdfrwt beam="2">  1       -2 0.17851449E-02 0.32534035E+03</pdfrwt>
<totfact> 0.70818549E+03</totfact>
</mgrwt>
</event>
<event>
 4    1  0.1399921E-004  0.4874977E+03  0.7818608E-02  0.1017095E+00
         -2   -1    0    0    0  501 -0.00000000000E+00  0.00000000000E+00  0.13804052555E+03  0.13804052557E+03  0.25500000000E-02 0. -1.
          2   -1    0    0  501    0  0.00000000000E+00 -0.00000000000E+00 -0.43040620326E+03  0.43040620327E+03  0.25500000000E-02 0.  1.
    5000001    1    1    2    0    0  0.11740818476E+03 -0.16171363091E+02 -0.34556821370E+03  0.38677200669E+03  0.12700000000E+03 0.  0.
   -5000001    1    1    2    0    0 -0.11740818476E+03  0.16171363091E+02  0.53202535994E+02  0.18167472215E+03  0.12700000000E+03 0.  0.
<mgrwt>
<rscale>  0 0.48749769E+03</rscale>
<asrwt>0</asrwt>
<pdfrwt beam="1">  1        2 0.61486600E-01 0.48749769E+03</pdfrwt>
<pdfrwt beam="2">  1       -2 0.19720075E-01 0.48749769E+03</pdfrwt>
<totfact> 0.17338283E+03</totfact>
</mgrwt>
</event>
<event>
 4    1  0.1399921E-004  0.3787188E+03  0.7818608E-02  0.1051408E+00
          2   -1    0    0  501    0  0.00000000000E+00  0.00000000000E+00  0.17856525175E+04  0.17856525175E+04  0.25500000000E-02 0.  1.
         -2   -1    0    0    0  501 -0.00000000000E+00 -0.00000000000E+00 -0.20080603812E+02  0.20080603974E+02  0.25500000000E-02 0. -1.
    5000001    1    1    2    0    0 -0.10410319668E+03  0.96135586426E+01  0.43555610832E+03  0.46558352588E+03  0.12700000000E+03 0.  0.
   -5000001    1    1    2    0    0  0.10410319668E+03 -0.96135586426E+01  0.13300158054E+04  0.13401495956E+04  0.12700000000E+03 0.  0.
<mgrwt>
<rscale>  0 0.37871879E+03</rscale>
<asrwt>0</asrwt>
<pdfrwt beam="1">  1        2 0.25509330E+00 0.37871879E+03</pdfrwt>
<pdfrwt beam="2">  1       -2 0.28686568E-02 0.37871879E+03</pdfrwt>
<totfact> 0.51002056E+03</totfact>
</mgrwt>
</event>
<event>
 4    1  0.1399921E-004  0.3583994E+03  0.7818608E-02  0.1059219E+00
         -2   -1    0    0    0  501 -0.00000000000E+00  0.00000000000E+00  0.14801551329E+02  0.14801551549E+02  0.25500000000E-02 0. -1.
          2   -1    0    0  501    0  0.00000000000E+00 -0.00000000000E+00 -0.21695379862E+04  0.21695379862E+04  0.25500000000E-02 0.  1.
    5000001    1    1    2    0    0 -0.78041140645E+02 -0.98565467403E+02 -0.99606446837E+03  0.10119678830E+04  0.12700000000E+03 0.  0.
   -5000001    1    1    2    0    0  0.78041140645E+02  0.98565467403E+02 -0.11586719665E+04  0.11723716548E+04  0.12700000000E+03 0.  0.
<mgrwt>
<rscale>  0 0.35839938E+03</rscale>
<asrwt>0</asrwt>
<pdfrwt beam="1">  1        2 0.30993380E+00 0.35839938E+03</pdfrwt>
<pdfrwt beam="2">  1       -2 0.21145087E-02 0.35839938E+03</pdfrwt>
<totfact> 0.51967166E+03</totfact>
</mgrwt>
</event>
<event>
 4    1  0.1399921E-004  0.4702398E+03  0.7818608E-02  0.1021853E+00
          2   -1    0    0  501    0  0.00000000000E+00  0.00000000000E+00  0.11490239370E+04  0.11490239370E+04  0.25500000000E-02 0.  1.
         -2   -1    0    0    0  501 -0.00000000000E+00 -0.00000000000E+00 -0.48111585118E+02  0.48111585186E+02  0.25500000000E-02 0. -1.
    5000001    1    1    2    0    0 -0.60903833494E+02 -0.18513548397E+03  0.46345322905E+03  0.51855792336E+03  0.12700000000E+03 0.  0.
   -5000001    1    1    2    0    0  0.60903833494E+02  0.18513548397E+03  0.63745912283E+03  0.67857759883E+03  0.12700000000E+03 0.  0.
<mgrwt>
<rscale>  0 0.47023978E+03</rscale>
<asrwt>0</asrwt>
<pdfrwt beam="1">  1        2 0.16414628E+00 0.47023978E+03</pdfrwt>
<pdfrwt beam="2">  1       -2 0.68730833E-02 0.47023978E+03</pdfrwt>
<totfact> 0.28748344E+03</totfact>
</mgrwt>
</event>
<event>
 4    1  0.1399921E-004  0.4517073E+03  0.7818608E-02  0.1027214E+00
         -2   -1    0    0    0  501 -0.00000000000E+00  0.00000000000E+00  0.21055548302E+03  0.21055548304E+03  0.25500000000E-02 0. -1.
          2   -1    0    0  501    0  0.00000000000E+00 -0.00000000000E+00 -0.24226332130E+03  0.24226332132E+03  0.25500000000E-02 0.  1.
    5000001    1    1    2    0    0 -0.34656502898E+02  0.14756158335E+03  0.93526331758E+02  0.21875024299E+03  0.12700000000E+03 0.  0.
   -5000001    1    1    2    0    0  0.34656502898E+02 -0.14756158335E+03 -0.12523417004E+03  0.23406856137E+03  0.12700000000E+03 0.  0.
<mgrwt>
<rscale>  0 0.45170730E+03</rscale>
<asrwt>0</asrwt>
<pdfrwt beam="1">  1        2 0.34609046E-01 0.45170730E+03</pdfrwt>
<pdfrwt beam="2">  1       -2 0.30079355E-01 0.45170730E+03</pdfrwt>
<totfact> 0.15368624E+03</totfact>
</mgrwt>
</event>
<event>
 4    1  0.1399921E-004  0.4495523E+03  0.7818608E-02  0.1027856E+00
         -2   -1    0    0    0  501 -0.00000000000E+00  0.00000000000E+00  0.73477118582E+02  0.73477118626E+02  0.25500000000E-02 0. -1.
          2   -1    0    0  501    0  0.00000000000E+00 -0.00000000000E+00 -0.68761972910E+03  0.68761972910E+03  0.25500000000E-02 0.  1.
    5000001    1    1    2    0    0 -0.39449498001E+02  0.16644590276E+03 -0.42838842844E+03  0.47844137265E+03  0.12700000000E+03 0.  0.
   -5000001    1    1    2    0    0  0.39449498001E+02 -0.16644590276E+03 -0.18575418207E+03  0.28265547508E+03  0.12700000000E+03 0.  0.
<mgrwt>
<rscale>  0 0.44955229E+03</rscale>
<asrwt>0</asrwt>
<pdfrwt beam="1">  1        2 0.98231386E-01 0.44955229E+03</pdfrwt>
<pdfrwt beam="2">  1       -2 0.10496732E-01 0.44955229E+03</pdfrwt>
<totfact> 0.28975702E+03</totfact>
</mgrwt>
</event>
<event>
 4    1  0.1399921E-004  0.5683863E+03  0.7818608E-02  0.9973256E-01
         -2   -1    0    0    0  501 -0.00000000000E+00  0.00000000000E+00  0.85226555942E+02  0.85226555980E+02  0.25500000000E-02 0. -1.
          2   -1    0    0  501    0  0.00000000000E+00 -0.00000000000E+00 -0.94765931409E+03  0.94765931410E+03  0.25500000000E-02 0.  1.
    5000001    1    1    2    0    0 -0.68212642141E+02  0.24385334997E+03 -0.38980442283E+03  0.48186503183E+03  0.12700000000E+03 0.  0.
   -5000001    1    1    2    0    0  0.68212642141E+02 -0.24385334997E+03 -0.47262833532E+03  0.55102083825E+03  0.12700000000E+03 0.  0.
<mgrwt>
<rscale>  0 0.56838628E+03</rscale>
<asrwt>0</asrwt>
<pdfrwt beam="1">  1        2 0.13537990E+00 0.56838628E+03</pdfrwt>
<pdfrwt beam="2">  1       -2 0.12175223E-01 0.56838628E+03</pdfrwt>
<totfact> 0.15102904E+03</totfact>
</mgrwt>
</event>
<event>
 4    1  0.1399921E-004  0.2657236E+03  0.7818608E-02  0.1103752E+00
          2   -1    0    0  501    0  0.00000000000E+00  0.00000000000E+00  0.28876086583E+04  0.28876086583E+04  0.25500000000E-02 0.  1.
         -2   -1    0    0    0  501 -0.00000000000E+00 -0.00000000000E+00 -0.61131047489E+01  0.61131052807E+01  0.25500000000E-02 0. -1.
    5000001    1    1    2    0    0 -0.16271193683E+02  0.31849858886E+02  0.16108858154E+04  0.16162800734E+04  0.12700000000E+03 0.  0.
   -5000001    1    1    2    0    0  0.16271193683E+02 -0.31849858886E+02  0.12706097381E+04  0.12774416902E+04  0.12700000000E+03 0.  0.
<mgrwt>
<rscale>  0 0.26572358E+03</rscale>
<asrwt>0</asrwt>
<pdfrwt beam="1">  1        2 0.41251563E+00 0.26572358E+03</pdfrwt>
<pdfrwt beam="2">  1       -2 0.87330049E-03 0.26572358E+03</pdfrwt>
<totfact> 0.82578506E+03</totfact>
</mgrwt>
</event>
<event>
 4    1  0.1399921E-004  0.3049776E+03  0.7818608E-02  0.1082779E+00
          2   -1    0    0  501    0  0.00000000000E+00  0.00000000000E+00  0.63795718438E+03  0.63795718439E+03  0.25500000000E-02 0.  1.
         -2   -1    0    0    0  501 -0.00000000000E+00 -0.00000000000E+00 -0.36448882912E+02  0.36448883001E+02  0.25500000000E-02 0. -1.
    5000001    1    1    2    0    0  0.17142590058E+02 -0.74252111626E+02  0.22051661227E+03  0.26563851520E+03  0.12700000000E+03 0.  0.
   -5000001    1    1    2    0    0 -0.17142590058E+02  0.74252111626E+02  0.38099168920E+03  0.40876755218E+03  0.12700000000E+03 0.  0.
<mgrwt>
<rscale>  0 0.30497755E+03</rscale>
<asrwt>0</asrwt>
<pdfrwt beam="1">  1        2 0.91136739E-01 0.30497755E+03</pdfrwt>
<pdfrwt beam="2">  1       -2 0.52069834E-02 0.30497755E+03</pdfrwt>
<totfact> 0.94269517E+03</totfact>
</mgrwt>
</event>
<event>
 4    1  0.1399921E-004  0.3476769E+03  0.7818608E-02  0.1063573E+00
          2   -1    0    0  501    0  0.00000000000E+00  0.00000000000E+00  0.52481303832E+02  0.52481303894E+02  0.25500000000E-02 0.  1.
         -2   -1    0    0    0  501 -0.00000000000E+00 -0.00000000000E+00 -0.57582050415E+03  0.57582050415E+03  0.25500000000E-02 0. -1.
    5000001    1    1    2    0    0  0.10569444278E+02  0.91979744731E+02 -0.12741915783E+03  0.20232802173E+03  0.12700000000E+03 0.  0.
   -5000001    1    1    2    0    0 -0.10569444278E+02 -0.91979744731E+02 -0.39592004248E+03  0.42597378632E+03  0.12700000000E+03 0.  0.
<mgrwt>
<rscale>  0 0.34767692E+03</rscale>
<asrwt>0</asrwt>
<pdfrwt beam="1">  1        2 0.74973295E-02 0.34767692E+03</pdfrwt>
<pdfrwt beam="2">  1       -2 0.82260068E-01 0.34767692E+03</pdfrwt>
<totfact> 0.12449765E+03</totfact>
</mgrwt>
</event>
<event>
 4    1  0.1399921E-004  0.2910690E+03  0.7818608E-02  0.1089792E+00
         -2   -1    0    0    0  501 -0.00000000000E+00  0.00000000000E+00  0.14115304392E+02  0.14115304623E+02  0.25500000000E-02 0. -1.
          2   -1    0    0  501    0  0.00000000000E+00 -0.00000000000E+00 -0.15005191544E+04  0.15005191544E+04  0.25500000000E-02 0.  1.
    5000001    1    1    2    0    0 -0.48302610864E+02 -0.32388078525E+02 -0.95580045927E+03  0.96595323271E+03  0.12700000000E+03 0.  0.
   -5000001    1    1    2    0    0  0.48302610864E+02  0.32388078525E+02 -0.53060339078E+03  0.54868122635E+03  0.12700000000E+03 0.  0.
<mgrwt>
<rscale>  0 0.29106896E+03</rscale>
<asrwt>0</asrwt>
<pdfrwt beam="1">  1        2 0.21435978E+00 0.29106896E+03</pdfrwt>
<pdfrwt beam="2">  1       -2 0.20164730E-02 0.29106896E+03</pdfrwt>
<totfact> 0.11922844E+04</totfact>
</mgrwt>
</event>
<event>
 4    1  0.1399921E-004  0.2875488E+03  0.7818608E-02  0.1091636E+00
         -2   -1    0    0    0  501 -0.00000000000E+00  0.00000000000E+00  0.14522378248E+02  0.14522378471E+02  0.25500000000E-02 0. -1.
          2   -1    0    0  501    0  0.00000000000E+00 -0.00000000000E+00 -0.14233943348E+04  0.14233943348E+04  0.25500000000E-02 0.  1.
    5000001    1    1    2    0    0  0.45604947416E+02 -0.49620868608E+02 -0.70358062092E+03  0.71812027681E+03  0.12700000000E+03 0.  0.
   -5000001    1    1    2    0    0 -0.45604947416E+02  0.49620868608E+02 -0.70529133566E+03  0.71979643650E+03  0.12700000000E+03 0.  0.
<mgrwt>
<rscale>  0 0.28754875E+03</rscale>
<asrwt>0</asrwt>
<pdfrwt beam="1">  1        2 0.20334196E+00 0.28754875E+03</pdfrwt>
<pdfrwt beam="2">  1       -2 0.20746264E-02 0.28754875E+03</pdfrwt>
<totfact> 0.12512115E+04</totfact>
</mgrwt>
</event>
<event>
 4    1  0.1399921E-004  0.4456273E+03  0.7818608E-02  0.1029034E+00
          2   -1    0    0  501    0  0.00000000000E+00  0.00000000000E+00  0.15869792016E+04  0.15869792016E+04  0.25500000000E-02 0.  1.
         -2   -1    0    0    0  501 -0.00000000000E+00 -0.00000000000E+00 -0.31283279450E+02  0.31283279554E+02  0.25500000000E-02 0. -1.
    5000001    1    1    2    0    0  0.96678891475E+01  0.10753464011E+03  0.13147558442E+04  0.13252807615E+04  0.12700000000E+03 0.  0.
   -5000001    1    1    2    0    0 -0.96678891475E+01 -0.10753464011E+03  0.24094007800E+03  0.29298171972E+03  0.12700000000E+03 0.  0.
<mgrwt>
<rscale>  0 0.44562726E+03</rscale>
<asrwt>0</asrwt>
<pdfrwt beam="1">  1        2 0.22671138E+00 0.44562726E+03</pdfrwt>
<pdfrwt beam="2">  1       -2 0.44690386E-02 0.44562726E+03</pdfrwt>
<totfact> 0.32767769E+03</totfact>
</mgrwt>
</event>
<event>
 4    1  0.1399921E-004  0.5165496E+03  0.7818608E-02  0.1009547E+00
          2   -1    0    0  501    0  0.00000000000E+00  0.00000000000E+00  0.45082789488E+03  0.45082789489E+03  0.25500000000E-02 0.  1.
         -2   -1    0    0    0  501 -0.00000000000E+00 -0.00000000000E+00 -0.14796307146E+03  0.14796307148E+03  0.25500000000E-02 0. -1.
    5000001    1    1    2    0    0 -0.16782770751E+03  0.15379402396E+02 -0.21186076318E+02  0.21208610340E+03  0.12700000000E+03 0.  0.
   -5000001    1    1    2    0    0  0.16782770751E+03 -0.15379402396E+02  0.32405089974E+03  0.38670486297E+03  0.12700000000E+03 0.  0.
<mgrwt>
<rscale>  0 0.51654963E+03</rscale>
<asrwt>0</asrwt>
<pdfrwt beam="1">  1        2 0.64403985E-01 0.51654963E+03</pdfrwt>
<pdfrwt beam="2">  1       -2 0.21137582E-01 0.51654963E+03</pdfrwt>
<totfact> 0.14595530E+03</totfact>
</mgrwt>
</event>
<event>
 4    1  0.1399921E-004  0.3366274E+03  0.7818608E-02  0.1068242E+00
         -2   -1    0    0    0  501 -0.00000000000E+00  0.00000000000E+00  0.33064699514E+02  0.33064699613E+02  0.25500000000E-02 0. -1.
          2   -1    0    0  501    0  0.00000000000E+00 -0.00000000000E+00 -0.85678987998E+03  0.85678987998E+03  0.25500000000E-02 0.  1.
    5000001    1    1    2    0    0 -0.10835472339E+03  0.19940468453E+02 -0.43269914434E+03  0.46421537876E+03  0.12700000000E+03 0.  0.
   -5000001    1    1    2    0    0  0.10835472339E+03 -0.19940468453E+02 -0.39102603613E+03  0.42563920084E+03  0.12700000000E+03 0.  0.
<mgrwt>
<rscale>  0 0.33662739E+03</rscale>
<asrwt>0</asrwt>
<pdfrwt beam="1">  1        2 0.12239854E+00 0.33662739E+03</pdfrwt>
<pdfrwt beam="2">  1       -2 0.47235290E-02 0.33662739E+03</pdfrwt>
<totfact> 0.76631717E+03</totfact>
</mgrwt>
</event>
<event>
 4    1  0.1399921E-004  0.5463597E+03  0.7818608E-02  0.1002340E+00
         -2   -1    0    0    0  501 -0.00000000000E+00  0.00000000000E+00  0.41621168859E+02  0.41621168938E+02  0.25500000000E-02 0. -1.
          2   -1    0    0  501    0  0.00000000000E+00 -0.00000000000E+00 -0.17930112618E+04  0.17930112618E+04  0.25500000000E-02 0.  1.
    5000001    1    1    2    0    0 -0.12870656483E+03  0.20441565021E+03 -0.91641967315E+03  0.95619305332E+03  0.12700000000E+03 0.  0.
   -5000001    1    1    2    0    0  0.12870656483E+03 -0.20441565021E+03 -0.83497041982E+03  0.87843937745E+03  0.12700000000E+03 0.  0.
<mgrwt>
<rscale>  0 0.54635968E+03</rscale>
<asrwt>0</asrwt>
<pdfrwt beam="1">  1        2 0.25614442E+00 0.54635968E+03</pdfrwt>
<pdfrwt beam="2">  1       -2 0.59458824E-02 0.54635968E+03</pdfrwt>
<totfact> 0.16530337E+03</totfact>
</mgrwt>
</event>
<event>
 4    1  0.1399921E-004  0.5327001E+03  0.7818608E-02  0.1005579E+00
          2   -1    0    0  501    0  0.00000000000E+00  0.00000000000E+00  0.29672762374E+03  0.29672762375E+03  0.25500000000E-02 0.  1.
         -2   -1    0    0    0  501 -0.00000000000E+00 -0.00000000000E+00 -0.23908240561E+03  0.23908240563E+03  0.25500000000E-02 0. -1.
    5000001    1    1    2    0    0 -0.22530680411E+03  0.32374632486E+02 -0.26288515047E+02  0.26197587452E+03  0.12700000000E+03 0.  0.
   -5000001    1    1    2    0    0  0.22530680411E+03 -0.32374632486E+02  0.83933733179E+02  0.27383415486E+03  0.12700000000E+03 0.  0.
<mgrwt>
<rscale>  0 0.53270012E+03</rscale>
<asrwt>0</asrwt>
<pdfrwt beam="1">  1        2 0.42389661E-01 0.53270012E+03</pdfrwt>
<pdfrwt beam="2">  1       -2 0.34154629E-01 0.53270012E+03</pdfrwt>
<totfact> 0.97098357E+02</totfact>
</mgrwt>
</event>
<event>
 4    1  0.1399921E-004  0.4353569E+03  0.7818608E-02  0.1032181E+00
         -2   -1    0    0    0  501 -0.00000000000E+00  0.00000000000E+00  0.38174911670E+02  0.38174911756E+02  0.25500000000E-02 0. -1.
          2   -1    0    0  501    0  0.00000000000E+00 -0.00000000000E+00 -0.12412318980E+04  0.12412318980E+04  0.25500000000E-02 0.  1.
    5000001    1    1    2    0    0 -0.14451442284E+03  0.10062295364E+03 -0.55548084787E+03  0.59640369680E+03  0.12700000000E+03 0.  0.
   -5000001    1    1    2    0    0  0.14451442284E+03 -0.10062295364E+03 -0.64757613845E+03  0.68300311295E+03  0.12700000000E+03 0.  0.
<mgrwt>
<rscale>  0 0.43535695E+03</rscale>
<asrwt>0</asrwt>
<pdfrwt beam="1">  1        2 0.17731882E+00 0.43535695E+03</pdfrwt>
<pdfrwt beam="2">  1       -2 0.54535596E-02 0.43535695E+03</pdfrwt>
<totfact> 0.36626771E+03</totfact>
</mgrwt>
</event>
<event>
 4    1  0.1399921E-004  0.4115937E+03  0.7818608E-02  0.1039838E+00
         -2   -1    0    0    0  501 -0.00000000000E+00  0.00000000000E+00  0.18787980805E+02  0.18787980978E+02  0.25500000000E-02 0. -1.
          2   -1    0    0  501    0  0.00000000000E+00 -0.00000000000E+00 -0.22542256880E+04  0.22542256880E+04  0.25500000000E-02 0.  1.
    5000001    1    1    2    0    0 -0.98594201956E+02 -0.12769556912E+03 -0.10403305318E+04  0.10603978453E+04  0.12700000000E+03 0.  0.
   -5000001    1    1    2    0    0  0.98594201956E+02  0.12769556912E+03 -0.11951071754E+04  0.12126158237E+04  0.12700000000E+03 0.  0.
<mgrwt>
<rscale>  0 0.41159373E+03</rscale>
<asrwt>0</asrwt>
<pdfrwt beam="1">  1        2 0.32203207E+00 0.41159373E+03</pdfrwt>
<pdfrwt beam="2">  1       -2 0.26839987E-02 0.41159373E+03</pdfrwt>
<totfact> 0.33001461E+03</totfact>
</mgrwt>
</event>
<event>
 4    1  0.1399921E-004  0.5729819E+03  0.7818608E-02  0.9963102E-01
          2   -1    0    0  501    0  0.00000000000E+00  0.00000000000E+00  0.22766373962E+03  0.22766373963E+03  0.25500000000E-02 0.  1.
         -2   -1    0    0    0  501 -0.00000000000E+00 -0.00000000000E+00 -0.36051887432E+03  0.36051887433E+03  0.25500000000E-02 0. -1.
    5000001    1    1    2    0    0 -0.23482953768E+03 -0.98435608447E+02 -0.32171716216E+02  0.28635380232E+03  0.12700000000E+03 0.  0.
   -5000001    1    1    2    0    0  0.23482953768E+03  0.98435608447E+02 -0.10068341849E+03  0.30182881164E+03  0.12700000000E+03 0.  0.
<mgrwt>
<rscale>  0 0.57298194E+03</rscale>
<asrwt>0</asrwt>
<pdfrwt beam="1">  1        2 0.32523391E-01 0.57298194E+03</pdfrwt>
<pdfrwt beam="2">  1       -2 0.51502696E-01 0.57298194E+03</pdfrwt>
<totfact> 0.58268911E+02</totfact>
</mgrwt>
</event>
<event>
 4    1  0.1399921E-004  0.2932957E+03  0.7818608E-02  0.1088641E+00
          2   -1    0    0  501    0  0.00000000000E+00  0.00000000000E+00  0.89608613929E+02  0.89608613965E+02  0.25500000000E-02 0.  1.
         -2   -1    0    0    0  501 -0.00000000000E+00 -0.00000000000E+00 -0.23999475219E+03  0.23999475221E+03  0.25500000000E-02 0. -1.
    5000001    1    1    2    0    0 -0.72965039265E+02 -0.72230392288E+01 -0.76009542268E+02  0.16517421036E+03  0.12700000000E+03 0.  0.
   -5000001    1    1    2    0    0  0.72965039265E+02  0.72230392288E+01 -0.74376595998E+02  0.16442915582E+03  0.12700000000E+03 0.  0.
<mgrwt>
<rscale>  0 0.29329574E+03</rscale>
<asrwt>0</asrwt>
<pdfrwt beam="1">  1        2 0.12801231E-01 0.29329574E+03</pdfrwt>
<pdfrwt beam="2">  1       -2 0.34284964E-01 0.29329574E+03</pdfrwt>
<totfact> 0.37610823E+03</totfact>
</mgrwt>
</event>
<event>
 4    1  0.1399921E-004  0.3273183E+03  0.7818608E-02  0.1072330E+00
          2   -1    0    0  501    0  0.00000000000E+00  0.00000000000E+00  0.11314266889E+03  0.11314266892E+03  0.25500000000E-02 0.  1.
         -2   -1    0    0    0  501 -0.00000000000E+00 -0.00000000000E+00 -0.23673040831E+03  0.23673040832E+03  0.25500000000E-02 0. -1.
    5000001    1    1    2    0    0 -0.56601104742E+02 -0.48200433501E+02  0.14753248202E+02  0.14789734677E+03  0.12700000000E+03 0.  0.
   -5000001    1    1    2    0    0  0.56601104742E+02  0.48200433501E+02 -0.13834098762E+03  0.20197573048E+03  0.12700000000E+03 0.  0.
<mgrwt>
<rscale>  0 0.32731826E+03</rscale>
<asrwt>0</asrwt>
<pdfrwt beam="1">  1        2 0.16163238E-01 0.32731826E+03</pdfrwt>
<pdfrwt beam="2">  1       -2 0.33818630E-01 0.32731826E+03</pdfrwt>
<totfact> 0.29281174E+03</totfact>
</mgrwt>
</event>
<event>
 4    1  0.1399921E-004  0.3276695E+03  0.7818608E-02  0.1072173E+00
         -2   -1    0    0    0  501 -0.00000000000E+00  0.00000000000E+00  0.92707407367E+02  0.92707407402E+02  0.25500000000E-02 0. -1.
          2   -1    0    0  501    0  0.00000000000E+00 -0.00000000000E+00 -0.28953271965E+03  0.28953271966E+03  0.25500000000E-02 0.  1.
    5000001    1    1    2    0    0 -0.54448043220E+02  0.71687242877E+02 -0.15799972991E+03  0.22180298658E+03  0.12700000000E+03 0.  0.
   -5000001    1    1    2    0    0  0.54448043220E+02 -0.71687242877E+02 -0.38825582372E+02  0.16043714049E+03  0.12700000000E+03 0.  0.
<mgrwt>
<rscale>  0 0.32766952E+03</rscale>
<asrwt>0</asrwt>
<pdfrwt beam="1">  1        2 0.41361817E-01 0.32766952E+03</pdfrwt>
<pdfrwt beam="2">  1       -2 0.13243915E-01 0.32766952E+03</pdfrwt>
<totfact> 0.51888662E+03</totfact>
</mgrwt>
</event>
<event>
 4    1  0.1399921E-004  0.2962118E+03  0.7818608E-02  0.1087150E+00
          2   -1    0    0  501    0  0.00000000000E+00  0.00000000000E+00  0.61990228276E+03  0.61990228277E+03  0.25500000000E-02 0.  1.
         -2   -1    0    0    0  501 -0.00000000000E+00 -0.00000000000E+00 -0.35385181809E+02  0.35385181900E+02  0.25500000000E-02 0. -1.
    5000001    1    1    2    0    0 -0.20687942907E+02  0.64849124459E+02  0.21649327230E+03  0.26006102529E+03  0.12700000000E+03 0.  0.
   -5000001    1    1    2    0    0  0.20687942907E+02 -0.64849124459E+02  0.36802382865E+03  0.39522643937E+03  0.12700000000E+03 0.  0.
<mgrwt>
<rscale>  0 0.29621178E+03</rscale>
<asrwt>0</asrwt>
<pdfrwt beam="1">  1        2 0.88557470E-01 0.29621178E+03</pdfrwt>
<pdfrwt beam="2">  1       -2 0.50550259E-02 0.29621178E+03</pdfrwt>
<totfact> 0.10185495E+04</totfact>
</mgrwt>
</event>
<event>
 4    1  0.1399921E-004  0.2900320E+03  0.7818608E-02  0.1090332E+00
         -2   -1    0    0    0  501 -0.00000000000E+00  0.00000000000E+00  0.16462309412E+02  0.16462309610E+02  0.25500000000E-02 0. -1.
          2   -1    0    0  501    0  0.00000000000E+00 -0.00000000000E+00 -0.12774420499E+04  0.12774420499E+04  0.25500000000E-02 0.  1.
    5000001    1    1    2    0    0 -0.27327497781E+02  0.15731490706E+02 -0.35165753758E+03  0.37521499926E+03  0.12700000000E+03 0.  0.
   -5000001    1    1    2    0    0  0.27327497781E+02 -0.15731490706E+02 -0.90932220289E+03  0.91868936024E+03  0.12700000000E+03 0.  0.
<mgrwt>
<rscale>  0 0.29003204E+03</rscale>
<asrwt>0</asrwt>
<pdfrwt beam="1">  1        2 0.18249166E+00 0.29003204E+03</pdfrwt>
<pdfrwt beam="2">  1       -2 0.23517593E-02 0.29003204E+03</pdfrwt>
<totfact> 0.12391221E+04</totfact>
</mgrwt>
</event>
<event>
 4    1  0.1399921E-004  0.3054553E+03  0.7818608E-02  0.1082545E+00
          2   -1    0    0  501    0  0.00000000000E+00  0.00000000000E+00  0.15984713621E+04  0.15984713621E+04  0.25500000000E-02 0.  1.
         -2   -1    0    0    0  501 -0.00000000000E+00 -0.00000000000E+00 -0.14592530198E+02  0.14592530421E+02  0.25500000000E-02 0. -1.
    5000001    1    1    2    0    0  0.35801711998E+02 -0.76365272732E+02  0.84014416088E+03  0.85386452586E+03  0.12700000000E+03 0.  0.
   -5000001    1    1    2    0    0 -0.35801711998E+02  0.76365272732E+02  0.74373467105E+03  0.75919936669E+03  0.12700000000E+03 0.  0.
<mgrwt>
<rscale>  0 0.30545534E+03</rscale>
<asrwt>0</asrwt>
<pdfrwt beam="1">  1        2 0.22835313E+00 0.30545534E+03</pdfrwt>
<pdfrwt beam="2">  1       -2 0.20846464E-02 0.30545534E+03</pdfrwt>
<totfact> 0.10144884E+04</totfact>
</mgrwt>
</event>
<event>
 4    1  0.1399921E-004  0.3803168E+03  0.7818608E-02  0.1050817E+00
          2   -1    0    0  501    0  0.00000000000E+00  0.00000000000E+00  0.48837154993E+03  0.48837154993E+03  0.25500000000E-02 0.  1.
         -2   -1    0    0    0  501 -0.00000000000E+00 -0.00000000000E+00 -0.74042425190E+02  0.74042425234E+02  0.25500000000E-02 0. -1.
    5000001    1    1    2    0    0 -0.97967417692E+02 -0.99191356502E+02  0.24322658037E+03  0.30777379604E+03  0.12700000000E+03 0.  0.
   -5000001    1    1    2    0    0  0.97967417692E+02  0.99191356502E+02  0.17110254437E+03  0.25464017912E+03  0.12700000000E+03 0.  0.
<mgrwt>
<rscale>  0 0.38031678E+03</rscale>
<asrwt>0</asrwt>
<pdfrwt beam="1">  1        2 0.69767364E-01 0.38031678E+03</pdfrwt>
<pdfrwt beam="2">  1       -2 0.10577489E-01 0.38031678E+03</pdfrwt>
<totfact> 0.42384274E+03</totfact>
</mgrwt>
</event>
<event>
 4    1  0.1399921E-004  0.4591601E+03  0.7818608E-02  0.1025025E+00
         -2   -1    0    0    0  501 -0.00000000000E+00  0.00000000000E+00  0.45292950205E+02  0.45292950277E+02  0.25500000000E-02 0. -1.
          2   -1    0    0  501    0  0.00000000000E+00 -0.00000000000E+00 -0.11636912617E+04  0.11636912617E+04  0.25500000000E-02 0.  1.
    5000001    1    1    2    0    0 -0.76001962119E+02 -0.14363140896E+03 -0.29364453341E+03  0.35883476962E+03  0.12700000000E+03 0.  0.
   -5000001    1    1    2    0    0  0.76001962119E+02  0.14363140896E+03 -0.82475377812E+03  0.85014944240E+03  0.12700000000E+03 0.  0.
<mgrwt>
<rscale>  0 0.45916015E+03</rscale>
<asrwt>0</asrwt>
<pdfrwt beam="1">  1        2 0.16624159E+00 0.45916015E+03</pdfrwt>
<pdfrwt beam="2">  1       -2 0.64704222E-02 0.45916015E+03</pdfrwt>
<totfact> 0.31002646E+03</totfact>
</mgrwt>
</event>
<event>
 4    1  0.1399921E-004  0.5732076E+03  0.7818608E-02  0.9962606E-01
         -2   -1    0    0    0  501 -0.00000000000E+00  0.00000000000E+00  0.43274076719E+02  0.43274076794E+02  0.25500000000E-02 0. -1.
          2   -1    0    0  501    0  0.00000000000E+00 -0.00000000000E+00 -0.18981742616E+04  0.18981742616E+04  0.25500000000E-02 0.  1.
    5000001    1    1    2    0    0 -0.24210634297E+03  0.66563476803E+02 -0.11119263734E+04  0.11469766508E+04  0.12700000000E+03 0.  0.
   -5000001    1    1    2    0    0  0.24210634297E+03 -0.66563476803E+02 -0.74297381149E+03  0.79447168755E+03  0.12700000000E+03 0.  0.
<mgrwt>
<rscale>  0 0.57320760E+03</rscale>
<asrwt>0</asrwt>
<pdfrwt beam="1">  1        2 0.27116770E+00 0.57320760E+03</pdfrwt>
<pdfrwt beam="2">  1       -2 0.61820122E-02 0.57320760E+03</pdfrwt>
<totfact> 0.13754324E+03</totfact>
</mgrwt>
</event>
<event>
 4    1  0.1399921E-004  0.4796708E+03  0.7818608E-02  0.1019226E+00
         -2   -1    0    0    0  501 -0.00000000000E+00  0.00000000000E+00  0.59808022054E+02  0.59808022108E+02  0.25500000000E-02 0. -1.
          2   -1    0    0  501    0  0.00000000000E+00 -0.00000000000E+00 -0.96176106875E+03  0.96176106875E+03  0.25500000000E-02 0.  1.
    5000001    1    1    2    0    0 -0.10209609205E+03  0.11681377258E+03 -0.17066854760E+03  0.26329797306E+03  0.12700000000E+03 0.  0.
   -5000001    1    1    2    0    0  0.10209609205E+03 -0.11681377258E+03 -0.73128449909E+03  0.75827111780E+03  0.12700000000E+03 0.  0.
<mgrwt>
<rscale>  0 0.47967083E+03</rscale>
<asrwt>0</asrwt>
<pdfrwt beam="1">  1        2 0.13739443E+00 0.47967083E+03</pdfrwt>
<pdfrwt beam="2">  1       -2 0.85440038E-02 0.47967083E+03</pdfrwt>
<totfact> 0.26273679E+03</totfact>
</mgrwt>
</event>
<event>
 4    1  0.1399921E-004  0.3268992E+03  0.7818608E-02  0.1072517E+00
         -2   -1    0    0    0  501 -0.00000000000E+00  0.00000000000E+00  0.14660897958E+02  0.14660898179E+02  0.25500000000E-02 0. -1.
          2   -1    0    0  501    0  0.00000000000E+00 -0.00000000000E+00 -0.18222470381E+04  0.18222470382E+04  0.25500000000E-02 0.  1.
    5000001    1    1    2    0    0 -0.32629502619E+02 -0.96823500862E+02 -0.97199234487E+03  0.98556460632E+03  0.12700000000E+03 0.  0.
   -5000001    1    1    2    0    0  0.32629502619E+02  0.96823500862E+02 -0.83559379533E+03  0.85134333001E+03  0.12700000000E+03 0.  0.
<mgrwt>
<rscale>  0 0.32689924E+03</rscale>
<asrwt>0</asrwt>
<pdfrwt beam="1">  1        2 0.26032086E+00 0.32689924E+03</pdfrwt>
<pdfrwt beam="2">  1       -2 0.20944152E-02 0.32689924E+03</pdfrwt>
<totfact> 0.78110183E+03</totfact>
</mgrwt>
</event>
<event>
 4    1  0.1399921E-004  0.3339749E+03  0.7818608E-02  0.1069391E+00
         -2   -1    0    0    0  501 -0.00000000000E+00  0.00000000000E+00  0.46396635317E+03  0.46396635317E+03  0.25500000000E-02 0. -1.
          2   -1    0    0  501    0  0.00000000000E+00 -0.00000000000E+00 -0.60100945874E+02  0.60100945928E+02  0.25500000000E-02 0.  1.
    5000001    1    1    2    0    0 -0.81806670187E+02 -0.69964482445E+02  0.18156616670E+03  0.24633845210E+03  0.12700000000E+03 0.  0.
   -5000001    1    1    2    0    0  0.81806670187E+02  0.69964482445E+02  0.22229924059E+03  0.27772884700E+03  0.12700000000E+03 0.  0.
<mgrwt>
<rscale>  0 0.33397495E+03</rscale>
<asrwt>0</asrwt>
<pdfrwt beam="1">  1        2 0.85858496E-02 0.33397495E+03</pdfrwt>
<pdfrwt beam="2">  1       -2 0.66280906E-01 0.33397495E+03</pdfrwt>
<totfact> 0.16738135E+03</totfact>
</mgrwt>
</event>
<event>
 4    1  0.1399921E-004  0.6287190E+03  0.7818608E-02  0.9847552E-01
         -2   -1    0    0    0  501 -0.00000000000E+00  0.00000000000E+00  0.61208602110E+02  0.61208602163E+02  0.25500000000E-02 0. -1.
          2   -1    0    0  501    0  0.00000000000E+00 -0.00000000000E+00 -0.16145100713E+04  0.16145100713E+04  0.25500000000E-02 0.  1.
    5000001    1    1    2    0    0  0.10773374518E+03  0.25581068001E+03 -0.97694229720E+03  0.10235188889E+04  0.12700000000E+03 0.  0.
   -5000001    1    1    2    0    0 -0.10773374518E+03 -0.25581068001E+03 -0.57635917197E+03  0.65219978456E+03  0.12700000000E+03 0.  0.
<mgrwt>
<rscale>  0 0.62871903E+03</rscale>
<asrwt>0</asrwt>
<pdfrwt beam="1">  1        2 0.23064427E+00 0.62871903E+03</pdfrwt>
<pdfrwt beam="2">  1       -2 0.87440870E-02 0.62871903E+03</pdfrwt>
<totfact> 0.11025460E+03</totfact>
</mgrwt>
</event>
<event>
 4    1  0.1399921E-004  0.2960705E+03  0.7818608E-02  0.1087222E+00
          2   -1    0    0  501    0  0.00000000000E+00  0.00000000000E+00  0.13082718778E+04  0.13082718778E+04  0.25500000000E-02 0.  1.
         -2   -1    0    0    0  501 -0.00000000000E+00 -0.00000000000E+00 -0.16750678350E+02  0.16750678544E+02  0.25500000000E-02 0. -1.
    5000001    1    1    2    0    0  0.68525708261E+02  0.29516219932E+02  0.71190843624E+03  0.72698665842E+03  0.12700000000E+03 0.  0.
   -5000001    1    1    2    0    0 -0.68525708261E+02 -0.29516219932E+02  0.57961276321E+03  0.59803589792E+03  0.12700000000E+03 0.  0.
<mgrwt>
<rscale>  0 0.29607054E+03</rscale>
<asrwt>0</asrwt>
<pdfrwt beam="1">  1        2 0.18689605E+00 0.29607054E+03</pdfrwt>
<pdfrwt beam="2">  1       -2 0.23929532E-02 0.29607054E+03</pdfrwt>
<totfact> 0.11638146E+04</totfact>
</mgrwt>
</event>
<event>
 4    1  0.1399921E-004  0.3760613E+03  0.7818608E-02  0.1052399E+00
          2   -1    0    0  501    0  0.00000000000E+00  0.00000000000E+00  0.11265776888E+03  0.11265776891E+03  0.25500000000E-02 0.  1.
         -2   -1    0    0    0  501 -0.00000000000E+00 -0.00000000000E+00 -0.31383126204E+03  0.31383126205E+03  0.25500000000E-02 0. -1.
    5000001    1    1    2    0    0  0.13364710682E+03  0.13633153183E+02 -0.61643891635E+02  0.19487529706E+03  0.12700000000E+03 0.  0.
   -5000001    1    1    2    0    0 -0.13364710682E+03 -0.13633153183E+02 -0.13952960152E+03  0.23161373390E+03  0.12700000000E+03 0.  0.
<mgrwt>
<rscale>  0 0.37606132E+03</rscale>
<asrwt>0</asrwt>
<pdfrwt beam="1">  1        2 0.16093967E-01 0.37606132E+03</pdfrwt>
<pdfrwt beam="2">  1       -2 0.44833037E-01 0.37606132E+03</pdfrwt>
<totfact> 0.17216321E+03</totfact>
</mgrwt>
</event>
<event>
 4    1  0.1399921E-004  0.3861437E+03  0.7818608E-02  0.1048686E+00
          2   -1    0    0  501    0  0.00000000000E+00  0.00000000000E+00  0.24535443682E+03  0.24535443683E+03  0.25500000000E-02 0.  1.
         -2   -1    0    0    0  501 -0.00000000000E+00 -0.00000000000E+00 -0.15193019918E+03  0.15193019920E+03  0.25500000000E-02 0. -1.
    5000001    1    1    2    0    0 -0.47592596098E+02  0.13404107128E+03  0.77845456829E+02  0.20596353838E+03  0.12700000000E+03 0.  0.
   -5000001    1    1    2    0    0  0.47592596098E+02 -0.13404107128E+03  0.15578780804E+02  0.19132109765E+03  0.12700000000E+03 0.  0.
<mgrwt>
<rscale>  0 0.38614375E+03</rscale>
<asrwt>0</asrwt>
<pdfrwt beam="1">  1        2 0.35050633E-01 0.38614375E+03</pdfrwt>
<pdfrwt beam="2">  1       -2 0.21704314E-01 0.38614375E+03</pdfrwt>
<totfact> 0.27111744E+03</totfact>
</mgrwt>
</event>
<event>
 4    1  0.1399921E-004  0.4859726E+03  0.7818608E-02  0.1017507E+00
         -2   -1    0    0    0  501 -0.00000000000E+00  0.00000000000E+00  0.59342501541E+02  0.59342501596E+02  0.25500000000E-02 0. -1.
          2   -1    0    0  501    0  0.00000000000E+00 -0.00000000000E+00 -0.99494173809E+03  0.99494173810E+03  0.25500000000E-02 0.  1.
    5000001    1    1    2    0    0 -0.13152074089E+03  0.15976719006E+03 -0.44721042582E+03  0.50887073532E+03  0.12700000000E+03 0.  0.
   -5000001    1    1    2    0    0  0.13152074089E+03 -0.15976719006E+03 -0.48838881073E+03  0.54541350437E+03  0.12700000000E+03 0.  0.
<mgrwt>
<rscale>  0 0.48597256E+03</rscale>
<asrwt>0</asrwt>
<pdfrwt beam="1">  1        2 0.14213452E+00 0.48597256E+03</pdfrwt>
<pdfrwt beam="2">  1       -2 0.84775009E-02 0.48597256E+03</pdfrwt>
<totfact> 0.25389210E+03</totfact>
</mgrwt>
</event>
<event>
 4    1  0.1399921E-004  0.3988645E+03  0.7818608E-02  0.1044174E+00
          2   -1    0    0  501    0  0.00000000000E+00  0.00000000000E+00  0.78602461761E+03  0.78602461761E+03  0.25500000000E-02 0.  1.
         -2   -1    0    0    0  501 -0.00000000000E+00 -0.00000000000E+00 -0.50600467737E+02  0.50600467801E+02  0.25500000000E-02 0. -1.
    5000001    1    1    2    0    0 -0.58188301351E+02 -0.13920772442E+03  0.30550576697E+03  0.36363091535E+03  0.12700000000E+03 0.  0.
   -5000001    1    1    2    0    0  0.58188301351E+02  0.13920772442E+03  0.42991838291E+03  0.47299417006E+03  0.12700000000E+03 0.  0.
<mgrwt>
<rscale>  0 0.39886445E+03</rscale>
<asrwt>0</asrwt>
<pdfrwt beam="1">  1        2 0.11228923E+00 0.39886445E+03</pdfrwt>
<pdfrwt beam="2">  1       -2 0.72286384E-02 0.39886445E+03</pdfrwt>
<totfact> 0.44447153E+03</totfact>
</mgrwt>
</event>
<event>
 4    1  0.1399921E-004  0.3599634E+03  0.7818608E-02  0.1058598E+00
          2   -1    0    0  501    0  0.00000000000E+00  0.00000000000E+00  0.49261120100E+02  0.49261120166E+02  0.25500000000E-02 0.  1.
         -2   -1    0    0    0  501 -0.00000000000E+00 -0.00000000000E+00 -0.65758565126E+03  0.65758565127E+03  0.25500000000E-02 0. -1.
    5000001    1    1    2    0    0  0.48034513684E+02 -0.10988459175E+03 -0.38936053062E+03  0.42674648307E+03  0.12700000000E+03 0.  0.
   -5000001    1    1    2    0    0 -0.48034513684E+02  0.10988459175E+03 -0.21896400054E+03  0.28010028836E+03  0.12700000000E+03 0.  0.
<mgrwt>
<rscale>  0 0.35996336E+03</rscale>
<asrwt>0</asrwt>
<pdfrwt beam="1">  1        2 0.70373033E-02 0.35996336E+03</pdfrwt>
<pdfrwt beam="2">  1       -2 0.93940802E-01 0.35996336E+03</pdfrwt>
<totfact> 0.10010087E+03</totfact>
</mgrwt>
</event>
<event>
 4    1  0.1399921E-004  0.3645073E+03  0.7818608E-02  0.1056813E+00
         -2   -1    0    0    0  501 -0.00000000000E+00  0.00000000000E+00  0.23864204844E+02  0.23864204980E+02  0.25500000000E-02 0. -1.
          2   -1    0    0  501    0  0.00000000000E+00 -0.00000000000E+00 -0.13918921436E+04  0.13918921436E+04  0.25500000000E-02 0.  1.
    5000001    1    1    2    0    0 -0.44314744555E+02  0.95114470233E+02 -0.98678976726E+03  0.10004467021E+04  0.12700000000E+03 0.  0.
   -5000001    1    1    2    0    0  0.44314744555E+02 -0.95114470233E+02 -0.38123817152E+03  0.41530964647E+03  0.12700000000E+03 0.  0.
<mgrwt>
<rscale>  0 0.36450734E+03</rscale>
<asrwt>0</asrwt>
<pdfrwt beam="1">  1        2 0.19884168E+00 0.36450734E+03</pdfrwt>
<pdfrwt beam="2">  1       -2 0.34091730E-02 0.36450734E+03</pdfrwt>
<totfact> 0.62253099E+03</totfact>
</mgrwt>
</event>
<event>
 4    1  0.1399921E-004  0.4804452E+03  0.7818608E-02  0.1019013E+00
          2   -1    0    0  501    0  0.00000000000E+00  0.00000000000E+00  0.98291400053E+03  0.98291400054E+03  0.25500000000E-02 0.  1.
         -2   -1    0    0    0  501 -0.00000000000E+00 -0.00000000000E+00 -0.58710009224E+02  0.58710009279E+02  0.25500000000E-02 0. -1.
    5000001    1    1    2    0    0  0.17281408269E+03  0.58156072016E+02  0.65998893470E+03  0.69639157793E+03  0.12700000000E+03 0.  0.
   -5000001    1    1    2    0    0 -0.17281408269E+03 -0.58156072016E+02  0.26421505662E+03  0.34523243189E+03  0.12700000000E+03 0.  0.
<mgrwt>
<rscale>  0 0.48044517E+03</rscale>
<asrwt>0</asrwt>
<pdfrwt beam="1">  1        2 0.14041627E+00 0.48044517E+03</pdfrwt>
<pdfrwt beam="2">  1       -2 0.83871448E-02 0.48044517E+03</pdfrwt>
<totfact> 0.26263935E+03</totfact>
</mgrwt>
</event>
<event>
 4    1  0.1399921E-004  0.3427306E+03  0.7818608E-02  0.1065639E+00
          2   -1    0    0  501    0  0.00000000000E+00  0.00000000000E+00  0.97516002036E+03  0.97516002037E+03  0.25500000000E-02 0.  1.
         -2   -1    0    0    0  501 -0.00000000000E+00 -0.00000000000E+00 -0.30114100298E+02  0.30114100406E+02  0.25500000000E-02 0. -1.
    5000001    1    1    2    0    0  0.89972161517E+02 -0.66885795507E+02  0.39669328596E+03  0.43135051016E+03  0.12700000000E+03 0.  0.
   -5000001    1    1    2    0    0 -0.89972161517E+02  0.66885795507E+02  0.54835263411E+03  0.57392361062E+03  0.12700000000E+03 0.  0.
<mgrwt>
<rscale>  0 0.34273060E+03</rscale>
<asrwt>0</asrwt>
<pdfrwt beam="1">  1        2 0.13930860E+00 0.34273060E+03</pdfrwt>
<pdfrwt beam="2">  1       -2 0.43020136E-02 0.34273060E+03</pdfrwt>
<totfact> 0.74529791E+03</totfact>
</mgrwt>
</event>
<event>
 4    1  0.1399921E-004  0.3746236E+03  0.7818608E-02  0.1052939E+00
          2   -1    0    0  501    0  0.00000000000E+00  0.00000000000E+00  0.99665791898E+02  0.99665791930E+02  0.25500000000E-02 0.  1.
         -2   -1    0    0    0  501 -0.00000000000E+00 -0.00000000000E+00 -0.35203370380E+03  0.35203370381E+03  0.25500000000E-02 0. -1.
    5000001    1    1    2    0    0 -0.90540445033E+02 -0.14687971045E+02 -0.23770251123E+01  0.15667788270E+03  0.12700000000E+03 0.  0.
   -5000001    1    1    2    0    0  0.90540445033E+02  0.14687971045E+02 -0.24999088679E+03  0.29502161303E+03  0.12700000000E+03 0.  0.
<mgrwt>
<rscale>  0 0.37462364E+03</rscale>
<asrwt>0</asrwt>
<pdfrwt beam="1">  1        2 0.14237970E-01 0.37462364E+03</pdfrwt>
<pdfrwt beam="2">  1       -2 0.50290528E-01 0.37462364E+03</pdfrwt>
<totfact> 0.15862595E+03</totfact>
</mgrwt>
</event>
<event>
 4    1  0.1399921E-004  0.5330743E+03  0.7818608E-02  0.1005489E+00
         -2   -1    0    0    0  501 -0.00000000000E+00  0.00000000000E+00  0.68752251841E+02  0.68752251888E+02  0.25500000000E-02 0. -1.
          2   -1    0    0  501    0  0.00000000000E+00 -0.00000000000E+00 -0.10333049245E+04  0.10333049245E+04  0.25500000000E-02 0.  1.
    5000001    1    1    2    0    0  0.10199996547E+03 -0.15520410423E+03 -0.18684804215E+03  0.29246110474E+03  0.12700000000E+03 0.  0.
   -5000001    1    1    2    0    0 -0.10199996547E+03  0.15520410423E+03 -0.77770463051E+03  0.80959607166E+03  0.12700000000E+03 0.  0.
<mgrwt>
<rscale>  0 0.53307426E+03</rscale>
<asrwt>0</asrwt>
<pdfrwt beam="1">  1        2 0.14761498E+00 0.53307426E+03</pdfrwt>
<pdfrwt beam="2">  1       -2 0.98217509E-02 0.53307426E+03</pdfrwt>
<totfact> 0.19010480E+03</totfact>
</mgrwt>
</event>
<event>
 4    1  0.1399921E-004  0.3023037E+03  0.7818608E-02  0.1084095E+00
          2   -1    0    0  501    0  0.00000000000E+00  0.00000000000E+00  0.49744168463E+03  0.49744168463E+03  0.25500000000E-02 0.  1.
         -2   -1    0    0    0  501 -0.00000000000E+00 -0.00000000000E+00 -0.45928758337E+02  0.45928758407E+02  0.25500000000E-02 0. -1.
    5000001    1    1    2    0    0  0.26822277103E+02  0.68877023132E+02  0.16209588023E+03  0.21878654724E+03  0.12700000000E+03 0.  0.
   -5000001    1    1    2    0    0 -0.26822277103E+02 -0.68877023132E+02  0.28941704606E+03  0.32458389580E+03  0.12700000000E+03 0.  0.
<mgrwt>
<rscale>  0 0.30230368E+03</rscale>
<asrwt>0</asrwt>
<pdfrwt beam="1">  1        2 0.71063095E-01 0.30230368E+03</pdfrwt>
<pdfrwt beam="2">  1       -2 0.65612514E-02 0.30230368E+03</pdfrwt>
<totfact> 0.87592140E+03</totfact>
</mgrwt>
</event>
<event>
 4    1  0.1399921E-004  0.2719987E+03  0.7818608E-02  0.1100141E+00
         -2   -1    0    0    0  501 -0.00000000000E+00  0.00000000000E+00  0.39994461408E+01  0.39994469538E+01  0.25500000000E-02 0. -1.
          2   -1    0    0  501    0  0.00000000000E+00 -0.00000000000E+00 -0.46245949869E+04  0.46245949869E+04  0.25500000000E-02 0.  1.
    5000001    1    1    2    0    0  0.94482491861E+01 -0.47636921975E+02 -0.23592484448E+04  0.23631632974E+04  0.12700000000E+03 0.  0.
   -5000001    1    1    2    0    0 -0.94482491861E+01  0.47636921975E+02 -0.22613470960E+04  0.22654311365E+04  0.12700000000E+03 0.  0.
<mgrwt>
<rscale>  0 0.27199868E+03</rscale>
<asrwt>0</asrwt>
<pdfrwt beam="1">  1        2 0.66065300E+00 0.27199868E+03</pdfrwt>
<pdfrwt beam="2">  1       -2 0.57135247E-03 0.27199868E+03</pdfrwt>
<totfact> 0.12412354E+03</totfact>
</mgrwt>
</event>
<event>
 4    1  0.1399921E-004  0.6450876E+03  0.7818608E-02  0.9816041E-01
         -2   -1    0    0    0  501 -0.00000000000E+00  0.00000000000E+00  0.12952291879E+03  0.12952291881E+03  0.25500000000E-02 0. -1.
          2   -1    0    0  501    0  0.00000000000E+00 -0.00000000000E+00 -0.80321305064E+03  0.80321305064E+03  0.25500000000E-02 0.  1.
    5000001    1    1    2    0    0 -0.79256760918E+01 -0.10871571721E+03 -0.73551564287E+03  0.75431703177E+03  0.12700000000E+03 0.  0.
   -5000001    1    1    2    0    0  0.79256760918E+01  0.10871571721E+03  0.61825511021E+02  0.17841893768E+03  0.12700000000E+03 0.  0.
<mgrwt>
<rscale>  0 0.64508759E+03</rscale>
<asrwt>0</asrwt>
<pdfrwt beam="1">  1        2 0.11474472E+00 0.64508759E+03</pdfrwt>
<pdfrwt beam="2">  1       -2 0.18503275E-01 0.64508759E+03</pdfrwt>
<totfact> 0.92718323E+02</totfact>
</mgrwt>
</event>
<event>
 4    1  0.1399921E-004  0.1599621E+04  0.7818608E-02  0.8820781E-01
          2   -1    0    0  501    0  0.00000000000E+00  0.00000000000E+00  0.21685177907E+04  0.21685177907E+04  0.25500000000E-02 0.  1.
         -2   -1    0    0    0  501 -0.00000000000E+00 -0.00000000000E+00 -0.29499249803E+03  0.29499249804E+03  0.25500000000E-02 0. -1.
    5000001    1    1    2    0    0  0.28349148376E+03  0.64329857780E+03  0.14906853364E+04  0.16530191329E+04  0.12700000000E+03 0.  0.
   -5000001    1    1    2    0    0 -0.28349148376E+03 -0.64329857780E+03  0.38283995625E+03  0.81049115582E+03  0.12700000000E+03 0.  0.
<mgrwt>
<rscale>  0 0.15996206E+04</rscale>
<asrwt>0</asrwt>
<pdfrwt beam="1">  1        2 0.30978826E+00 0.15996206E+04</pdfrwt>
<pdfrwt beam="2">  1       -2 0.42141785E-01 0.15996206E+04</pdfrwt>
<totfact> 0.33674742E+01</totfact>
</mgrwt>
</event>
<event>
 4    1  0.1399921E-004  0.4016281E+03  0.7818608E-02  0.1043217E+00
         -2   -1    0    0    0  501 -0.00000000000E+00  0.00000000000E+00  0.15521551461E+02  0.15521551671E+02  0.25500000000E-02 0. -1.
          2   -1    0    0  501    0  0.00000000000E+00 -0.00000000000E+00 -0.25980826743E+04  0.25980826743E+04  0.25500000000E-02 0.  1.
    5000001    1    1    2    0    0  0.16488116291E+01 -0.15130290306E+03 -0.15260919342E+04  0.15388245120E+04  0.12700000000E+03 0.  0.
   -5000001    1    1    2    0    0 -0.16488116291E+01  0.15130290306E+03 -0.10564691886E+04  0.10747797139E+04  0.12700000000E+03 0.  0.
<mgrwt>
<rscale>  0 0.40162806E+03</rscale>
<asrwt>0</asrwt>
<pdfrwt beam="1">  1        2 0.37115439E+00 0.40162806E+03</pdfrwt>
<pdfrwt beam="2">  1       -2 0.22173662E-02 0.40162806E+03</pdfrwt>
<totfact> 0.29486160E+03</totfact>
</mgrwt>
</event>
<event>
 4    1  0.1399921E-004  0.5064536E+03  0.7818608E-02  0.1012108E+00
          2   -1    0    0  501    0  0.00000000000E+00  0.00000000000E+00  0.25791855793E+03  0.25791855794E+03  0.25500000000E-02 0.  1.
         -2   -1    0    0    0  501 -0.00000000000E+00 -0.00000000000E+00 -0.24862034749E+03  0.24862034750E+03  0.25500000000E-02 0. -1.
    5000001    1    1    2    0    0  0.29755996774E+01 -0.12749773707E+03 -0.17351085004E+03  0.24999908447E+03  0.12700000000E+03 0.  0.
   -5000001    1    1    2    0    0 -0.29755996774E+01  0.12749773707E+03  0.18280906048E+03  0.25653982098E+03  0.12700000000E+03 0.  0.
<mgrwt>
<rscale>  0 0.50645356E+03</rscale>
<asrwt>0</asrwt>
<pdfrwt beam="1">  1        2 0.36845509E-01 0.50645356E+03</pdfrwt>
<pdfrwt beam="2">  1       -2 0.35517192E-01 0.50645356E+03</pdfrwt>
<totfact> 0.10525058E+03</totfact>
</mgrwt>
</event>
<event>
 4    1  0.1399921E-004  0.4177531E+03  0.7818608E-02  0.1037800E+00
         -2   -1    0    0    0  501 -0.00000000000E+00  0.00000000000E+00  0.11301428586E+03  0.11301428589E+03  0.25500000000E-02 0. -1.
          2   -1    0    0  501    0  0.00000000000E+00 -0.00000000000E+00 -0.38605220106E+03  0.38605220107E+03  0.25500000000E-02 0.  1.
    5000001    1    1    2    0    0 -0.67391402178E+02 -0.12998093832E+03 -0.22954617390E+03  0.30042818005E+03  0.12700000000E+03 0.  0.
   -5000001    1    1    2    0    0  0.67391402178E+02  0.12998093832E+03 -0.43491741298E+02  0.19863830692E+03  0.12700000000E+03 0.  0.
<mgrwt>
<rscale>  0 0.41775310E+03</rscale>
<asrwt>0</asrwt>
<pdfrwt beam="1">  1        2 0.55150314E-01 0.41775310E+03</pdfrwt>
<pdfrwt beam="2">  1       -2 0.16144898E-01 0.41775310E+03</pdfrwt>
<totfact> 0.27456284E+03</totfact>
</mgrwt>
</event>
<event>
 4    1  0.1399921E-004  0.3200427E+03  0.7818608E-02  0.1075630E+00
         -2   -1    0    0    0  501 -0.00000000000E+00  0.00000000000E+00  0.12341536797E+03  0.12341536800E+03  0.25500000000E-02 0. -1.
          2   -1    0    0  501    0  0.00000000000E+00 -0.00000000000E+00 -0.20748497616E+03  0.20748497618E+03  0.25500000000E-02 0.  1.
    5000001    1    1    2    0    0 -0.10971360931E+01 -0.90030283388E+02 -0.80320483615E+02  0.17517715525E+03  0.12700000000E+03 0.  0.
   -5000001    1    1    2    0    0  0.10971360931E+01  0.90030283388E+02 -0.37491245750E+01  0.15572318893E+03  0.12700000000E+03 0.  0.
<mgrwt>
<rscale>  0 0.32004271E+03</rscale>
<asrwt>0</asrwt>
<pdfrwt beam="1">  1        2 0.29640711E-01 0.32004271E+03</pdfrwt>
<pdfrwt beam="2">  1       -2 0.17630767E-01 0.32004271E+03</pdfrwt>
<totfact> 0.46372727E+03</totfact>
</mgrwt>
</event>
<event>
 4    1  0.1399921E-004  0.4510429E+03  0.7818608E-02  0.1027411E+00
         -2   -1    0    0    0  501 -0.00000000000E+00  0.00000000000E+00  0.21868442761E+02  0.21868442909E+02  0.25500000000E-02 0. -1.
          2   -1    0    0  501    0  0.00000000000E+00 -0.00000000000E+00 -0.23257223562E+04  0.23257223562E+04  0.25500000000E-02 0.  1.
    5000001    1    1    2    0    0 -0.10258157993E+03 -0.15495594097E+03 -0.10789478162E+04  0.11021758998E+04  0.12700000000E+03 0.  0.
   -5000001    1    1    2    0    0  0.10258157993E+03  0.15495594097E+03 -0.12249060973E+04  0.12454148993E+04  0.12700000000E+03 0.  0.
<mgrwt>
<rscale>  0 0.45104291E+03</rscale>
<asrwt>0</asrwt>
<pdfrwt beam="1">  1        2 0.33224590E+00 0.45104291E+03</pdfrwt>
<pdfrwt beam="2">  1       -2 0.31240647E-02 0.45104291E+03</pdfrwt>
<totfact> 0.24140688E+03</totfact>
</mgrwt>
</event>
<event>
 4    1  0.1399921E-004  0.5327656E+03  0.7818608E-02  0.1005564E+00
          2   -1    0    0  501    0  0.00000000000E+00  0.00000000000E+00  0.14336040552E+04  0.14336040552E+04  0.25500000000E-02 0.  1.
         -2   -1    0    0    0  501 -0.00000000000E+00 -0.00000000000E+00 -0.49497493539E+02  0.49497493605E+02  0.25500000000E-02 0. -1.
    5000001    1    1    2    0    0  0.87363643745E+02 -0.24447274361E+02  0.12929931912E+04  0.13023787729E+04  0.12700000000E+03 0.  0.
   -5000001    1    1    2    0    0 -0.87363643745E+02  0.24447274361E+02  0.91113370449E+02  0.18072277595E+03  0.12700000000E+03 0.  0.
<mgrwt>
<rscale>  0 0.53276564E+03</rscale>
<asrwt>0</asrwt>
<pdfrwt beam="1">  1        2 0.20480056E+00 0.53276564E+03</pdfrwt>
<pdfrwt beam="2">  1       -2 0.70710711E-02 0.53276564E+03</pdfrwt>
<totfact> 0.19250011E+03</totfact>
</mgrwt>
</event>
<event>
 4    1  0.1399921E-004  0.2655837E+03  0.7818608E-02  0.1103834E+00
         -2   -1    0    0    0  501 -0.00000000000E+00  0.00000000000E+00  0.13591019093E+03  0.13591019096E+03  0.25500000000E-02 0. -1.
          2   -1    0    0  501    0  0.00000000000E+00 -0.00000000000E+00 -0.12974502310E+03  0.12974502313E+03  0.25500000000E-02 0.  1.
    5000001    1    1    2    0    0 -0.19663573540E+02 -0.11971366613E+02 -0.28146030642E+02  0.13210287197E+03  0.12700000000E+03 0.  0.
   -5000001    1    1    2    0    0  0.19663573540E+02  0.11971366613E+02  0.34311198471E+02  0.13355234211E+03  0.12700000000E+03 0.  0.
<mgrwt>
<rscale>  0 0.26558367E+03</rscale>
<asrwt>0</asrwt>
<pdfrwt beam="1">  1        2 0.18535003E-01 0.26558367E+03</pdfrwt>
<pdfrwt beam="2">  1       -2 0.19415742E-01 0.26558367E+03</pdfrwt>
<totfact> 0.66429570E+03</totfact>
</mgrwt>
</event>
<event>
 4    1  0.1399921E-004  0.4482089E+03  0.7818608E-02  0.1028258E+00
         -2   -1    0    0    0  501 -0.00000000000E+00  0.00000000000E+00  0.15572291981E+02  0.15572292189E+02  0.25500000000E-02 0. -1.
          2   -1    0    0  501    0  0.00000000000E+00 -0.00000000000E+00 -0.32251386978E+04  0.32251386978E+04  0.25500000000E-02 0.  1.
    5000001    1    1    2    0    0  0.38282932302E+02 -0.17978056281E+03 -0.14780623966E+04  0.14948525285E+04  0.12700000000E+03 0.  0.
   -5000001    1    1    2    0    0 -0.38282932302E+02  0.17978056281E+03 -0.17315040092E+04  0.17458584615E+04  0.12700000000E+03 0.  0.
<mgrwt>
<rscale>  0 0.44820889E+03</rscale>
<asrwt>0</asrwt>
<pdfrwt beam="1">  1        2 0.46073367E+00 0.44820889E+03</pdfrwt>
<pdfrwt beam="2">  1       -2 0.22246152E-02 0.44820889E+03</pdfrwt>
<totfact> 0.13552450E+03</totfact>
</mgrwt>
</event>
<event>
 4    1  0.1399921E-004  0.3113450E+03  0.7818608E-02  0.1079703E+00
          2   -1    0    0  501    0  0.00000000000E+00  0.00000000000E+00  0.14882569044E+04  0.14882569044E+04  0.25500000000E-02 0.  1.
         -2   -1    0    0    0  501 -0.00000000000E+00 -0.00000000000E+00 -0.16283433019E+02  0.16283433219E+02  0.25500000000E-02 0. -1.
    5000001    1    1    2    0    0  0.74831117664E+02  0.39467141706E+02  0.58723230265E+03  0.60673563330E+03  0.12700000000E+03 0.  0.
   -5000001    1    1    2    0    0 -0.74831117664E+02 -0.39467141706E+02  0.88474116871E+03  0.89780470429E+03  0.12700000000E+03 0.  0.
<mgrwt>
<rscale>  0 0.31134503E+03</rscale>
<asrwt>0</asrwt>
<pdfrwt beam="1">  1        2 0.21260802E+00 0.31134503E+03</pdfrwt>
<pdfrwt beam="2">  1       -2 0.23262059E-02 0.31134503E+03</pdfrwt>
<totfact> 0.98067177E+03</totfact>
</mgrwt>
</event>
<event>
 4    1  0.1399921E-004  0.5160592E+03  0.7818608E-02  0.1009670E+00
          2   -1    0    0  501    0  0.00000000000E+00  0.00000000000E+00  0.87488235533E+03  0.87488235533E+03  0.25500000000E-02 0.  1.
         -2   -1    0    0    0  501 -0.00000000000E+00 -0.00000000000E+00 -0.76100834631E+02  0.76100834674E+02  0.25500000000E-02 0. -1.
    5000001    1    1    2    0    0 -0.17597977793E+03  0.13478481537E+03  0.33258019637E+03  0.41937383766E+03  0.12700000000E+03 0.  0.
   -5000001    1    1    2    0    0  0.17597977793E+03 -0.13478481537E+03  0.46620132433E+03  0.53160935235E+03  0.12700000000E+03 0.  0.
<mgrwt>
<rscale>  0 0.51605921E+03</rscale>
<asrwt>0</asrwt>
<pdfrwt beam="1">  1        2 0.12498319E+00 0.51605921E+03</pdfrwt>
<pdfrwt beam="2">  1       -2 0.10871548E-01 0.51605921E+03</pdfrwt>
<totfact> 0.20240975E+03</totfact>
</mgrwt>
</event>
<event>
 4    1  0.1399921E-004  0.3210368E+03  0.7818608E-02  0.1075173E+00
          2   -1    0    0  501    0  0.00000000000E+00  0.00000000000E+00  0.29824399788E+04  0.29824399788E+04  0.25500000000E-02 0.  1.
         -2   -1    0    0    0  501 -0.00000000000E+00 -0.00000000000E+00 -0.86392866203E+01  0.86392869966E+01  0.25500000000E-02 0. -1.
    5000001    1    1    2    0    0 -0.64888301776E+01  0.93056603231E+02  0.12019303021E+04  0.12122157760E+04  0.12700000000E+03 0.  0.
   -5000001    1    1    2    0    0  0.64888301776E+01 -0.93056603231E+02  0.17718703900E+04  0.17788634898E+04  0.12700000000E+03 0.  0.
<mgrwt>
<rscale>  0 0.32103679E+03</rscale>
<asrwt>0</asrwt>
<pdfrwt beam="1">  1        2 0.42606279E+00 0.32103679E+03</pdfrwt>
<pdfrwt beam="2">  1       -2 0.12341840E-02 0.32103679E+03</pdfrwt>
<totfact> 0.44406727E+03</totfact>
</mgrwt>
</event>
<event>
 4    1  0.1399921E-004  0.5157998E+03  0.7818608E-02  0.1009735E+00
          2   -1    0    0  501    0  0.00000000000E+00  0.00000000000E+00  0.25970912363E+04  0.25970912363E+04  0.25500000000E-02 0.  1.
         -2   -1    0    0    0  501 -0.00000000000E+00 -0.00000000000E+00 -0.25610324384E+02  0.25610324511E+02  0.25500000000E-02 0. -1.
    5000001    1    1    2    0    0  0.18280870145E+03  0.12077169533E+03  0.10377576111E+04  0.10682109731E+04  0.12700000000E+03 0.  0.
   -5000001    1    1    2    0    0 -0.18280870145E+03 -0.12077169533E+03  0.15337233008E+04  0.15544905877E+04  0.12700000000E+03 0.  0.
<mgrwt>
<rscale>  0 0.51579976E+03</rscale>
<asrwt>0</asrwt>
<pdfrwt beam="1">  1        2 0.37101330E+00 0.51579976E+03</pdfrwt>
<pdfrwt beam="2">  1       -2 0.36586151E-02 0.51579976E+03</pdfrwt>
<totfact> 0.13771338E+03</totfact>
</mgrwt>
</event>
<event>
 4    1  0.1399921E-004  0.3503374E+03  0.7818608E-02  0.1062477E+00
         -2   -1    0    0    0  501 -0.00000000000E+00  0.00000000000E+00  0.25207696493E+02  0.25207696622E+02  0.25500000000E-02 0. -1.
          2   -1    0    0  501    0  0.00000000000E+00 -0.00000000000E+00 -0.12172500945E+04  0.12172500945E+04  0.25500000000E-02 0.  1.
    5000001    1    1    2    0    0 -0.10557820370E+03  0.41046817877E+02 -0.74325155380E+03  0.76248506253E+03  0.12700000000E+03 0.  0.
   -5000001    1    1    2    0    0  0.10557820370E+03 -0.41046817877E+02 -0.44879084425E+03  0.47997272864E+03  0.12700000000E+03 0.  0.
<mgrwt>
<rscale>  0 0.35033739E+03</rscale>
<asrwt>0</asrwt>
<pdfrwt beam="1">  1        2 0.17389283E+00 0.35033739E+03</pdfrwt>
<pdfrwt beam="2">  1       -2 0.36011003E-02 0.35033739E+03</pdfrwt>
<totfact> 0.70965277E+03</totfact>
</mgrwt>
</event>
<event>
 4    1  0.1399921E-004  0.3944452E+03  0.7818608E-02  0.1045720E+00
         -2   -1    0    0    0  501 -0.00000000000E+00  0.00000000000E+00  0.22501856817E+02  0.22501856962E+02  0.25500000000E-02 0. -1.
          2   -1    0    0  501    0  0.00000000000E+00 -0.00000000000E+00 -0.17286023398E+04  0.17286023398E+04  0.25500000000E-02 0.  1.
    5000001    1    1    2    0    0 -0.45773081336E+02  0.11672365564E+02 -0.14892402212E+04  0.14953918736E+04  0.12700000000E+03 0.  0.
   -5000001    1    1    2    0    0  0.45773081336E+02 -0.11672365564E+02 -0.21686026177E+03  0.25571232318E+03  0.12700000000E+03 0.  0.
<mgrwt>
<rscale>  0 0.39444524E+03</rscale>
<asrwt>0</asrwt>
<pdfrwt beam="1">  1        2 0.24694311E+00 0.39444524E+03</pdfrwt>
<pdfrwt beam="2">  1       -2 0.32145521E-02 0.39444524E+03</pdfrwt>
<totfact> 0.45882682E+03</totfact>
</mgrwt>
</event>
<event>
 4    1  0.1399921E-004  0.6229672E+03  0.7818608E-02  0.9858870E-01
         -2   -1    0    0    0  501 -0.00000000000E+00  0.00000000000E+00  0.62920396843E+03  0.62920396843E+03  0.25500000000E-02 0. -1.
          2   -1    0    0  501    0  0.00000000000E+00 -0.00000000000E+00 -0.15419808500E+03  0.15419808502E+03  0.25500000000E-02 0.  1.
    5000001    1    1    2    0    0 -0.16024223587E+03  0.15797204800E+03  0.45625701229E+03  0.52433977855E+03  0.12700000000E+03 0.  0.
   -5000001    1    1    2    0    0  0.16024223587E+03 -0.15797204800E+03  0.18748871138E+02  0.25906227490E+03  0.12700000000E+03 0.  0.
<mgrwt>
<rscale>  0 0.62296724E+03</rscale>
<asrwt>0</asrwt>
<pdfrwt beam="1">  1        2 0.22028298E-01 0.62296724E+03</pdfrwt>
<pdfrwt beam="2">  1       -2 0.89886279E-01 0.62296724E+03</pdfrwt>
<totfact> 0.27185402E+02</totfact>
</mgrwt>
</event>
<event>
 4    1  0.1399921E-004  0.3729086E+03  0.7818608E-02  0.1053586E+00
         -2   -1    0    0    0  501 -0.00000000000E+00  0.00000000000E+00  0.43065991691E+02  0.43065991766E+02  0.25500000000E-02 0. -1.
          2   -1    0    0  501    0  0.00000000000E+00 -0.00000000000E+00 -0.80725431554E+03  0.80725431555E+03  0.25500000000E-02 0.  1.
    5000001    1    1    2    0    0  0.31008822638E+02 -0.13111260616E+03 -0.43226691277E+03  0.47025072722E+03  0.12700000000E+03 0.  0.
   -5000001    1    1    2    0    0 -0.31008822638E+02  0.13111260616E+03 -0.33192141108E+03  0.38006958009E+03  0.12700000000E+03 0.  0.
<mgrwt>
<rscale>  0 0.37290861E+03</rscale>
<asrwt>0</asrwt>
<pdfrwt beam="1">  1        2 0.11532204E+00 0.37290861E+03</pdfrwt>
<pdfrwt beam="2">  1       -2 0.61522850E-02 0.37290861E+03</pdfrwt>
<totfact> 0.55197671E+03</totfact>
</mgrwt>
</event>
<event>
 4    1  0.1399921E-004  0.9489680E+03  0.7818608E-02  0.9366358E-01
         -2   -1    0    0    0  501 -0.00000000000E+00  0.00000000000E+00  0.13412609801E+03  0.13412609803E+03  0.25500000000E-02 0. -1.
          2   -1    0    0  501    0  0.00000000000E+00 -0.00000000000E+00 -0.16785327349E+04  0.16785327349E+04  0.25500000000E-02 0.  1.
    5000001    1    1    2    0    0  0.42510900654E+03 -0.14285329462E+03 -0.60262752281E+03  0.76184884490E+03  0.12700000000E+03 0.  0.
   -5000001    1    1    2    0    0 -0.42510900654E+03  0.14285329462E+03 -0.94177911410E+03  0.10508099880E+04  0.12700000000E+03 0.  0.
<mgrwt>
<rscale>  0 0.94896796E+03</rscale>
<asrwt>0</asrwt>
<pdfrwt beam="1">  1        2 0.23979038E+00 0.94896796E+03</pdfrwt>
<pdfrwt beam="2">  1       -2 0.19160872E-01 0.94896796E+03</pdfrwt>
<totfact> 0.27114915E+02</totfact>
</mgrwt>
</event>
<event>
 4    1  0.1399921E-004  0.1059425E+04  0.7818608E-02  0.9245667E-01
          2   -1    0    0  501    0  0.00000000000E+00  0.00000000000E+00  0.52679045974E+04  0.52679045974E+04  0.25500000000E-02 0.  1.
         -2   -1    0    0    0  501 -0.00000000000E+00 -0.00000000000E+00 -0.53265048281E+02  0.53265048342E+02  0.25500000000E-02 0. -1.
    5000001    1    1    2    0    0 -0.19947941528E+03  0.45403658253E+03  0.19236988118E+04  0.19906499878E+04  0.12700000000E+03 0.  0.
   -5000001    1    1    2    0    0  0.19947941528E+03 -0.45403658253E+03  0.32909407373E+04  0.33305196579E+04  0.12700000000E+03 0.  0.
<mgrwt>
<rscale>  0 0.10594247E+04</rscale>
<asrwt>0</asrwt>
<pdfrwt beam="1">  1        2 0.75255788E+00 0.10594247E+04</pdfrwt>
<pdfrwt beam="2">  1       -2 0.76092918E-02 0.10594247E+04</pdfrwt>
<totfact> 0.54379625E+00</totfact>
</mgrwt>
</event>
<event>
 4    1  0.1399921E-004  0.1509011E+04  0.7818608E-02  0.8878483E-01
          2   -1    0    0  501    0  0.00000000000E+00  0.00000000000E+00  0.63592315259E+03  0.63592315259E+03  0.25500000000E-02 0.  1.
         -2   -1    0    0    0  501 -0.00000000000E+00 -0.00000000000E+00 -0.89520038953E+03  0.89520038954E+03  0.25500000000E-02 0. -1.
    5000001    1    1    2    0    0 -0.43145693520E+03  0.60508163403E+03 -0.15958006619E+03  0.77063199278E+03  0.12700000000E+03 0.  0.
   -5000001    1    1    2    0    0  0.43145693520E+03 -0.60508163403E+03 -0.99697170754E+02  0.76049154935E+03  0.12700000000E+03 0.  0.
<mgrwt>
<rscale>  0 0.15090111E+04</rscale>
<asrwt>0</asrwt>
<pdfrwt beam="1">  1        2 0.90846165E-01 0.15090111E+04</pdfrwt>
<pdfrwt beam="2">  1       -2 0.12788577E+00 0.15090111E+04</pdfrwt>
<totfact> 0.22161336E+01</totfact>
</mgrwt>
</event>
<event>
 4    1  0.1399921E-004  0.4715249E+03  0.7818608E-02  0.1021491E+00
          2   -1    0    0  501    0  0.00000000000E+00  0.00000000000E+00  0.35156175274E+04  0.35156175274E+04  0.25500000000E-02 0.  1.
         -2   -1    0    0    0  501 -0.00000000000E+00 -0.00000000000E+00 -0.15810572076E+02  0.15810572282E+02  0.25500000000E-02 0. -1.
    5000001    1    1    2    0    0  0.66614735942E+02  0.16283316948E+03  0.24405021562E+04  0.24501289637E+04  0.12700000000E+03 0.  0.
   -5000001    1    1    2    0    0 -0.66614735942E+02 -0.16283316948E+03  0.10593047991E+04  0.10812991360E+04  0.12700000000E+03 0.  0.
<mgrwt>
<rscale>  0 0.47152487E+03</rscale>
<asrwt>0</asrwt>
<pdfrwt beam="1">  1        2 0.50223083E+00 0.47152487E+03</pdfrwt>
<pdfrwt beam="2">  1       -2 0.22586543E-02 0.47152487E+03</pdfrwt>
<totfact> 0.89967627E+02</totfact>
</mgrwt>
</event>
<event>
 4    1  0.1399921E-004  0.7566151E+03  0.7818608E-02  0.9625029E-01
          2   -1    0    0  501    0  0.00000000000E+00  0.00000000000E+00  0.45175097003E+03  0.45175097003E+03  0.25500000000E-02 0.  1.
         -2   -1    0    0    0  501 -0.00000000000E+00 -0.00000000000E+00 -0.31680419832E+03  0.31680419833E+03  0.25500000000E-02 0. -1.
    5000001    1    1    2    0    0  0.26586269897E+03  0.16454002752E+03 -0.10619606317E+03  0.35378383116E+03  0.12700000000E+03 0.  0.
   -5000001    1    1    2    0    0 -0.26586269897E+03 -0.16454002752E+03  0.24114283487E+03  0.41477133721E+03  0.12700000000E+03 0.  0.
<mgrwt>
<rscale>  0 0.75661510E+03</rscale>
<asrwt>0</asrwt>
<pdfrwt beam="1">  1        2 0.64535853E-01 0.75661510E+03</pdfrwt>
<pdfrwt beam="2">  1       -2 0.45257743E-01 0.75661510E+03</pdfrwt>
<totfact> 0.35139111E+02</totfact>
</mgrwt>
</event>
<event>
 4    1  0.1399921E-004  0.4075872E+03  0.7818608E-02  0.1041184E+00
          2   -1    0    0  501    0  0.00000000000E+00  0.00000000000E+00  0.26739454374E+04  0.26739454374E+04  0.25500000000E-02 0.  1.
         -2   -1    0    0    0  501 -0.00000000000E+00 -0.00000000000E+00 -0.15532043234E+02  0.15532043443E+02  0.25500000000E-02 0. -1.
    5000001    1    1    2    0    0 -0.64624141073E+02 -0.14317917768E+03  0.15070343757E+04  0.15205124682E+04  0.12700000000E+03 0.  0.
   -5000001    1    1    2    0    0  0.64624141073E+02  0.14317917768E+03  0.11513790185E+04  0.11689650126E+04  0.12700000000E+03 0.  0.
<mgrwt>
<rscale>  0 0.40758722E+03</rscale>
<asrwt>0</asrwt>
<pdfrwt beam="1">  1        2 0.38199196E+00 0.40758722E+03</pdfrwt>
<pdfrwt beam="2">  1       -2 0.22188647E-02 0.40758722E+03</pdfrwt>
<totfact> 0.26922331E+03</totfact>
</mgrwt>
</event>
<event>
 4    1  0.1399921E-004  0.3068337E+03  0.7818608E-02  0.1081874E+00
         -2   -1    0    0    0  501 -0.00000000000E+00  0.00000000000E+00  0.51119545934E+02  0.51119545998E+02  0.25500000000E-02 0. -1.
          2   -1    0    0  501    0  0.00000000000E+00 -0.00000000000E+00 -0.46042516336E+03  0.46042516337E+03  0.25500000000E-02 0.  1.
    5000001    1    1    2    0    0 -0.49759496650E+02 -0.66653036423E+02 -0.24152298476E+03  0.28527353003E+03  0.12700000000E+03 0.  0.
   -5000001    1    1    2    0    0  0.49759496650E+02  0.66653036423E+02 -0.16778263267E+03  0.22627117933E+03  0.12700000000E+03 0.  0.
<mgrwt>
<rscale>  0 0.30683367E+03</rscale>
<asrwt>0</asrwt>
<pdfrwt beam="1">  1        2 0.65775021E-01 0.30683367E+03</pdfrwt>
<pdfrwt beam="2">  1       -2 0.73027925E-02 0.30683367E+03</pdfrwt>
<totfact> 0.80835396E+03</totfact>
</mgrwt>
</event>
<event>
 4    1  0.1399921E-004  0.3235935E+03  0.7818608E-02  0.1074007E+00
          2   -1    0    0  501    0  0.00000000000E+00  0.00000000000E+00  0.38049568417E+03  0.38049568418E+03  0.25500000000E-02 0.  1.
         -2   -1    0    0    0  501 -0.00000000000E+00 -0.00000000000E+00 -0.68800232830E+02  0.68800232878E+02  0.25500000000E-02 0. -1.
    5000001    1    1    2    0    0  0.96795680211E+02 -0.15901408309E+02  0.12715891072E+03  0.20474532246E+03  0.12700000000E+03 0.  0.
   -5000001    1    1    2    0    0 -0.96795680211E+02  0.15901408309E+02  0.18453654062E+03  0.24455059460E+03  0.12700000000E+03 0.  0.
<mgrwt>
<rscale>  0 0.32359352E+03</rscale>
<asrwt>0</asrwt>
<pdfrwt beam="1">  1        2 0.54356524E-01 0.32359352E+03</pdfrwt>
<pdfrwt beam="2">  1       -2 0.98286051E-02 0.32359352E+03</pdfrwt>
<totfact> 0.62455161E+03</totfact>
</mgrwt>
</event>
<event>
 4    1  0.1399921E-004  0.4205430E+03  0.7818608E-02  0.1036890E+00
         -2   -1    0    0    0  501 -0.00000000000E+00  0.00000000000E+00  0.15406454213E+03  0.15406454215E+03  0.25500000000E-02 0. -1.
          2   -1    0    0  501    0  0.00000000000E+00 -0.00000000000E+00 -0.28698425316E+03  0.28698425317E+03  0.25500000000E-02 0.  1.
    5000001    1    1    2    0    0 -0.11991333728E+03  0.63696935221E+02  0.36556973574E+02  0.18947802070E+03  0.12700000000E+03 0.  0.
   -5000001    1    1    2    0    0  0.11991333728E+03 -0.63696935221E+02 -0.16947668460E+03  0.25157077461E+03  0.12700000000E+03 0.  0.
<mgrwt>
<rscale>  0 0.42054297E+03</rscale>
<asrwt>0</asrwt>
<pdfrwt beam="1">  1        2 0.40997750E-01 0.42054297E+03</pdfrwt>
<pdfrwt beam="2">  1       -2 0.22009220E-01 0.42054297E+03</pdfrwt>
<totfact> 0.22315465E+03</totfact>
</mgrwt>
</event>
<event>
 4    1  0.1399921E-004  0.4612409E+03  0.7818608E-02  0.1024422E+00
          2   -1    0    0  501    0  0.00000000000E+00  0.00000000000E+00  0.52252214284E+03  0.52252214285E+03  0.25500000000E-02 0.  1.
         -2   -1    0    0    0  501 -0.00000000000E+00 -0.00000000000E+00 -0.10178668534E+03  0.10178668537E+03  0.25500000000E-02 0. -1.
    5000001    1    1    2    0    0 -0.18380752284E+03  0.27001832853E+02  0.14211791245E+03  0.26615936104E+03  0.12700000000E+03 0.  0.
   -5000001    1    1    2    0    0  0.18380752284E+03 -0.27001832853E+02  0.27861754505E+03  0.35814946718E+03  0.12700000000E+03 0.  0.
<mgrwt>
<rscale>  0 0.46124092E+03</rscale>
<asrwt>0</asrwt>
<pdfrwt beam="1">  1        2 0.74646021E-01 0.46124092E+03</pdfrwt>
<pdfrwt beam="2">  1       -2 0.14540955E-01 0.46124092E+03</pdfrwt>
<totfact> 0.23388822E+03</totfact>
</mgrwt>
</event>
<event>
 4    1  0.1399921E-004  0.4170702E+03  0.7818608E-02  0.1038024E+00
          2   -1    0    0  501    0  0.00000000000E+00  0.00000000000E+00  0.70187050508E+02  0.70187050554E+02  0.25500000000E-02 0.  1.
         -2   -1    0    0    0  501 -0.00000000000E+00 -0.00000000000E+00 -0.61958565236E+03  0.61958565237E+03  0.25500000000E-02 0. -1.
    5000001    1    1    2    0    0 -0.12988323926E+03  0.97357936632E+02 -0.22214773461E+03  0.30302943695E+03  0.12700000000E+03 0.  0.
   -5000001    1    1    2    0    0  0.12988323926E+03 -0.97357936632E+02 -0.32725086724E+03  0.38674326597E+03  0.12700000000E+03 0.  0.
<mgrwt>
<rscale>  0 0.41707021E+03</rscale>
<asrwt>0</asrwt>
<pdfrwt beam="1">  1        2 0.10026722E-01 0.41707021E+03</pdfrwt>
<pdfrwt beam="2">  1       -2 0.88512233E-01 0.41707021E+03</pdfrwt>
<totfact> 0.73055424E+02</totfact>
</mgrwt>
</event>
<event>
 4    1  0.1399921E-004  0.1596475E+04  0.7818608E-02  0.8822717E-01
          2   -1    0    0  501    0  0.00000000000E+00  0.00000000000E+00  0.89954218739E+03  0.89954218739E+03  0.25500000000E-02 0.  1.
         -2   -1    0    0    0  501 -0.00000000000E+00 -0.00000000000E+00 -0.70834133576E+03  0.70834133576E+03  0.25500000000E-02 0. -1.
    5000001    1    1    2    0    0 -0.43742198434E+03 -0.43920274962E+03  0.58571638428E+03  0.86222371254E+03  0.12700000000E+03 0.  0.
   -5000001    1    1    2    0    0  0.43742198434E+03  0.43920274962E+03 -0.39451553265E+03  0.74565981061E+03  0.12700000000E+03 0.  0.
<mgrwt>
<rscale>  0 0.15964748E+04</rscale>
<asrwt>0</asrwt>
<pdfrwt beam="1">  1        2 0.12850603E+00 0.15964748E+04</pdfrwt>
<pdfrwt beam="2">  1       -2 0.10119162E+00 0.15964748E+04</pdfrwt>
<totfact> 0.25127972E+01</totfact>
</mgrwt>
</event>
<event>
 4    1  0.1399921E-004  0.7077342E+03  0.7818608E-02  0.9704096E-01
         -2   -1    0    0    0  501 -0.00000000000E+00  0.00000000000E+00  0.37864802388E+03  0.37864802389E+03  0.25500000000E-02 0. -1.
          2   -1    0    0  501    0  0.00000000000E+00 -0.00000000000E+00 -0.33070796553E+03  0.33070796554E+03  0.25500000000E-02 0.  1.
    5000001    1    1    2    0    0 -0.32206298364E+03 -0.48305295528E+02  0.79186657577E+02  0.35840967307E+03  0.12700000000E+03 0.  0.
   -5000001    1    1    2    0    0  0.32206298364E+03  0.48305295528E+02 -0.31246599230E+02  0.35094631637E+03  0.12700000000E+03 0.  0.
<mgrwt>
<rscale>  0 0.70773418E+03</rscale>
<asrwt>0</asrwt>
<pdfrwt beam="1">  1        2 0.47243995E-01 0.70773418E+03</pdfrwt>
<pdfrwt beam="2">  1       -2 0.54092575E-01 0.70773418E+03</pdfrwt>
<totfact> 0.34721062E+02</totfact>
</mgrwt>
</event>
<event>
 4    1  0.1399921E-004  0.3671721E+03  0.7818608E-02  0.1055780E+00
         -2   -1    0    0    0  501 -0.00000000000E+00  0.00000000000E+00  0.19299952019E+02  0.19299952187E+02  0.25500000000E-02 0. -1.
          2   -1    0    0  501    0  0.00000000000E+00 -0.00000000000E+00 -0.17463168636E+04  0.17463168636E+04  0.25500000000E-02 0.  1.
    5000001    1    1    2    0    0  0.71185137515E+00 -0.12481255825E+03 -0.64866434624E+03  0.67266121898E+03  0.12700000000E+03 0.  0.
   -5000001    1    1    2    0    0 -0.71185137515E+00  0.12481255825E+03 -0.10783525654E+04  0.10929555968E+04  0.12700000000E+03 0.  0.
<mgrwt>
<rscale>  0 0.36717207E+03</rscale>
<asrwt>0</asrwt>
<pdfrwt beam="1">  1        2 0.24947374E+00 0.36717207E+03</pdfrwt>
<pdfrwt beam="2">  1       -2 0.27571371E-02 0.36717207E+03</pdfrwt>
<totfact> 0.56611637E+03</totfact>
</mgrwt>
</event>
<event>
 4    1  0.1399921E-004  0.3682611E+03  0.7818608E-02  0.1055360E+00
          2   -1    0    0  501    0  0.00000000000E+00  0.00000000000E+00  0.46234402673E+03  0.46234402674E+03  0.25500000000E-02 0.  1.
         -2   -1    0    0    0  501 -0.00000000000E+00 -0.00000000000E+00 -0.73330810128E+02  0.73330810172E+02  0.25500000000E-02 0. -1.
    5000001    1    1    2    0    0 -0.13135475134E+03 -0.79509171566E+01  0.22562886438E+03  0.29043875813E+03  0.12700000000E+03 0.  0.
   -5000001    1    1    2    0    0  0.13135475134E+03  0.79509171566E+01  0.16338435222E+03  0.24523607878E+03  0.12700000000E+03 0.  0.
<mgrwt>
<rscale>  0 0.36826111E+03</rscale>
<asrwt>0</asrwt>
<pdfrwt beam="1">  1        2 0.66049144E-01 0.36826111E+03</pdfrwt>
<pdfrwt beam="2">  1       -2 0.10475830E-01 0.36826111E+03</pdfrwt>
<totfact> 0.45717812E+03</totfact>
</mgrwt>
</event>
<event>
 4    1  0.1399921E-004  0.3851276E+03  0.7818608E-02  0.1049055E+00
         -2   -1    0    0    0  501 -0.00000000000E+00  0.00000000000E+00  0.49621057984E+02  0.49621058049E+02  0.25500000000E-02 0. -1.
          2   -1    0    0  501    0  0.00000000000E+00 -0.00000000000E+00 -0.74727967823E+03  0.74727967823E+03  0.25500000000E-02 0.  1.
    5000001    1    1    2    0    0 -0.13299607869E+03  0.35878981942E+02 -0.44082204631E+03  0.47898677937E+03  0.12700000000E+03 0.  0.
   -5000001    1    1    2    0    0  0.13299607869E+03 -0.35878981942E+02 -0.25683657393E+03  0.31791395691E+03  0.12700000000E+03 0.  0.
<mgrwt>
<rscale>  0 0.38512755E+03</rscale>
<asrwt>0</asrwt>
<pdfrwt beam="1">  1        2 0.10675423E+00 0.38512755E+03</pdfrwt>
<pdfrwt beam="2">  1       -2 0.70887230E-02 0.38512755E+03</pdfrwt>
<totfact> 0.48759328E+03</totfact>
</mgrwt>
</event>
<event>
 4    1  0.1399921E-004  0.5778175E+03  0.7818608E-02  0.9952527E-01
          2   -1    0    0  501    0  0.00000000000E+00  0.00000000000E+00  0.82695927069E+03  0.82695927070E+03  0.25500000000E-02 0.  1.
         -2   -1    0    0    0  501 -0.00000000000E+00 -0.00000000000E+00 -0.10093396338E+03  0.10093396341E+03  0.25500000000E-02 0. -1.
    5000001    1    1    2    0    0  0.18979653806E+03  0.79853741526E+02  0.61661595997E+03  0.66237722484E+03  0.12700000000E+03 0.  0.
   -5000001    1    1    2    0    0 -0.18979653806E+03 -0.79853741526E+02  0.10940934734E+03  0.26551600927E+03  0.12700000000E+03 0.  0.
<mgrwt>
<rscale>  0 0.57781754E+03</rscale>
<asrwt>0</asrwt>
<pdfrwt beam="1">  1        2 0.11813704E+00 0.57781754E+03</pdfrwt>
<pdfrwt beam="2">  1       -2 0.14419137E-01 0.57781754E+03</pdfrwt>
<totfact> 0.13662881E+03</totfact>
</mgrwt>
</event>
<event>
 4    1  0.1399921E-004  0.6408860E+03  0.7818608E-02  0.9824033E-01
         -2   -1    0    0    0  501 -0.00000000000E+00  0.00000000000E+00  0.29408193979E+03  0.29408193980E+03  0.25500000000E-02 0. -1.
          2   -1    0    0  501    0  0.00000000000E+00 -0.00000000000E+00 -0.34916707528E+03  0.34916707529E+03  0.25500000000E-02 0.  1.
    5000001    1    1    2    0    0  0.18950288107E+03  0.13853360853E+02 -0.25298478179E+03  0.34093042891E+03  0.12700000000E+03 0.  0.
   -5000001    1    1    2    0    0 -0.18950288107E+03 -0.13853360853E+02  0.19789964630E+03  0.30231858617E+03  0.12700000000E+03 0.  0.
<mgrwt>
<rscale>  0 0.64088605E+03</rscale>
<asrwt>0</asrwt>
<pdfrwt beam="1">  1        2 0.49881011E-01 0.64088605E+03</pdfrwt>
<pdfrwt beam="2">  1       -2 0.42011705E-01 0.64088605E+03</pdfrwt>
<totfact> 0.54442244E+02</totfact>
</mgrwt>
</event>
<event>
 4    1  0.1399921E-004  0.3698795E+03  0.7818608E-02  0.1054739E+00
          2   -1    0    0  501    0  0.00000000000E+00  0.00000000000E+00  0.23676948049E+03  0.23676948050E+03  0.25500000000E-02 0.  1.
         -2   -1    0    0    0  501 -0.00000000000E+00 -0.00000000000E+00 -0.14445575975E+03  0.14445575977E+03  0.25500000000E-02 0. -1.
    5000001    1    1    2    0    0  0.98853091520E+02 -0.87826606628E+02  0.71155087851E+02  0.19666594281E+03  0.12700000000E+03 0.  0.
   -5000001    1    1    2    0    0 -0.98853091520E+02  0.87826606628E+02  0.21158632892E+02  0.18455929746E+03  0.12700000000E+03 0.  0.
<mgrwt>
<rscale>  0 0.36987952E+03</rscale>
<asrwt>0</asrwt>
<pdfrwt beam="1">  1        2 0.33824212E-01 0.36987952E+03</pdfrwt>
<pdfrwt beam="2">  1       -2 0.20636537E-01 0.36987952E+03</pdfrwt>
<totfact> 0.30749160E+03</totfact>
</mgrwt>
</event>
<event>
 4    1  0.1399921E-004  0.2901486E+03  0.7818608E-02  0.1090272E+00
          2   -1    0    0  501    0  0.00000000000E+00  0.00000000000E+00  0.12773769755E+04  0.12773769755E+04  0.25500000000E-02 0.  1.
         -2   -1    0    0    0  501 -0.00000000000E+00 -0.00000000000E+00 -0.16476383808E+02  0.16476384005E+02  0.25500000000E-02 0. -1.
    5000001    1    1    2    0    0 -0.55734251506E+02 -0.37881406536E+02  0.71694715497E+03  0.73122057600E+03  0.12700000000E+03 0.  0.
   -5000001    1    1    2    0    0  0.55734251506E+02  0.37881406536E+02  0.54395343676E+03  0.56263278354E+03  0.12700000000E+03 0.  0.
<mgrwt>
<rscale>  0 0.29014861E+03</rscale>
<asrwt>0</asrwt>
<pdfrwt beam="1">  1        2 0.18248247E+00 0.29014861E+03</pdfrwt>
<pdfrwt beam="2">  1       -2 0.23537686E-02 0.29014861E+03</pdfrwt>
<totfact> 0.12376690E+04</totfact>
</mgrwt>
</event>
<event>
 4    1  0.1399921E-004  0.6566745E+03  0.7818608E-02  0.9794335E-01
          2   -1    0    0  501    0  0.00000000000E+00  0.00000000000E+00  0.17845630206E+04  0.17845630206E+04  0.25500000000E-02 0. -1.
         -2   -1    0    0    0  501 -0.00000000000E+00 -0.00000000000E+00 -0.60409940502E+02  0.60409940556E+02  0.25500000000E-02 0.  1.
    5000001    1    1    2    0    0  0.29071641836E+03  0.11385731792E+02  0.10976565183E+04  0.11426392707E+04  0.12700000000E+03 0.  0.
   -5000001    1    1    2    0    0 -0.29071641836E+03 -0.11385731792E+02  0.62649656175E+03  0.70233369041E+03  0.12700000000E+03 0.  0.
<mgrwt>
<rscale>  0 0.65667449E+03</rscale>
<asrwt>0</asrwt>
<pdfrwt beam="1">  1        2 0.25493759E+00 0.65667449E+03</pdfrwt>
<pdfrwt beam="2">  1       -2 0.86299911E-02 0.65667449E+03</pdfrwt>
<totfact> 0.92095974E+02</totfact>
</mgrwt>
</event>
<event>
 4    1  0.1399921E-004  0.3729997E+03  0.7818608E-02  0.1053552E+00
         -2   -1    0    0    0  501 -0.00000000000E+00  0.00000000000E+00  0.42536559835E+03  0.42536559836E+03  0.25500000000E-02 0. -1.
          2   -1    0    0  501    0  0.00000000000E+00 -0.00000000000E+00 -0.81770097770E+02  0.81770097810E+02  0.25500000000E-02 0.  1.
    5000001    1    1    2    0    0 -0.57217261411E+02 -0.34741305293E+02  0.99384536114E+01  0.14390464258E+03  0.12700000000E+03 0.  0.
   -5000001    1    1    2    0    0  0.57217261411E+02  0.34741305293E+02  0.33365704697E+03  0.36323105359E+03  0.12700000000E+03 0.  0.
<mgrwt>
<rscale>  0 0.37299966E+03</rscale>
<asrwt>0</asrwt>
<pdfrwt beam="1">  1        2 0.11681443E-01 0.37299966E+03</pdfrwt>
<pdfrwt beam="2">  1       -2 0.60766513E-01 0.37299966E+03</pdfrwt>
<totfact> 0.13697267E+03</totfact>
</mgrwt>
</event>
<event>
 4    1  0.1399921E-004  0.5684536E+03  0.7818608E-02  0.9973106E-01
          2   -1    0    0  501    0  0.00000000000E+00  0.00000000000E+00  0.83906647787E+03  0.83906647787E+03  0.25500000000E-02 0.  1.
         -2   -1    0    0    0  501 -0.00000000000E+00 -0.00000000000E+00 -0.96279473763E+02  0.96279473797E+02  0.25500000000E-02 0. -1.
    5000001    1    1    2    0    0 -0.46281166093E+02 -0.23640849934E+03  0.23746633834E+03  0.36131729372E+03  0.12700000000E+03 0.  0.
   -5000001    1    1    2    0    0  0.46281166093E+02  0.23640849934E+03  0.50532066577E+03  0.57402865795E+03  0.12700000000E+03 0.  0.
<mgrwt>
<rscale>  0 0.56845362E+03</rscale>
<asrwt>0</asrwt>
<pdfrwt beam="1">  1        2 0.11986664E+00 0.56845362E+03</pdfrwt>
<pdfrwt beam="2">  1       -2 0.13754211E-01 0.56845362E+03</pdfrwt>
<totfact> 0.14510270E+03</totfact>
</mgrwt>
</event>
<event>
 4    1  0.1399921E-004  0.3784687E+03  0.7818608E-02  0.1051501E+00
         -2   -1    0    0    0  501 -0.00000000000E+00  0.00000000000E+00  0.20849449019E+02  0.20849449175E+02  0.25500000000E-02 0. -1.
          2   -1    0    0  501    0  0.00000000000E+00 -0.00000000000E+00 -0.17175344186E+04  0.17175344186E+04  0.25500000000E-02 0.  1.
    5000001    1    1    2    0    0 -0.47895786676E+02  0.11149844633E+03 -0.11716575588E+04  0.11847515963E+04  0.12700000000E+03 0.  0.
   -5000001    1    1    2    0    0  0.47895786676E+02 -0.11149844633E+03 -0.52502741080E+03  0.55363227146E+03  0.12700000000E+03 0.  0.
<mgrwt>
<rscale>  0 0.37846874E+03</rscale>
<asrwt>0</asrwt>
<pdfrwt beam="1">  1        2 0.24536197E+00 0.37846874E+03</pdfrwt>
<pdfrwt beam="2">  1       -2 0.29784938E-02 0.37846874E+03</pdfrwt>
<totfact> 0.52119328E+03</totfact>
</mgrwt>
</event>
<event>
 4    1  0.1399921E-004  0.3002340E+03  0.7818608E-02  0.1085124E+00
         -2   -1    0    0    0  501 -0.00000000000E+00  0.00000000000E+00  0.14666990717E+03  0.14666990720E+03  0.25500000000E-02 0. -1.
          2   -1    0    0  501    0  0.00000000000E+00 -0.00000000000E+00 -0.15364507680E+03  0.15364507682E+03  0.25500000000E-02 0.  1.
    5000001    1    1    2    0    0  0.10926311446E+02  0.72287784264E+02  0.29097287483E+02  0.14940066993E+03  0.12700000000E+03 0.  0.
   -5000001    1    1    2    0    0 -0.10926311446E+02 -0.72287784264E+02 -0.36072457111E+02  0.15091431409E+03  0.12700000000E+03 0.  0.
<mgrwt>
<rscale>  0 0.30023397E+03</rscale>
<asrwt>0</asrwt>
<pdfrwt beam="1">  1        2 0.21949297E-01 0.30023397E+03</pdfrwt>
<pdfrwt beam="2">  1       -2 0.20952844E-01 0.30023397E+03</pdfrwt>
<totfact> 0.48252600E+03</totfact>
</mgrwt>
</event>
<event>
 4    1  0.1399921E-004  0.3776391E+03  0.7818608E-02  0.1051810E+00
         -2   -1    0    0    0  501 -0.00000000000E+00  0.00000000000E+00  0.63959833429E+03  0.63959833430E+03  0.25500000000E-02 0. -1.
          2   -1    0    0  501    0  0.00000000000E+00 -0.00000000000E+00 -0.55742529425E+02  0.55742529484E+02  0.25500000000E-02 0.  1.
    5000001    1    1    2    0    0  0.69176467884E+02 -0.84353070382E+02  0.45269007092E+03  0.48265735724E+03  0.12700000000E+03 0.  0.
   -5000001    1    1    2    0    0 -0.69176467884E+02  0.84353070382E+02  0.13116573395E+03  0.21268350654E+03  0.12700000000E+03 0.  0.
<mgrwt>
<rscale>  0 0.37763913E+03</rscale>
<asrwt>0</asrwt>
<pdfrwt beam="1">  1        2 0.79632184E-02 0.37763913E+03</pdfrwt>
<pdfrwt beam="2">  1       -2 0.91371192E-01 0.37763913E+03</pdfrwt>
<totfact> 0.90993985E+02</totfact>
</mgrwt>
</event>
<event>
 4    1  0.1399921E-004  0.5815921E+03  0.7818608E-02  0.9944350E-01
          2   -1    0    0  501    0  0.00000000000E+00  0.00000000000E+00  0.18111066189E+04  0.18111066189E+04  0.25500000000E-02 0.  1.
         -2   -1    0    0    0  501 -0.00000000000E+00 -0.00000000000E+00 -0.46690983238E+02  0.46690983308E+02  0.25500000000E-02 0. -1.
    5000001    1    1    2    0    0 -0.20491086756E+03  0.14523249104E+03  0.11159055617E+04  0.11508497568E+04  0.12700000000E+03 0.  0.
   -5000001    1    1    2    0    0  0.20491086756E+03 -0.14523249104E+03  0.64851007401E+03  0.70694784545E+03  0.12700000000E+03 0.  0.
<mgrwt>
<rscale>  0 0.58159212E+03</rscale>
<asrwt>0</asrwt>
<pdfrwt beam="1">  1        2 0.25872956E+00 0.58159212E+03</pdfrwt>
<pdfrwt beam="2">  1       -2 0.66701393E-02 0.58159212E+03</pdfrwt>
<totfact> 0.13496588E+03</totfact>
</mgrwt>
</event>
<event>
 4    1  0.1399921E-004  0.3224923E+03  0.7818608E-02  0.1074508E+00
          2   -1    0    0  501    0  0.00000000000E+00  0.00000000000E+00  0.70732349503E+02  0.70732349549E+02  0.25500000000E-02 0.  1.
         -2   -1    0    0    0  501 -0.00000000000E+00 -0.00000000000E+00 -0.36758738310E+03  0.36758738311E+03  0.25500000000E-02 0. -1.
    5000001    1    1    2    0    0 -0.75803716303E+02  0.57993548176E+02 -0.11091203930E+03  0.19375225288E+03  0.12700000000E+03 0.  0.
   -5000001    1    1    2    0    0  0.75803716303E+02 -0.57993548176E+02 -0.18594299430E+03  0.24456747977E+03  0.12700000000E+03 0.  0.
<mgrwt>
<rscale>  0 0.32249229E+03</rscale>
<asrwt>0</asrwt>
<pdfrwt beam="1">  1        2 0.10104622E-01 0.32249229E+03</pdfrwt>
<pdfrwt beam="2">  1       -2 0.52512482E-01 0.32249229E+03</pdfrwt>
<totfact> 0.22073687E+03</totfact>
</mgrwt>
</event>
<event>
 4    1  0.1399921E-004  0.3139044E+03  0.7818608E-02  0.1078489E+00
          2   -1    0    0  501    0  0.00000000000E+00  0.00000000000E+00  0.11662900583E+03  0.11662900586E+03  0.25500000000E-02 0.  1.
         -2   -1    0    0    0  501 -0.00000000000E+00 -0.00000000000E+00 -0.21121664873E+03  0.21121664874E+03  0.25500000000E-02 0. -1.
    5000001    1    1    2    0    0  0.86654809369E+02  0.31525931374E+02 -0.45799388647E+02  0.16349166442E+03  0.12700000000E+03 0.  0.
   -5000001    1    1    2    0    0 -0.86654809369E+02 -0.31525931374E+02 -0.48788254249E+02  0.16435399018E+03  0.12700000000E+03 0.  0.
<mgrwt>
<rscale>  0 0.31390437E+03</rscale>
<asrwt>0</asrwt>
<pdfrwt beam="1">  1        2 0.16661287E-01 0.31390437E+03</pdfrwt>
<pdfrwt beam="2">  1       -2 0.30173807E-01 0.31390437E+03</pdfrwt>
<totfact> 0.34816741E+03</totfact>
</mgrwt>
</event>
<event>
 4    1  0.1399921E-004  0.7218589E+03  0.7818608E-02  0.9680564E-01
         -2   -1    0    0    0  501 -0.00000000000E+00  0.00000000000E+00  0.18368757589E+03  0.18368757591E+03  0.25500000000E-02 0. -1.
          2   -1    0    0  501    0  0.00000000000E+00 -0.00000000000E+00 -0.70919361415E+03  0.70919361416E+03  0.25500000000E-02 0.  1.
    5000001    1    1    2    0    0 -0.17936514707E+03  0.18576300021E+03  0.67174809316E+01  0.28784348661E+03  0.12700000000E+03 0.  0.
   -5000001    1    1    2    0    0  0.17936514707E+03 -0.18576300021E+03 -0.53222351919E+03  0.60503770346E+03  0.12700000000E+03 0.  0.
<mgrwt>
<rscale>  0 0.72185887E+03</rscale>
<asrwt>0</asrwt>
<pdfrwt beam="1">  1        2 0.10131337E+00 0.72185887E+03</pdfrwt>
<pdfrwt beam="2">  1       -2 0.26241083E-01 0.72185887E+03</pdfrwt>
<totfact> 0.58331836E+02</totfact>
</mgrwt>
</event>
<event>
 4    1  0.1399921E-004  0.3373411E+03  0.7818608E-02  0.1067934E+00
         -2   -1    0    0    0  501 -0.00000000000E+00  0.00000000000E+00  0.28468663683E+03  0.28468663685E+03  0.25500000000E-02 0. -1.
          2   -1    0    0  501    0  0.00000000000E+00 -0.00000000000E+00 -0.99933572582E+02  0.99933572615E+02  0.25500000000E-02 0.  1.
    5000001    1    1    2    0    0  0.95954363919E+02  0.47508747134E+02  0.59010142285E+02  0.17628249460E+03  0.12700000000E+03 0.  0.
   -5000001    1    1    2    0    0 -0.95954363919E+02 -0.47508747134E+02  0.12574292197E+03  0.20833771486E+03  0.12700000000E+03 0.  0.
<mgrwt>
<rscale>  0 0.33734109E+03</rscale>
<asrwt>0</asrwt>
<pdfrwt beam="1">  1        2 0.14276224E-01 0.33734109E+03</pdfrwt>
<pdfrwt beam="2">  1       -2 0.40669521E-01 0.33734109E+03</pdfrwt>
<totfact> 0.23962573E+03</totfact>
</mgrwt>
</event>
<event>
 4    1  0.1399921E-004  0.3730009E+03  0.7818608E-02  0.1053551E+00
          2   -1    0    0  501    0  0.00000000000E+00  0.00000000000E+00  0.79938636109E+03  0.79938636110E+03  0.25500000000E-02 0.  1.
         -2   -1    0    0    0  501 -0.00000000000E+00 -0.00000000000E+00 -0.43511397110E+02  0.43511397185E+02  0.25500000000E-02 0. -1.
    5000001    1    1    2    0    0 -0.12550672095E+03 -0.10872609445E+02  0.49715564921E+03  0.52835867570E+03  0.12700000000E+03 0.  0.
   -5000001    1    1    2    0    0  0.12550672095E+03  0.10872609445E+02  0.25871931477E+03  0.31453908259E+03  0.12700000000E+03 0.  0.
<mgrwt>
<rscale>  0 0.37300090E+03</rscale>
<asrwt>0</asrwt>
<pdfrwt beam="1">  1        2 0.11419805E+00 0.37300090E+03</pdfrwt>
<pdfrwt beam="2">  1       -2 0.62159141E-02 0.37300090E+03</pdfrwt>
<totfact> 0.54996994E+03</totfact>
</mgrwt>
</event>
<event>
 4    1  0.1399921E-004  0.3542378E+03  0.7818608E-02  0.1060889E+00
         -2   -1    0    0    0  501 -0.00000000000E+00  0.00000000000E+00  0.33715561173E+02  0.33715561270E+02  0.25500000000E-02 0. -1.
          2   -1    0    0  501    0  0.00000000000E+00 -0.00000000000E+00 -0.93046385299E+03  0.93046385300E+03  0.25500000000E-02 0.  1.
    5000001    1    1    2    0    0 -0.12024411245E+03 -0.22322177168E+02 -0.40240926698E+03  0.43933944089E+03  0.12700000000E+03 0.  0.
   -5000001    1    1    2    0    0  0.12024411245E+03  0.22322177168E+02 -0.49433902484E+03  0.52483997338E+03  0.12700000000E+03 0.  0.
<mgrwt>
<rscale>  0 0.35423784E+03</rscale>
<asrwt>0</asrwt>
<pdfrwt beam="1">  1        2 0.13292339E+00 0.35423784E+03</pdfrwt>
<pdfrwt beam="2">  1       -2 0.48165093E-02 0.35423784E+03</pdfrwt>
<totfact> 0.66874914E+03</totfact>
</mgrwt>
</event>
<event>
 4    1  0.1399921E-004  0.5663166E+03  0.7818608E-02  0.9977863E-01
          2   -1    0    0  501    0  0.00000000000E+00  0.00000000000E+00  0.24168589634E+04  0.24168589634E+04  0.25500000000E-02 0.  1.
         -2   -1    0    0    0  501 -0.00000000000E+00 -0.00000000000E+00 -0.33174725099E+02  0.33174725197E+02  0.25500000000E-02 0. -1.
    5000001    1    1    2    0    0  0.88103960785E+02  0.23389118604E+03  0.13639292963E+04  0.13924437224E+04  0.12700000000E+03 0.  0.
   -5000001    1    1    2    0    0 -0.88103960785E+02 -0.23389118604E+03  0.10197549420E+04  0.10575899661E+04  0.12700000000E+03 0.  0.
<mgrwt>
<rscale>  0 0.56631663E+03</rscale>
<asrwt>0</asrwt>
<pdfrwt beam="1">  1        2 0.34526549E+00 0.56631663E+03</pdfrwt>
<pdfrwt beam="2">  1       -2 0.47392474E-02 0.56631663E+03</pdfrwt>
<totfact> 0.11405957E+03</totfact>
</mgrwt>
</event>
<event>
 4    1  0.1399921E-004  0.4866334E+03  0.7818608E-02  0.1017328E+00
         -2   -1    0    0    0  501 -0.00000000000E+00  0.00000000000E+00  0.10136375163E+03  0.10136375167E+03  0.25500000000E-02 0. -1.
          2   -1    0    0  501    0  0.00000000000E+00 -0.00000000000E+00 -0.58406504858E+03  0.58406504859E+03  0.25500000000E-02 0.  1.
    5000001    1    1    2    0    0 -0.14491002829E+03 -0.13067315505E+03 -0.14175748069E+03  0.27257764597E+03  0.12700000000E+03 0.  0.
   -5000001    1    1    2    0    0  0.14491002829E+03  0.13067315505E+03 -0.34094381626E+03  0.41285115429E+03  0.12700000000E+03 0.  0.
<mgrwt>
<rscale>  0 0.48663343E+03</rscale>
<asrwt>0</asrwt>
<pdfrwt beam="1">  1        2 0.83437862E-01 0.48663343E+03</pdfrwt>
<pdfrwt beam="2">  1       -2 0.14480536E-01 0.48663343E+03</pdfrwt>
<totfact> 0.20733953E+03</totfact>
</mgrwt>
</event>
<event>
 4    1  0.1399921E-004  0.5220429E+03  0.7818608E-02  0.1008180E+00
          2   -1    0    0  501    0  0.00000000000E+00  0.00000000000E+00  0.52806369715E+03  0.52806369715E+03  0.25500000000E-02 0.  1.
         -2   -1    0    0    0  501 -0.00000000000E+00 -0.00000000000E+00 -0.12902266908E+03  0.12902266910E+03  0.25500000000E-02 0. -1.
    5000001    1    1    2    0    0 -0.19992132019E+03  0.13559133006E+02  0.33654247815E+03  0.41175505335E+03  0.12700000000E+03 0.  0.
   -5000001    1    1    2    0    0  0.19992132019E+03 -0.13559133006E+02  0.62498549913E+02  0.24533131291E+03  0.12700000000E+03 0.  0.
<mgrwt>
<rscale>  0 0.52204286E+03</rscale>
<asrwt>0</asrwt>
<pdfrwt beam="1">  1        2 0.75437670E-01 0.52204286E+03</pdfrwt>
<pdfrwt beam="2">  1       -2 0.18431810E-01 0.52204286E+03</pdfrwt>
<totfact> 0.15480879E+03</totfact>
</mgrwt>
</event>
<event>
 4    1  0.1399921E-004  0.3125730E+03  0.7818608E-02  0.1079119E+00
          2   -1    0    0  501    0  0.00000000000E+00  0.00000000000E+00  0.27083807157E+03  0.27083807158E+03  0.25500000000E-02 0.  1.
         -2   -1    0    0    0  501 -0.00000000000E+00 -0.00000000000E+00 -0.90184783787E+02  0.90184783823E+02  0.25500000000E-02 0. -1.
    5000001    1    1    2    0    0 -0.28772489673E+02 -0.56872470701E+02  0.16548300739E+03  0.21811914134E+03  0.12700000000E+03 0.  0.
   -5000001    1    1    2    0    0  0.28772489673E+02  0.56872470701E+02  0.15170280395E+02  0.14290371406E+03  0.12700000000E+03 0.  0.
<mgrwt>
<rscale>  0 0.31257302E+03</rscale>
<asrwt>0</asrwt>
<pdfrwt beam="1">  1        2 0.38691153E-01 0.31257302E+03</pdfrwt>
<pdfrwt beam="2">  1       -2 0.12883541E-01 0.31257302E+03</pdfrwt>
<totfact> 0.58268415E+03</totfact>
</mgrwt>
</event>
<event>
 4    1  0.1399921E-004  0.6707732E+03  0.7818608E-02  0.9768562E-01
          2   -1    0    0  501    0  0.00000000000E+00  0.00000000000E+00  0.41136165118E+04  0.41136165118E+04  0.25500000000E-02 0.  1.
         -2   -1    0    0    0  501 -0.00000000000E+00 -0.00000000000E+00 -0.27344348550E+02  0.27344348669E+02  0.25500000000E-02 0. -1.
    5000001    1    1    2    0    0  0.13125009156E+03 -0.27967303102E+03  0.22295254755E+04  0.22544082232E+04  0.12700000000E+03 0.  0.
   -5000001    1    1    2    0    0 -0.13125009156E+03  0.27967303102E+03  0.18567466877E+04  0.18865526373E+04  0.12700000000E+03 0.  0.
<mgrwt>
<rscale>  0 0.67077318E+03</rscale>
<asrwt>0</asrwt>
<pdfrwt beam="1">  1        2 0.58765960E+00 0.67077318E+03</pdfrwt>
<pdfrwt beam="2">  1       -2 0.39063349E-02 0.67077318E+03</pdfrwt>
<totfact> 0.15853625E+02</totfact>
</mgrwt>
</event>
<event>
 4    1  0.1399921E-004  0.4030128E+03  0.7818608E-02  0.1042741E+00
         -2   -1    0    0    0  501 -0.00000000000E+00  0.00000000000E+00  0.23437513585E+02  0.23437513724E+02  0.25500000000E-02 0. -1.
          2   -1    0    0  501    0  0.00000000000E+00 -0.00000000000E+00 -0.17324718144E+04  0.17324718144E+04  0.25500000000E-02 0.  1.
    5000001    1    1    2    0    0  0.49212549635E+02 -0.74201832232E+02 -0.14149925782E+04  0.14234678722E+04  0.12700000000E+03 0.  0.
   -5000001    1    1    2    0    0 -0.49212549635E+02  0.74201832232E+02 -0.29404172258E+03  0.33244145585E+03  0.12700000000E+03 0.  0.
<mgrwt>
<rscale>  0 0.40301281E+03</rscale>
<asrwt>0</asrwt>
<pdfrwt beam="1">  1        2 0.24749589E+00 0.40301281E+03</pdfrwt>
<pdfrwt beam="2">  1       -2 0.33482173E-02 0.40301281E+03</pdfrwt>
<totfact> 0.42954147E+03</totfact>
</mgrwt>
</event>
<event>
 4    1  0.1399921E-004  0.5501157E+03  0.7818608E-02  0.1001467E+00
          2   -1    0    0  501    0  0.00000000000E+00  0.00000000000E+00  0.29055388239E+03  0.29055388240E+03  0.25500000000E-02 0.  1.
         -2   -1    0    0    0  501 -0.00000000000E+00 -0.00000000000E+00 -0.26038826241E+03  0.26038826242E+03  0.25500000000E-02 0. -1.
    5000001    1    1    2    0    0 -0.19692864289E+03  0.14945011673E+02  0.15855855286E+03  0.28332676974E+03  0.12700000000E+03 0.  0.
   -5000001    1    1    2    0    0  0.19692864289E+03 -0.14945011673E+02 -0.12839293288E+03  0.26761537508E+03  0.12700000000E+03 0.  0.
<mgrwt>
<rscale>  0 0.55011570E+03</rscale>
<asrwt>0</asrwt>
<pdfrwt beam="1">  1        2 0.41507698E-01 0.55011570E+03</pdfrwt>
<pdfrwt beam="2">  1       -2 0.37198323E-01 0.55011570E+03</pdfrwt>
<totfact> 0.84503997E+02</totfact>
</mgrwt>
</event>
<event>
 4    1  0.1399921E-004  0.8031451E+03  0.7818608E-02  0.9555476E-01
         -2   -1    0    0    0  501 -0.00000000000E+00  0.00000000000E+00  0.14145497301E+03  0.14145497303E+03  0.25500000000E-02 0. -1.
          2   -1    0    0  501    0  0.00000000000E+00 -0.00000000000E+00 -0.11400128933E+04  0.11400128933E+04  0.25500000000E-02 0.  1.
    5000001    1    1    2    0    0 -0.28290992638E+03  0.25486119060E+03 -0.48045131678E+03  0.62606287281E+03  0.12700000000E+03 0.  0.
   -5000001    1    1    2    0    0  0.28290992638E+03 -0.25486119060E+03 -0.51810660348E+03  0.65540499348E+03  0.12700000000E+03 0.  0.
<mgrwt>
<rscale>  0 0.80314505E+03</rscale>
<asrwt>0</asrwt>
<pdfrwt beam="1">  1        2 0.16285898E+00 0.80314505E+03</pdfrwt>
<pdfrwt beam="2">  1       -2 0.20207854E-01 0.80314505E+03</pdfrwt>
<totfact> 0.48650524E+02</totfact>
</mgrwt>
</event>
<event>
 4    1  0.1399921E-004  0.3854086E+03  0.7818608E-02  0.1048953E+00
          2   -1    0    0  501    0  0.00000000000E+00  0.00000000000E+00  0.11516831749E+04  0.11516831749E+04  0.25500000000E-02 0.  1.
         -2   -1    0    0    0  501 -0.00000000000E+00 -0.00000000000E+00 -0.32244072592E+02  0.32244072693E+02  0.25500000000E-02 0. -1.
    5000001    1    1    2    0    0 -0.96475653687E+02 -0.10647556597E+03  0.50132498556E+03  0.53674979185E+03  0.12700000000E+03 0.  0.
   -5000001    1    1    2    0    0  0.96475653687E+02  0.10647556597E+03  0.61811411675E+03  0.64717745575E+03  0.12700000000E+03 0.  0.
<mgrwt>
<rscale>  0 0.38540865E+03</rscale>
<asrwt>0</asrwt>
<pdfrwt beam="1">  1        2 0.16452614E+00 0.38540865E+03</pdfrwt>
<pdfrwt beam="2">  1       -2 0.46062968E-02 0.38540865E+03</pdfrwt>
<totfact> 0.53160134E+03</totfact>
</mgrwt>
</event>
<event>
 4    1  0.1399921E-004  0.5305019E+03  0.7818608E-02  0.1006110E+00
         -2   -1    0    0    0  501 -0.00000000000E+00  0.00000000000E+00  0.79791900791E+02  0.79791900831E+02  0.25500000000E-02 0. -1.
          2   -1    0    0  501    0  0.00000000000E+00 -0.00000000000E+00 -0.88176938371E+03  0.88176938372E+03  0.25500000000E-02 0.  1.
    5000001    1    1    2    0    0 -0.18618246790E+03  0.11129571449E+03 -0.24741954106E+03  0.35269828000E+03  0.12700000000E+03 0.  0.
   -5000001    1    1    2    0    0  0.18618246790E+03 -0.11129571449E+03 -0.55455794186E+03  0.60886300454E+03  0.12700000000E+03 0.  0.
<mgrwt>
<rscale>  0 0.53050186E+03</rscale>
<asrwt>0</asrwt>
<pdfrwt beam="1">  1        2 0.12596705E+00 0.53050186E+03</pdfrwt>
<pdfrwt beam="2">  1       -2 0.11398843E-01 0.53050186E+03</pdfrwt>
<totfact> 0.18543093E+03</totfact>
</mgrwt>
</event>
<event>
 4    1  0.1399921E-004  0.4124267E+03  0.7818608E-02  0.1039560E+00
          2   -1    0    0  501    0  0.00000000000E+00  0.00000000000E+00  0.58578149308E+02  0.58578149364E+02  0.25500000000E-02 0.  1.
         -2   -1    0    0    0  501 -0.00000000000E+00 -0.00000000000E+00 -0.72593544339E+03  0.72593544340E+03  0.25500000000E-02 0. -1.
    5000001    1    1    2    0    0 -0.88551117509E+02 -0.13079320815E+03 -0.40603165120E+03  0.45380487600E+03  0.12700000000E+03 0.  0.
   -5000001    1    1    2    0    0  0.88551117509E+02  0.13079320815E+03 -0.26132564289E+03  0.33070871676E+03  0.12700000000E+03 0.  0.
<mgrwt>
<rscale>  0 0.41242674E+03</rscale>
<asrwt>0</asrwt>
<pdfrwt beam="1">  1        2 0.83683075E-02 0.41242674E+03</pdfrwt>
<pdfrwt beam="2">  1       -2 0.10370506E+00 0.41242674E+03</pdfrwt>
<totfact> 0.63657761E+02</totfact>
</mgrwt>
</event>
<event>
 4    1  0.1399921E-004  0.4024649E+03  0.7818608E-02  0.1042929E+00
          2   -1    0    0  501    0  0.00000000000E+00  0.00000000000E+00  0.21327361762E+03  0.21327361763E+03  0.25500000000E-02 0.  1.
         -2   -1    0    0    0  501 -0.00000000000E+00 -0.00000000000E+00 -0.18987112821E+03  0.18987112823E+03  0.25500000000E-02 0. -1.
    5000001    1    1    2    0    0 -0.16233972528E+02  0.13955682027E+03  0.79829765097E+02  0.20552722288E+03  0.12700000000E+03 0.  0.
   -5000001    1    1    2    0    0  0.16233972528E+02 -0.13955682027E+03 -0.56427275687E+02  0.19761752298E+03  0.12700000000E+03 0.  0.
<mgrwt>
<rscale>  0 0.40246492E+03</rscale>
<asrwt>0</asrwt>
<pdfrwt beam="1">  1        2 0.30467660E-01 0.40246492E+03</pdfrwt>
<pdfrwt beam="2">  1       -2 0.27124447E-01 0.40246492E+03</pdfrwt>
<totfact> 0.21334542E+03</totfact>
</mgrwt>
</event>
<event>
 4    1  0.1399921E-004  0.2972214E+03  0.7818608E-02  0.1086638E+00
         -2   -1    0    0    0  501 -0.00000000000E+00  0.00000000000E+00  0.74212106895E+02  0.74212106938E+02  0.25500000000E-02 0. -1.
          2   -1    0    0  501    0  0.00000000000E+00 -0.00000000000E+00 -0.29759484586E+03  0.29759484587E+03  0.25500000000E-02 0.  1.
    5000001    1    1    2    0    0 -0.63092167049E+02  0.24447870430E+02 -0.65257618687E+02  0.15800593884E+03  0.12700000000E+03 0.  0.
   -5000001    1    1    2    0    0  0.63092167049E+02 -0.24447870430E+02 -0.15812512028E+03  0.21380101397E+03  0.12700000000E+03 0.  0.
<mgrwt>
<rscale>  0 0.29722140E+03</rscale>
<asrwt>0</asrwt>
<pdfrwt beam="1">  1        2 0.42513549E-01 0.29722140E+03</pdfrwt>
<pdfrwt beam="2">  1       -2 0.10601730E-01 0.29722140E+03</pdfrwt>
<totfact> 0.71975674E+03</totfact>
</mgrwt>
</event>
<event>
 4    1  0.1399921E-004  0.5485661E+03  0.7818608E-02  0.1001826E+00
         -2   -1    0    0    0  501 -0.00000000000E+00  0.00000000000E+00  0.19868243972E+02  0.19868244136E+02  0.25500000000E-02 0. -1.
          2   -1    0    0  501    0  0.00000000000E+00 -0.00000000000E+00 -0.37865048101E+04  0.37865048101E+04  0.25500000000E-02 0.  1.
    5000001    1    1    2    0    0 -0.22997783327E+03 -0.61513800591E+01 -0.24285552671E+04  0.24427315302E+04  0.12700000000E+03 0.  0.
   -5000001    1    1    2    0    0  0.22997783327E+03  0.61513800591E+01 -0.13380812990E+04  0.13636415240E+04  0.12700000000E+03 0.  0.
<mgrwt>
<rscale>  0 0.54856614E+03</rscale>
<asrwt>0</asrwt>
<pdfrwt beam="1">  1        2 0.54092880E+00 0.54856614E+03</pdfrwt>
<pdfrwt beam="2">  1       -2 0.28383230E-02 0.54856614E+03</pdfrwt>
<totfact> 0.43145324E+02</totfact>
</mgrwt>
</event>
<event>
 4    1  0.1399921E-004  0.4500113E+03  0.7818608E-02  0.1027719E+00
          2   -1    0    0  501    0  0.00000000000E+00  0.00000000000E+00  0.17255775111E+04  0.17255775111E+04  0.25500000000E-02 0.  1.
         -2   -1    0    0    0  501 -0.00000000000E+00 -0.00000000000E+00 -0.29339477846E+02  0.29339477956E+02  0.25500000000E-02 0. -1.
    5000001    1    1    2    0    0 -0.18329102799E+03  0.10636887616E+02  0.73852384319E+03  0.77152784219E+03  0.12700000000E+03 0.  0.
   -5000001    1    1    2    0    0  0.18329102799E+03 -0.10636887616E+02  0.95771419005E+03  0.98338914685E+03  0.12700000000E+03 0.  0.
<mgrwt>
<rscale>  0 0.45001130E+03</rscale>
<asrwt>0</asrwt>
<pdfrwt beam="1">  1        2 0.24651118E+00 0.45001130E+03</pdfrwt>
<pdfrwt beam="2">  1       -2 0.41913522E-02 0.45001130E+03</pdfrwt>
<totfact> 0.30763031E+03</totfact>
</mgrwt>
</event>
<event>
 4    1  0.1399921E-004  0.4407293E+03  0.7818608E-02  0.1030523E+00
         -2   -1    0    0    0  501 -0.00000000000E+00  0.00000000000E+00  0.23477889432E+03  0.23477889433E+03  0.25500000000E-02 0. -1.
          2   -1    0    0  501    0  0.00000000000E+00 -0.00000000000E+00 -0.20683541126E+03  0.20683541127E+03  0.25500000000E-02 0.  1.
    5000001    1    1    2    0    0  0.77517208458E+02  0.19064343000E+02 -0.14778108939E+03  0.21057211867E+03  0.12700000000E+03 0.  0.
   -5000001    1    1    2    0    0 -0.77517208458E+02 -0.19064343000E+02  0.17572457245E+03  0.23104218693E+03  0.12700000000E+03 0.  0.
<mgrwt>
<rscale>  0 0.44072935E+03</rscale>
<asrwt>0</asrwt>
<pdfrwt beam="1">  1        2 0.29547916E-01 0.44072935E+03</pdfrwt>
<pdfrwt beam="2">  1       -2 0.33539842E-01 0.44072935E+03</pdfrwt>
<totfact> 0.14965285E+03</totfact>
</mgrwt>
</event>
<event>
 4    1  0.1399921E-004  0.4098665E+03  0.7818608E-02  0.1040416E+00
          2   -1    0    0  501    0  0.00000000000E+00  0.00000000000E+00  0.59417080296E+03  0.59417080296E+03  0.25500000000E-02 0.  1.
         -2   -1    0    0    0  501 -0.00000000000E+00 -0.00000000000E+00 -0.70682758348E+02  0.70682758394E+02  0.25500000000E-02 0. -1.
    5000001    1    1    2    0    0  0.88070471159E+02 -0.13382791562E+03  0.28481653370E+03  0.35059346366E+03  0.12700000000E+03 0.  0.
   -5000001    1    1    2    0    0 -0.88070471159E+02  0.13382791562E+03  0.23867151090E+03  0.31426009770E+03  0.12700000000E+03 0.  0.
<mgrwt>
<rscale>  0 0.40986647E+03</rscale>
<asrwt>0</asrwt>
<pdfrwt beam="1">  1        2 0.84881539E-01 0.40986647E+03</pdfrwt>
<pdfrwt beam="2">  1       -2 0.10097537E-01 0.40986647E+03</pdfrwt>
<totfact> 0.36606072E+03</totfact>
</mgrwt>
</event>
<event>
 4    1  0.1399921E-004  0.6311060E+03  0.7818608E-02  0.9842893E-01
          2   -1    0    0  501    0  0.00000000000E+00  0.00000000000E+00  0.16839096395E+04  0.16839096395E+04  0.25500000000E-02 0.  1.
         -2   -1    0    0    0  501 -0.00000000000E+00 -0.00000000000E+00 -0.59132441838E+02  0.59132441893E+02  0.25500000000E-02 0. -1.
    5000001    1    1    2    0    0 -0.19632547685E+03  0.13855956000E+03  0.36960543184E+03  0.45878057912E+03  0.12700000000E+03 0.  0.
   -5000001    1    1    2    0    0  0.19632547685E+03 -0.13855956000E+03  0.12551717659E+04  0.12842615023E+04  0.12700000000E+03 0.  0.
<mgrwt>
<rscale>  0 0.63110598E+03</rscale>
<asrwt>0</asrwt>
<pdfrwt beam="1">  1        2 0.24055848E+00 0.63110598E+03</pdfrwt>
<pdfrwt beam="2">  1       -2 0.84474929E-02 0.63110598E+03</pdfrwt>
<totfact> 0.10736157E+03</totfact>
</mgrwt>
</event>
<event>
 4    1  0.1399921E-004  0.7270573E+03  0.7818608E-02  0.9672048E-01
         -2   -1    0    0    0  501 -0.00000000000E+00  0.00000000000E+00  0.15954409079E+03  0.15954409081E+03  0.25500000000E-02 0. -1.
          2   -1    0    0  501    0  0.00000000000E+00 -0.00000000000E+00 -0.82831707370E+03  0.82831707370E+03  0.25500000000E-02 0.  1.
    5000001    1    1    2    0    0  0.77999111786E+02  0.30051806619E+03 -0.14402560550E+03  0.36505800167E+03  0.12700000000E+03 0.  0.
   -5000001    1    1    2    0    0 -0.77999111786E+02 -0.30051806619E+03 -0.52474737741E+03  0.62280316284E+03  0.12700000000E+03 0.  0.
<mgrwt>
<rscale>  0 0.72705734E+03</rscale>
<asrwt>0</asrwt>
<pdfrwt beam="1">  1        2 0.11833101E+00 0.72705734E+03</pdfrwt>
<pdfrwt beam="2">  1       -2 0.22792014E-01 0.72705734E+03</pdfrwt>
<totfact> 0.61701009E+02</totfact>
</mgrwt>
</event>
<event>
 4    1  0.1399921E-004  0.4086762E+03  0.7818608E-02  0.1040816E+00
         -2   -1    0    0    0  501 -0.00000000000E+00  0.00000000000E+00  0.19752856327E+02  0.19752856491E+02  0.25500000000E-02 0. -1.
          2   -1    0    0  501    0  0.00000000000E+00 -0.00000000000E+00 -0.21138239706E+04  0.21138239706E+04  0.25500000000E-02 0.  1.
    5000001    1    1    2    0    0  0.14250401120E+02 -0.13652101923E+03 -0.14770388754E+04  0.14888297089E+04  0.12700000000E+03 0.  0.
   -5000001    1    1    2    0    0 -0.14250401120E+02  0.13652101923E+03 -0.61703223886E+03  0.64474711820E+03  0.12700000000E+03 0.  0.
<mgrwt>
<rscale>  0 0.40867621E+03</rscale>
<asrwt>0</asrwt>
<pdfrwt beam="1">  1        2 0.30197471E+00 0.40867621E+03</pdfrwt>
<pdfrwt beam="2">  1       -2 0.28218380E-02 0.40867621E+03</pdfrwt>
<totfact> 0.35947123E+03</totfact>
</mgrwt>
</event>
<event>
 4    1  0.1399921E-004  0.3058387E+03  0.7818608E-02  0.1082358E+00
          2   -1    0    0  501    0  0.00000000000E+00  0.00000000000E+00  0.76772171112E+03  0.76772171112E+03  0.25500000000E-02 0.  1.
         -2   -1    0    0    0  501 -0.00000000000E+00 -0.00000000000E+00 -0.30459380409E+02  0.30459380516E+02  0.25500000000E-02 0. -1.
    5000001    1    1    2    0    0 -0.51446430905E+02 -0.38934018828E+02  0.22349343635E+03  0.26503001559E+03  0.12700000000E+03 0.  0.
   -5000001    1    1    2    0    0  0.51446430905E+02  0.38934018828E+02  0.51376889436E+03  0.53315107605E+03  0.12700000000E+03 0.  0.
<mgrwt>
<rscale>  0 0.30583870E+03</rscale>
<asrwt>0</asrwt>
<pdfrwt beam="1">  1        2 0.10967453E+00 0.30583870E+03</pdfrwt>
<pdfrwt beam="2">  1       -2 0.43513402E-02 0.30583870E+03</pdfrwt>
<totfact> 0.99321550E+03</totfact>
</mgrwt>
</event>
<event>
 4    1  0.1399921E-004  0.4155257E+03  0.7818608E-02  0.1038532E+00
         -2   -1    0    0    0  501 -0.00000000000E+00  0.00000000000E+00  0.31147755515E+03  0.31147755516E+03  0.25500000000E-02 0. -1.
          2   -1    0    0  501    0  0.00000000000E+00 -0.00000000000E+00 -0.13858273450E+03  0.13858273452E+03  0.25500000000E-02 0.  1.
    5000001    1    1    2    0    0 -0.15331256340E+03  0.63512747845E+01  0.22449139200E+02  0.20044461739E+03  0.12700000000E+03 0.  0.
   -5000001    1    1    2    0    0  0.15331256340E+03 -0.63512747845E+01  0.15044568145E+03  0.24961567230E+03  0.12700000000E+03 0.  0.
<mgrwt>
<rscale>  0 0.41552575E+03</rscale>
<asrwt>0</asrwt>
<pdfrwt beam="1">  1        2 0.19797534E-01 0.41552575E+03</pdfrwt>
<pdfrwt beam="2">  1       -2 0.44496793E-01 0.41552575E+03</pdfrwt>
<totfact> 0.13719375E+03</totfact>
</mgrwt>
</event>
<event>
 4    1  0.1399921E-004  0.3913571E+03  0.7818608E-02  0.1046814E+00
          2   -1    0    0  501    0  0.00000000000E+00  0.00000000000E+00  0.30509591269E+03  0.30509591270E+03  0.25500000000E-02 0.  1.
         -2   -1    0    0    0  501 -0.00000000000E+00 -0.00000000000E+00 -0.12550181904E+03  0.12550181906E+03  0.25500000000E-02 0. -1.
    5000001    1    1    2    0    0 -0.13758221063E+03 -0.56126720488E+02  0.79832565347E+02  0.21114287088E+03  0.12700000000E+03 0.  0.
   -5000001    1    1    2    0    0  0.13758221063E+03  0.56126720488E+02  0.99761528304E+02  0.21945486088E+03  0.12700000000E+03 0.  0.
<mgrwt>
<rscale>  0 0.39135709E+03</rscale>
<asrwt>0</asrwt>
<pdfrwt beam="1">  1        2 0.43585130E-01 0.39135709E+03</pdfrwt>
<pdfrwt beam="2">  1       -2 0.17928831E-01 0.39135709E+03</pdfrwt>
<totfact> 0.29699505E+03</totfact>
</mgrwt>
</event>
<event>
 4    1  0.1399921E-004  0.1124580E+04  0.7818608E-02  0.9181560E-01
         -2   -1    0    0    0  501 -0.00000000000E+00  0.00000000000E+00  0.30288914168E+03  0.30288914169E+03  0.25500000000E-02 0. -1.
          2   -1    0    0  501    0  0.00000000000E+00 -0.00000000000E+00 -0.10438478892E+04  0.10438478892E+04  0.25500000000E-02 0.  1.
    5000001    1    1    2    0    0  0.34837263750E+03 -0.17767550897E+03 -0.82979596134E+03  0.92607905629E+03  0.12700000000E+03 0.  0.
   -5000001    1    1    2    0    0 -0.34837263750E+03  0.17767550897E+03  0.88837213805E+02  0.42065797461E+03  0.12700000000E+03 0.  0.
<mgrwt>
<rscale>  0 0.11245803E+04</rscale>
<asrwt>0</asrwt>
<pdfrwt beam="1">  1        2 0.14912113E+00 0.11245803E+04</pdfrwt>
<pdfrwt beam="2">  1       -2 0.43269878E-01 0.11245803E+04</pdfrwt>
<totfact> 0.13244539E+02</totfact>
</mgrwt>
</event>
<event>
 4    1  0.1399921E-004  0.7333228E+03  0.7818608E-02  0.9661884E-01
         -2   -1    0    0    0  501 -0.00000000000E+00  0.00000000000E+00  0.15431602165E+03  0.15431602167E+03  0.25500000000E-02 0. -1.
          2   -1    0    0  501    0  0.00000000000E+00 -0.00000000000E+00 -0.87120303689E+03  0.87120303690E+03  0.25500000000E-02 0.  1.
    5000001    1    1    2    0    0 -0.11111752437E+03 -0.26079967763E+03 -0.63086605364E+03  0.70319595684E+03  0.12700000000E+03 0.  0.
   -5000001    1    1    2    0    0  0.11111752437E+03  0.26079967763E+03 -0.86020961597E+02  0.32232310173E+03  0.12700000000E+03 0.  0.
<mgrwt>
<rscale>  0 0.73332281E+03</rscale>
<asrwt>0</asrwt>
<pdfrwt beam="1">  1        2 0.12445757E+00 0.73332281E+03</pdfrwt>
<pdfrwt beam="2">  1       -2 0.22045146E-01 0.73332281E+03</pdfrwt>
<totfact> 0.61240904E+02</totfact>
</mgrwt>
</event>
<event>
 4    1  0.1399921E-004  0.6789056E+03  0.7818608E-02  0.9754002E-01
          2   -1    0    0  501    0  0.00000000000E+00  0.00000000000E+00  0.27974950357E+03  0.27974950359E+03  0.25500000000E-02 0.  1.
         -2   -1    0    0    0  501 -0.00000000000E+00 -0.00000000000E+00 -0.41189779215E+03  0.41189779216E+03  0.25500000000E-02 0. -1.
    5000001    1    1    2    0    0 -0.30927582802E+03  0.51638914989E+02 -0.94546614672E+02  0.35126368683E+03  0.12700000000E+03 0.  0.
   -5000001    1    1    2    0    0  0.30927582802E+03 -0.51638914989E+02 -0.37601673902E+02  0.34038360892E+03  0.12700000000E+03 0.  0.
<mgrwt>
<rscale>  0 0.67890560E+03</rscale>
<asrwt>0</asrwt>
<pdfrwt beam="1">  1        2 0.39964215E-01 0.67890560E+03</pdfrwt>
<pdfrwt beam="2">  1       -2 0.58842542E-01 0.67890560E+03</pdfrwt>
<totfact> 0.35105150E+02</totfact>
</mgrwt>
</event>
<event>
 4    1  0.1399921E-004  0.7414382E+03  0.7818608E-02  0.9648879E-01
          2   -1    0    0  501    0  0.00000000000E+00  0.00000000000E+00  0.31138822352E+04  0.31138822352E+04  0.25500000000E-02 0.  1.
         -2   -1    0    0    0  501 -0.00000000000E+00 -0.00000000000E+00 -0.44135463703E+02  0.44135463777E+02  0.25500000000E-02 0. -1.
    5000001    1    1    2    0    0  0.22345331420E+03 -0.25241771840E+03  0.11621518411E+04  0.12167053834E+04  0.12700000000E+03 0.  0.
   -5000001    1    1    2    0    0 -0.22345331420E+03  0.25241771840E+03  0.19075949304E+04  0.19413123156E+04  0.12700000000E+03 0.  0.
<mgrwt>
<rscale>  0 0.74143816E+03</rscale>
<asrwt>0</asrwt>
<pdfrwt beam="1">  1        2 0.44484039E+00 0.74143816E+03</pdfrwt>
<pdfrwt beam="2">  1       -2 0.63050652E-02 0.74143816E+03</pdfrwt>
<totfact> 0.30731900E+02</totfact>
</mgrwt>
</event>
<event>
 4    1  0.1399921E-004  0.3603850E+03  0.7818608E-02  0.1058432E+00
         -2   -1    0    0    0  501 -0.00000000000E+00  0.00000000000E+00  0.13796712525E+03  0.13796712528E+03  0.25500000000E-02 0. -1.
          2   -1    0    0  501    0  0.00000000000E+00 -0.00000000000E+00 -0.23534114745E+03  0.23534114747E+03  0.25500000000E-02 0.  1.
    5000001    1    1    2    0    0  0.11650425417E+03 -0.31340057470E+02 -0.92450099212E+02  0.19806933455E+03  0.12700000000E+03 0.  0.
   -5000001    1    1    2    0    0 -0.11650425417E+03  0.31340057470E+02 -0.49239229866E+01  0.17523893820E+03  0.12700000000E+03 0.  0.
<mgrwt>
<rscale>  0 0.36038503E+03</rscale>
<asrwt>0</asrwt>
<pdfrwt beam="1">  1        2 0.33620164E-01 0.36038503E+03</pdfrwt>
<pdfrwt beam="2">  1       -2 0.19709589E-01 0.36038503E+03</pdfrwt>
<totfact> 0.33488429E+03</totfact>
</mgrwt>
</event>
<event>
 4    1  0.1399921E-004  0.6209868E+03  0.7818608E-02  0.9862797E-01
         -2   -1    0    0    0  501 -0.00000000000E+00  0.00000000000E+00  0.53524394781E+02  0.53524394842E+02  0.25500000000E-02 0. -1.
          2   -1    0    0  501    0  0.00000000000E+00 -0.00000000000E+00 -0.18011629174E+04  0.18011629174E+04  0.25500000000E-02 0.  1.
    5000001    1    1    2    0    0  0.13712332271E+03 -0.24792578220E+03 -0.88180883330E+03  0.93487208622E+03  0.12700000000E+03 0.  0.
   -5000001    1    1    2    0    0 -0.13712332271E+03  0.24792578220E+03 -0.86582968928E+03  0.91981522598E+03  0.12700000000E+03 0.  0.
<mgrwt>
<rscale>  0 0.62098681E+03</rscale>
<asrwt>0</asrwt>
<pdfrwt beam="1">  1        2 0.25730895E+00 0.62098681E+03</pdfrwt>
<pdfrwt beam="2">  1       -2 0.76463432E-02 0.62098681E+03</pdfrwt>
<totfact> 0.10979363E+03</totfact>
</mgrwt>
</event>
<event>
 4    1  0.1399921E-004  0.3979853E+03  0.7818608E-02  0.1044480E+00
         -2   -1    0    0    0  501 -0.00000000000E+00  0.00000000000E+00  0.12759392242E+03  0.12759392245E+03  0.25500000000E-02 0. -1.
          2   -1    0    0  501    0  0.00000000000E+00 -0.00000000000E+00 -0.31034444488E+03  0.31034444489E+03  0.25500000000E-02 0.  1.
    5000001    1    1    2    0    0  0.16628863441E+02  0.11062838060E+03 -0.20654292272E+03  0.26702834422E+03  0.12700000000E+03 0.  0.
   -5000001    1    1    2    0    0 -0.16628863441E+02 -0.11062838060E+03  0.23792400255E+02  0.17091002312E+03  0.12700000000E+03 0.  0.
<mgrwt>
<rscale>  0 0.39798525E+03</rscale>
<asrwt>0</asrwt>
<pdfrwt beam="1">  1        2 0.44334920E-01 0.39798525E+03</pdfrwt>
<pdfrwt beam="2">  1       -2 0.18227703E-01 0.39798525E+03</pdfrwt>
<totfact> 0.28352321E+03</totfact>
</mgrwt>
</event>
<event>
 4    1  0.1399921E-004  0.5379476E+03  0.7818608E-02  0.1004323E+00
         -2   -1    0    0    0  501 -0.00000000000E+00  0.00000000000E+00  0.18466774632E+03  0.18466774634E+03  0.25500000000E-02 0. -1.
          2   -1    0    0  501    0  0.00000000000E+00 -0.00000000000E+00 -0.39176796895E+03  0.39176796896E+03  0.25500000000E-02 0.  1.
    5000001    1    1    2    0    0  0.13087058877E+02 -0.14548292484E+03  0.96577759358E+02  0.21631647217E+03  0.12700000000E+03 0.  0.
   -5000001    1    1    2    0    0 -0.13087058877E+02  0.14548292484E+03 -0.30367798199E+03  0.36011924313E+03  0.12700000000E+03 0.  0.
<mgrwt>
<rscale>  0 0.53794761E+03</rscale>
<asrwt>0</asrwt>
<pdfrwt beam="1">  1        2 0.55966852E-01 0.53794761E+03</pdfrwt>
<pdfrwt beam="2">  1       -2 0.26381107E-01 0.53794761E+03</pdfrwt>
<totfact> 0.11508667E+03</totfact>
</mgrwt>
</event>
<event>
 4    1  0.1399921E-004  0.9576801E+03  0.7818608E-02  0.9356218E-01
         -2   -1    0    0    0  501 -0.00000000000E+00  0.00000000000E+00  0.95417966903E+02  0.95417966937E+02  0.25500000000E-02 0. -1.
          2   -1    0    0  501    0  0.00000000000E+00 -0.00000000000E+00 -0.24029834664E+04  0.24029834664E+04  0.25500000000E-02 0.  1.
    5000001    1    1    2    0    0  0.21010632816E+03 -0.41105019802E+03 -0.11725702244E+04  0.12665531436E+04  0.12700000000E+03 0.  0.
   -5000001    1    1    2    0    0 -0.21010632816E+03  0.41105019802E+03 -0.11349952750E+04  0.12318482897E+04  0.12700000000E+03 0.  0.
<mgrwt>
<rscale>  0 0.95768011E+03</rscale>
<asrwt>0</asrwt>
<pdfrwt beam="1">  1        2 0.34328331E+00 0.95768011E+03</pdfrwt>
<pdfrwt beam="2">  1       -2 0.13631140E-01 0.95768011E+03</pdfrwt>
<totfact> 0.20659190E+02</totfact>
</mgrwt>
</event>
<event>
 4    1  0.1399921E-004  0.5387063E+03  0.7818608E-02  0.1004142E+00
          2   -1    0    0  501    0  0.00000000000E+00  0.00000000000E+00  0.12419220085E+03  0.12419220087E+03  0.25500000000E-02 0.  1.
         -2   -1    0    0    0  501 -0.00000000000E+00 -0.00000000000E+00 -0.58418412256E+03  0.58418412256E+03  0.25500000000E-02 0. -1.
    5000001    1    1    2    0    0 -0.96440974837E+02  0.21333723930E+03 -0.28273337575E+03  0.38843377951E+03  0.12700000000E+03 0.  0.
   -5000001    1    1    2    0    0  0.96440974837E+02 -0.21333723930E+03 -0.17725854595E+03  0.31994254392E+03  0.12700000000E+03 0.  0.
<mgrwt>
<rscale>  0 0.53870627E+03</rscale>
<asrwt>0</asrwt>
<pdfrwt beam="1">  1        2 0.17741743E-01 0.53870627E+03</pdfrwt>
<pdfrwt beam="2">  1       -2 0.83454873E-01 0.53870627E+03</pdfrwt>
<totfact> 0.41551152E+02</totfact>
</mgrwt>
</event>
<event>
 4    1  0.1399921E-004  0.7145156E+03  0.7818608E-02  0.9692726E-01
          2   -1    0    0  501    0  0.00000000000E+00  0.00000000000E+00  0.11205551242E+04  0.11205551242E+04  0.25500000000E-02 0.  1.
         -2   -1    0    0    0  501 -0.00000000000E+00 -0.00000000000E+00 -0.11390171520E+03  0.11390171523E+03  0.25500000000E-02 0. -1.
    5000001    1    1    2    0    0 -0.29010125492E+03  0.29417115190E+02  0.78446728432E+03  0.84648805363E+03  0.12700000000E+03 0.  0.
   -5000001    1    1    2    0    0  0.29010125492E+03 -0.29417115190E+02  0.22218612473E+03  0.38796878585E+03  0.12700000000E+03 0.  0.
<mgrwt>
<rscale>  0 0.71451564E+03</rscale>
<asrwt>0</asrwt>
<pdfrwt beam="1">  1        2 0.16007929E+00 0.71451564E+03</pdfrwt>
<pdfrwt beam="2">  1       -2 0.16271674E-01 0.71451564E+03</pdfrwt>
<totfact> 0.72856305E+02</totfact>
</mgrwt>
</event>
<event>
 4    1  0.1399921E-004  0.4960614E+03  0.7818608E-02  0.1014812E+00
          2   -1    0    0  501    0  0.00000000000E+00  0.00000000000E+00  0.10955202811E+04  0.10955202811E+04  0.25500000000E-02 0.  1.
         -2   -1    0    0    0  501 -0.00000000000E+00 -0.00000000000E+00 -0.56155266237E+02  0.56155266295E+02  0.25500000000E-02 0. -1.
    5000001    1    1    2    0    0 -0.22952478581E+02 -0.20967855534E+03  0.58926665109E+03  0.63863612404E+03  0.12700000000E+03 0.  0.
   -5000001    1    1    2    0    0  0.22952478581E+02  0.20967855534E+03  0.45009836372E+03  0.51303942331E+03  0.12700000000E+03 0.  0.
<mgrwt>
<rscale>  0 0.49606142E+03</rscale>
<asrwt>0</asrwt>
<pdfrwt beam="1">  1        2 0.15650290E+00 0.49606142E+03</pdfrwt>
<pdfrwt beam="2">  1       -2 0.80221810E-02 0.49606142E+03</pdfrwt>
<totfact> 0.24167843E+03</totfact>
</mgrwt>
</event>
<event>
 4    1  0.1399921E-004  0.3595855E+03  0.7818608E-02  0.1058748E+00
          2   -1    0    0  501    0  0.00000000000E+00  0.00000000000E+00  0.50173129877E+03  0.50173129877E+03  0.25500000000E-02 0.  1.
         -2   -1    0    0    0  501 -0.00000000000E+00 -0.00000000000E+00 -0.64427766398E+02  0.64427766448E+02  0.25500000000E-02 0. -1.
    5000001    1    1    2    0    0  0.92527410020E+02  0.16271592329E+02  0.83481828254E+02  0.17867373050E+03  0.12700000000E+03 0.  0.
   -5000001    1    1    2    0    0 -0.92527410020E+02 -0.16271592329E+02  0.35382170411E+03  0.38748533472E+03  0.12700000000E+03 0.  0.
<mgrwt>
<rscale>  0 0.35958547E+03</rscale>
<asrwt>0</asrwt>
<pdfrwt beam="1">  1        2 0.71675901E-01 0.35958547E+03</pdfrwt>
<pdfrwt beam="2">  1       -2 0.92039664E-02 0.35958547E+03</pdfrwt>
<totfact> 0.51312122E+03</totfact>
</mgrwt>
</event>
<event>
 4    1  0.1399921E-004  0.5112825E+03  0.7818608E-02  0.1010875E+00
          2   -1    0    0  501    0  0.00000000000E+00  0.00000000000E+00  0.20496859143E+03  0.20496859145E+03  0.25500000000E-02 0.  1.
         -2   -1    0    0    0  501 -0.00000000000E+00 -0.00000000000E+00 -0.31884131364E+03  0.31884131365E+03  0.25500000000E-02 0. -1.
    5000001    1    1    2    0    0  0.67863577043E+02  0.16385678317E+03  0.79629948208E+02  0.23221636275E+03  0.12700000000E+03 0.  0.
   -5000001    1    1    2    0    0 -0.67863577043E+02 -0.16385678317E+03 -0.19350267042E+03  0.29159354235E+03  0.12700000000E+03 0.  0.
<mgrwt>
<rscale>  0 0.51128252E+03</rscale>
<asrwt>0</asrwt>
<pdfrwt beam="1">  1        2 0.29281227E-01 0.51128252E+03</pdfrwt>
<pdfrwt beam="2">  1       -2 0.45548759E-01 0.51128252E+03</pdfrwt>
<totfact> 0.83923709E+02</totfact>
</mgrwt>
</event>
<event>
 4    1  0.1399921E-004  0.5603132E+03  0.7818608E-02  0.9991346E-01
         -2   -1    0    0    0  501 -0.00000000000E+00  0.00000000000E+00  0.64392278778E+02  0.64392278828E+02  0.25500000000E-02 0. -1.
          2   -1    0    0  501    0  0.00000000000E+00 -0.00000000000E+00 -0.12188994391E+04  0.12188994391E+04  0.25500000000E-02 0.  1.
    5000001    1    1    2    0    0  0.17225832781E+03 -0.94862630591E+02 -0.92974481954E+03  0.95876289021E+03  0.12700000000E+03 0.  0.
   -5000001    1    1    2    0    0 -0.17225832781E+03  0.94862630591E+02 -0.22476234076E+03  0.32452882770E+03  0.12700000000E+03 0.  0.
<mgrwt>
<rscale>  0 0.56031317E+03</rscale>
<asrwt>0</asrwt>
<pdfrwt beam="1">  1        2 0.17412848E+00 0.56031317E+03</pdfrwt>
<pdfrwt beam="2">  1       -2 0.91988977E-02 0.56031317E+03</pdfrwt>
<totfact> 0.16520481E+03</totfact>
</mgrwt>
</event>
<event>
 4    1  0.1399921E-004  0.4726024E+03  0.7818608E-02  0.1021188E+00
          2   -1    0    0  501    0  0.00000000000E+00  0.00000000000E+00  0.34311821491E+03  0.34311821492E+03  0.25500000000E-02 0.  1.
         -2   -1    0    0    0  501 -0.00000000000E+00 -0.00000000000E+00 -0.16273767805E+03  0.16273767807E+03  0.25500000000E-02 0. -1.
    5000001    1    1    2    0    0 -0.10482964244E+03  0.15788177672E+03  0.15611410282E+03  0.27643538568E+03  0.12700000000E+03 0.  0.
   -5000001    1    1    2    0    0  0.10482964244E+03 -0.15788177672E+03  0.24266434036E+02  0.22942050731E+03  0.12700000000E+03 0.  0.
<mgrwt>
<rscale>  0 0.47260242E+03</rscale>
<asrwt>0</asrwt>
<pdfrwt beam="1">  1        2 0.49016888E-01 0.47260242E+03</pdfrwt>
<pdfrwt beam="2">  1       -2 0.23248240E-01 0.47260242E+03</pdfrwt>
<totfact> 0.16687734E+03</totfact>
</mgrwt>
</event>
<event>
 4    1  0.1399921E-004  0.3059010E+03  0.7818608E-02  0.1082327E+00
          2   -1    0    0  501    0  0.00000000000E+00  0.00000000000E+00  0.27365969225E+04  0.27365969225E+04  0.25500000000E-02 0.  1.
         -2   -1    0    0    0  501 -0.00000000000E+00 -0.00000000000E+00 -0.85485231331E+01  0.85485235134E+01  0.25500000000E-02 0. -1.
    5000001    1    1    2    0    0 -0.74403170885E+02  0.24516720890E+02  0.10626323713E+04  0.10730579938E+04  0.12700000000E+03 0.  0.
   -5000001    1    1    2    0    0  0.74403170885E+02 -0.24516720890E+02  0.16654160281E+04  0.16720874523E+04  0.12700000000E+03 0.  0.
<mgrwt>
<rscale>  0 0.30590105E+03</rscale>
<asrwt>0</asrwt>
<pdfrwt beam="1">  1        2 0.39094226E+00 0.30590105E+03</pdfrwt>
<pdfrwt beam="2">  1       -2 0.12212181E-02 0.30590105E+03</pdfrwt>
<totfact> 0.60648176E+03</totfact>
</mgrwt>
</event>
<event>
 4    1  0.1399921E-004  0.3127963E+03  0.7818608E-02  0.1079013E+00
          2   -1    0    0  501    0  0.00000000000E+00  0.00000000000E+00  0.12438898693E+04  0.12438898693E+04  0.25500000000E-02 0.  1.
         -2   -1    0    0    0  501 -0.00000000000E+00 -0.00000000000E+00 -0.19664427919E+02  0.19664428084E+02  0.25500000000E-02 0. -1.
    5000001    1    1    2    0    0 -0.47873845194E+02  0.74339685329E+02  0.52061113861E+03  0.54312360610E+03  0.12700000000E+03 0.  0.
   -5000001    1    1    2    0    0  0.47873845194E+02 -0.74339685329E+02  0.70361430275E+03  0.72043069126E+03  0.12700000000E+03 0.  0.
<mgrwt>
<rscale>  0 0.31279631E+03</rscale>
<asrwt>0</asrwt>
<pdfrwt beam="1">  1        2 0.17769851E+00 0.31279631E+03</pdfrwt>
<pdfrwt beam="2">  1       -2 0.28092047E-02 0.31279631E+03</pdfrwt>
<totfact> 0.99379589E+03</totfact>
</mgrwt>
</event>
<event>
 4    1  0.1399921E-004  0.4009774E+03  0.7818608E-02  0.1043442E+00
          2   -1    0    0  501    0  0.00000000000E+00  0.00000000000E+00  0.29640618662E+03  0.29640618663E+03  0.25500000000E-02 0. -1.
         -2   -1    0    0    0  501 -0.00000000000E+00 -0.00000000000E+00 -0.13561022236E+03  0.13561022239E+03  0.25500000000E-02 0.  1.
    5000001    1    1    2    0    0 -0.13691752901E+03 -0.48606588804E+02  0.21803413253E+02  0.19419937965E+03  0.12700000000E+03 0.  0.
   -5000001    1    1    2    0    0  0.13691752901E+03  0.48606588804E+02  0.13899255101E+03  0.23781702938E+03  0.12700000000E+03 0.  0.
<mgrwt>
<rscale>  0 0.40097735E+03</rscale>
<asrwt>0</asrwt>
<pdfrwt beam="1">  1        2 0.42343741E-01 0.40097735E+03</pdfrwt>
<pdfrwt beam="2">  1       -2 0.19372889E-01 0.40097735E+03</pdfrwt>
<totfact> 0.26859092E+03</totfact>
</mgrwt>
</event>
<event>
 4    1  0.1399921E-004  0.5290624E+03  0.7818608E-02  0.1006460E+00
         -2   -1    0    0    0  501 -0.00000000000E+00  0.00000000000E+00  0.10122783016E+03  0.10122783019E+03  0.25500000000E-02 0.  1.
          2   -1    0    0  501    0  0.00000000000E+00 -0.00000000000E+00 -0.69127982584E+03  0.69127982584E+03  0.25500000000E-02 0. -1.
    5000001    1    1    2    0    0 -0.18586161723E+03 -0.13354404714E+03 -0.23760938791E+03  0.35350498513E+03  0.12700000000E+03 0.  0.
   -5000001    1    1    2    0    0  0.18586161723E+03  0.13354404714E+03 -0.35244260777E+03  0.43900267090E+03  0.12700000000E+03 0.  0.
<mgrwt>
<rscale>  0 0.52906240E+03</rscale>
<asrwt>0</asrwt>
<pdfrwt beam="1">  1        2 0.98754259E-01 0.52906240E+03</pdfrwt>
<pdfrwt beam="2">  1       -2 0.14461119E-01 0.52906240E+03</pdfrwt>
<totfact> 0.17018282E+03</totfact>
</mgrwt>
</event>
<event>
 4    1  0.1399921E-004  0.5024532E+03  0.7818608E-02  0.1013141E+00
         -2   -1    0    0    0  501 -0.00000000000E+00  0.00000000000E+00  0.29341180056E+02  0.29341180167E+02  0.25500000000E-02 0.  1.
          2   -1    0    0  501    0  0.00000000000E+00 -0.00000000000E+00 -0.21510657664E+04  0.21510657664E+04  0.25500000000E-02 0. -1.
    5000001    1    1    2    0    0  0.18945146538E+03  0.10383878528E+03 -0.11374468129E+04  0.11647268363E+04  0.12700000000E+03 0.  0.
   -5000001    1    1    2    0    0 -0.18945146538E+03 -0.10383878528E+03 -0.98427777342E+03  0.10156801102E+04  0.12700000000E+03 0.  0.
<mgrwt>
<rscale>  0 0.50245321E+03</rscale>
<asrwt>0</asrwt>
<pdfrwt beam="1">  1        2 0.30729501E+00 0.50245321E+03</pdfrwt>
<pdfrwt beam="2">  1       -2 0.41915985E-02 0.50245321E+03</pdfrwt>
<totfact> 0.18827352E+03</totfact>
</mgrwt>
</event>
<event>
 4    1  0.1399921E-004  0.5377064E+03  0.7818608E-02  0.1004380E+00
         -2   -1    0    0    0  501 -0.00000000000E+00  0.00000000000E+00  0.34853250266E+03  0.34853250267E+03  0.25500000000E-02 0. -1.
          2   -1    0    0  501    0  0.00000000000E+00 -0.00000000000E+00 -0.20738971481E+03  0.20738971482E+03  0.25500000000E-02 0.  1.
    5000001    1    1    2    0    0 -0.28552696018E+02  0.22393760541E+03  0.14505178582E+03  0.29687089472E+03  0.12700000000E+03 0.  0.
   -5000001    1    1    2    0    0  0.28552696018E+02 -0.22393760541E+03 -0.39089979678E+01  0.25905132277E+03  0.12700000000E+03 0.  0.
<mgrwt>
<rscale>  0 0.53770645E+03</rscale>
<asrwt>0</asrwt>
<pdfrwt beam="1">  1        2 0.29627102E-01 0.53770645E+03</pdfrwt>
<pdfrwt beam="2">  1       -2 0.49790358E-01 0.53770645E+03</pdfrwt>
<totfact> 0.69294319E+02</totfact>
</mgrwt>
</event>
<event>
 4    1  0.1399921E-004  0.5705513E+03  0.7818608E-02  0.9968459E-01
         -2   -1    0    0    0  501 -0.00000000000E+00  0.00000000000E+00  0.59021635992E+02  0.59021636047E+02  0.25500000000E-02 0. -1.
          2   -1    0    0  501    0  0.00000000000E+00 -0.00000000000E+00 -0.13788534577E+04  0.13788534577E+04  0.25500000000E-02 0.  1.
    5000001    1    1    2    0    0  0.20520239323E+03  0.12399720812E+03 -0.43777272134E+03  0.51503134406E+03  0.12700000000E+03 0.  0.
   -5000001    1    1    2    0    0 -0.20520239323E+03 -0.12399720812E+03 -0.88205910039E+03  0.92284374971E+03  0.12700000000E+03 0.  0.
<mgrwt>
<rscale>  0 0.57055127E+03</rscale>
<asrwt>0</asrwt>
<pdfrwt beam="1">  1        2 0.19697905E+00 0.57055127E+03</pdfrwt>
<pdfrwt beam="2">  1       -2 0.84316631E-02 0.57055127E+03</pdfrwt>
<totfact> 0.15546897E+03</totfact>
</mgrwt>
</event>
<event>
 4    1  0.1399921E-004  0.4067930E+03  0.7818608E-02  0.1041453E+00
          2   -1    0    0  501    0  0.00000000000E+00  0.00000000000E+00  0.35976551876E+02  0.35976551966E+02  0.25500000000E-02 0.  1.
         -2   -1    0    0    0  501 -0.00000000000E+00 -0.00000000000E+00 -0.11499192916E+04  0.11499192916E+04  0.25500000000E-02 0. -1.
    5000001    1    1    2    0    0  0.11838405336E+02  0.13988268136E+03 -0.34010831727E+03  0.38924282891E+03  0.12700000000E+03 0.  0.
   -5000001    1    1    2    0    0 -0.11838405336E+02 -0.13988268136E+03 -0.77383442246E+03  0.79665301466E+03  0.12700000000E+03 0.  0.
<mgrwt>
<rscale>  0 0.40679297E+03</rscale>
<asrwt>0</asrwt>
<pdfrwt beam="1">  1        2 0.51395081E-02 0.40679297E+03</pdfrwt>
<pdfrwt beam="2">  1       -2 0.16427416E+00 0.40679297E+03</pdfrwt>
<totfact> 0.37968743E+02</totfact>
</mgrwt>
</event>
<event>
 4    1  0.1399921E-004  0.2975172E+03  0.7818608E-02  0.1086488E+00
         -2   -1    0    0    0  501 -0.00000000000E+00  0.00000000000E+00  0.23600789723E+02  0.23600789860E+02  0.25500000000E-02 0. -1.
          2   -1    0    0  501    0  0.00000000000E+00 -0.00000000000E+00 -0.93764352659E+03  0.93764352659E+03  0.25500000000E-02 0.  1.
    5000001    1    1    2    0    0 -0.61564940558E+02  0.46684472524E+02 -0.47484868590E+03  0.49757407125E+03  0.12700000000E+03 0.  0.
   -5000001    1    1    2    0    0  0.61564940558E+02 -0.46684472524E+02 -0.43919405096E+03  0.46367024520E+03  0.12700000000E+03 0.  0.
<mgrwt>
<rscale>  0 0.29751725E+03</rscale>
<asrwt>0</asrwt>
<pdfrwt beam="1">  1        2 0.13394905E+00 0.29751725E+03</pdfrwt>
<pdfrwt beam="2">  1       -2 0.33715420E-02 0.29751725E+03</pdfrwt>
<totfact> 0.11298339E+04</totfact>
</mgrwt>
</event>
<event>
 4    1  0.1399921E-004  0.7464595E+03  0.7818608E-02  0.9640921E-01
         -2   -1    0    0    0  501 -0.00000000000E+00  0.00000000000E+00  0.72844199831E+02  0.72844199876E+02  0.25500000000E-02 0. -1.
          2   -1    0    0  501    0  0.00000000000E+00 -0.00000000000E+00 -0.19123067581E+04  0.19123067581E+04  0.25500000000E-02 0.  1.
    5000001    1    1    2    0    0 -0.21170482684E+03 -0.27479275331E+03 -0.10614928136E+04  0.11239332651E+04  0.12700000000E+03 0.  0.
   -5000001    1    1    2    0    0  0.21170482684E+03  0.27479275331E+03 -0.77796974469E+03  0.86121769294E+03  0.12700000000E+03 0.  0.
<mgrwt>
<rscale>  0 0.74645953E+03</rscale>
<asrwt>0</asrwt>
<pdfrwt beam="1">  1        2 0.27318665E+00 0.74645953E+03</pdfrwt>
<pdfrwt beam="2">  1       -2 0.10406315E-01 0.74645953E+03</pdfrwt>
<totfact> 0.58307167E+02</totfact>
</mgrwt>
</event>
<event>
 4    1  0.1399921E-004  0.5040816E+03  0.7818608E-02  0.1012719E+00
          2   -1    0    0  501    0  0.00000000000E+00  0.00000000000E+00  0.14466002724E+04  0.14466002724E+04  0.25500000000E-02 0.  1.
         -2   -1    0    0    0  501 -0.00000000000E+00 -0.00000000000E+00 -0.43912999659E+02  0.43912999733E+02  0.25500000000E-02 0. -1.
    5000001    1    1    2    0    0 -0.20657391395E+02  0.21480127681E+03  0.61619544882E+03  0.66512566293E+03  0.12700000000E+03 0.  0.
   -5000001    1    1    2    0    0  0.20657391395E+02 -0.21480127681E+03  0.78649182389E+03  0.82538760918E+03  0.12700000000E+03 0.  0.
<mgrwt>
<rscale>  0 0.50408157E+03</rscale>
<asrwt>0</asrwt>
<pdfrwt beam="1">  1        2 0.20665717E+00 0.50408157E+03</pdfrwt>
<pdfrwt beam="2">  1       -2 0.62732860E-02 0.50408157E+03</pdfrwt>
<totfact> 0.22884098E+03</totfact>
</mgrwt>
</event>
<event>
 4    1  0.1399921E-004  0.4126616E+03  0.7818608E-02  0.1039482E+00
          2   -1    0    0  501    0  0.00000000000E+00  0.00000000000E+00  0.40657519710E+03  0.40657519710E+03  0.25500000000E-02 0.  1.
         -2   -1    0    0    0  501 -0.00000000000E+00 -0.00000000000E+00 -0.10470977840E+03  0.10470977843E+03  0.25500000000E-02 0. -1.
    5000001    1    1    2    0    0 -0.95895616221E+02 -0.30459522744E+02  0.30921209483E+03  0.34909149420E+03  0.12700000000E+03 0.  0.
   -5000001    1    1    2    0    0  0.95895616221E+02  0.30459522744E+02 -0.73466761269E+01  0.16219348133E+03  0.12700000000E+03 0.  0.
<mgrwt>
<rscale>  0 0.41266160E+03</rscale>
<asrwt>0</asrwt>
<pdfrwt beam="1">  1        2 0.58082171E-01 0.41266160E+03</pdfrwt>
<pdfrwt beam="2">  1       -2 0.14958540E-01 0.41266160E+03</pdfrwt>
<totfact> 0.29471386E+03</totfact>
</mgrwt>
</event>
<event>
 4    1  0.1399921E-004  0.3081167E+03  0.7818608E-02  0.1081252E+00
         -2   -1    0    0    0  501 -0.00000000000E+00  0.00000000000E+00  0.13638652686E+03  0.13638652689E+03  0.25500000000E-02 0. -1.
          2   -1    0    0  501    0  0.00000000000E+00 -0.00000000000E+00 -0.17401994090E+03  0.17401994092E+03  0.25500000000E-02 0.  1.
    5000001    1    1    2    0    0 -0.36109862049E+02 -0.33174753490E+02 -0.91467040394E+02  0.16401129804E+03  0.12700000000E+03 0.  0.
   -5000001    1    1    2    0    0  0.36109862049E+02  0.33174753490E+02  0.53833626354E+02  0.14639516977E+03  0.12700000000E+03 0.  0.
<mgrwt>
<rscale>  0 0.30811670E+03</rscale>
<asrwt>0</asrwt>
<pdfrwt beam="1">  1        2 0.24859991E-01 0.30811670E+03</pdfrwt>
<pdfrwt beam="2">  1       -2 0.19483790E-01 0.30811670E+03</pdfrwt>
<totfact> 0.47535908E+03</totfact>
</mgrwt>
</event>
<event>
 4    1  0.1399921E-004  0.2980675E+03  0.7818608E-02  0.1086211E+00
          2   -1    0    0  501    0  0.00000000000E+00  0.00000000000E+00  0.10750227784E+04  0.10750227784E+04  0.25500000000E-02 0.  1.
         -2   -1    0    0    0  501 -0.00000000000E+00 -0.00000000000E+00 -0.20661012659E+02  0.20661012817E+02  0.25500000000E-02 0. -1.
    5000001    1    1    2    0    0 -0.49203864937E+02 -0.32569841962E+02  0.33973423015E+03  0.36746450450E+03  0.12700000000E+03 0.  0.
   -5000001    1    1    2    0    0  0.49203864937E+02  0.32569841962E+02  0.71462753559E+03  0.72821928672E+03  0.12700000000E+03 0.  0.
<mgrwt>
<rscale>  0 0.29806750E+03</rscale>
<asrwt>0</asrwt>
<pdfrwt beam="1">  1        2 0.15357472E+00 0.29806750E+03</pdfrwt>
<pdfrwt beam="2">  1       -2 0.29515726E-02 0.29806750E+03</pdfrwt>
<totfact> 0.11433829E+04</totfact>
</mgrwt>
</event>
<event>
 4    1  0.1399921E-004  0.3427106E+03  0.7818608E-02  0.1065647E+00
          2   -1    0    0  501    0  0.00000000000E+00  0.00000000000E+00  0.24917336208E+04  0.24917336208E+04  0.25500000000E-02 0.  1.
         -2   -1    0    0    0  501 -0.00000000000E+00 -0.00000000000E+00 -0.11784023143E+02  0.11784023419E+02  0.25500000000E-02 0. -1.
    5000001    1    1    2    0    0  0.92243149615E+02 -0.20070223538E+02  0.17202245763E+04  0.17274875413E+04  0.12700000000E+03 0.  0.
   -5000001    1    1    2    0    0 -0.92243149615E+02  0.20070223538E+02  0.75972502130E+03  0.77603010284E+03  0.12700000000E+03 0.  0.
<mgrwt>
<rscale>  0 0.34271065E+03</rscale>
<asrwt>0</asrwt>
<pdfrwt beam="1">  1        2 0.35596203E+00 0.34271065E+03</pdfrwt>
<pdfrwt beam="2">  1       -2 0.16834315E-02 0.34271065E+03</pdfrwt>
<totfact> 0.50355682E+03</totfact>
</mgrwt>
</event>
<event>
 4    1  0.1399921E-004  0.5876187E+03  0.7818608E-02  0.9931432E-01
         -2   -1    0    0    0  501 -0.00000000000E+00  0.00000000000E+00  0.47922347996E+02  0.47922348064E+02  0.25500000000E-02 0. -1.
          2   -1    0    0  501    0  0.00000000000E+00 -0.00000000000E+00 -0.18013293765E+04  0.18013293765E+04  0.25500000000E-02 0.  1.
    5000001    1    1    2    0    0 -0.13307629930E+03 -0.21487820812E+03 -0.62665867666E+03  0.68754057538E+03  0.12700000000E+03 0.  0.
   -5000001    1    1    2    0    0  0.13307629930E+03  0.21487820812E+03 -0.11267483519E+04  0.11617111492E+04  0.12700000000E+03 0.  0.
<mgrwt>
<rscale>  0 0.58761870E+03</rscale>
<asrwt>0</asrwt>
<pdfrwt beam="1">  1        2 0.25733273E+00 0.58761870E+03</pdfrwt>
<pdfrwt beam="2">  1       -2 0.68460508E-02 0.58761870E+03</pdfrwt>
<totfact> 0.13098429E+03</totfact>
</mgrwt>
</event>
<event>
 4    1  0.1399921E-004  0.5212978E+03  0.7818608E-02  0.1008365E+00
          2   -1    0    0  501    0  0.00000000000E+00  0.00000000000E+00  0.26320324966E+04  0.26320324966E+04  0.25500000000E-02 0. -1.
         -2   -1    0    0    0  501 -0.00000000000E+00 -0.00000000000E+00 -0.25811934297E+02  0.25811934423E+02  0.25500000000E-02 0.  1.
    5000001    1    1    2    0    0  0.72318623640E+02  0.13693591732E+02  0.24012615760E+04  0.24057438878E+04  0.12700000000E+03 0.  0.
   -5000001    1    1    2    0    0 -0.72318623640E+02 -0.13693591732E+02  0.20495898632E+03  0.25210054314E+03  0.12700000000E+03 0.  0.
<mgrwt>
<rscale>  0 0.52129780E+03</rscale>
<asrwt>0</asrwt>
<pdfrwt beam="1">  1        2 0.37600422E+00 0.52129780E+03</pdfrwt>
<pdfrwt beam="2">  1       -2 0.36874233E-02 0.52129780E+03</pdfrwt>
<totfact> 0.13048867E+03</totfact>
</mgrwt>
</event>
<event>
 4    1  0.1399921E-004  0.5478137E+03  0.7818608E-02  0.1002001E+00
          2   -1    0    0  501    0  0.00000000000E+00  0.00000000000E+00  0.14470495469E+03  0.14470495471E+03  0.25500000000E-02 0.  1.
         -2   -1    0    0    0  501 -0.00000000000E+00 -0.00000000000E+00 -0.51846843260E+03  0.51846843261E+03  0.25500000000E-02 0. -1.
    5000001    1    1    2    0    0  0.16965076434E+03  0.14388432898E+03 -0.69437376990E+02  0.26539523600E+03  0.12700000000E+03 0.  0.
   -5000001    1    1    2    0    0 -0.16965076434E+03 -0.14388432898E+03 -0.30432610092E+03  0.39777815132E+03  0.12700000000E+03 0.  0.
<mgrwt>
<rscale>  0 0.54781366E+03</rscale>
<asrwt>0</asrwt>
<pdfrwt beam="1">  1        2 0.20672137E-01 0.54781366E+03</pdfrwt>
<pdfrwt beam="2">  1       -2 0.74066918E-01 0.54781366E+03</pdfrwt>
<totfact> 0.45283827E+02</totfact>
</mgrwt>
</event>
<event>
 4    1  0.1399921E-004  0.4397506E+03  0.7818608E-02  0.1030823E+00
         -2   -1    0    0    0  501 -0.00000000000E+00  0.00000000000E+00  0.39353077789E+02  0.39353077872E+02  0.25500000000E-02 0. -1.
          2   -1    0    0  501    0  0.00000000000E+00 -0.00000000000E+00 -0.12284974300E+04  0.12284974300E+04  0.25500000000E-02 0.  1.
    5000001    1    1    2    0    0  0.13589915864E+03  0.77224928396E+02 -0.34020576928E+03  0.39534951162E+03  0.12700000000E+03 0.  0.
   -5000001    1    1    2    0    0 -0.13589915864E+03 -0.77224928396E+02 -0.84893858292E+03  0.87250099625E+03  0.12700000000E+03 0.  0.
<mgrwt>
<rscale>  0 0.43975063E+03</rscale>
<asrwt>0</asrwt>
<pdfrwt beam="1">  1        2 0.17549961E+00 0.43975063E+03</pdfrwt>
<pdfrwt beam="2">  1       -2 0.56218690E-02 0.43975063E+03</pdfrwt>
<totfact> 0.35510660E+03</totfact>
</mgrwt>
</event>
<event>
 4    1  0.1399921E-004  0.3679499E+03  0.7818608E-02  0.1055480E+00
          2   -1    0    0  501    0  0.00000000000E+00  0.00000000000E+00  0.18642878757E+04  0.18642878757E+04  0.25500000000E-02 0.  1.
         -2   -1    0    0    0  501 -0.00000000000E+00 -0.00000000000E+00 -0.18155340501E+02  0.18155340680E+02  0.25500000000E-02 0. -1.
    5000001    1    1    2    0    0 -0.12789723810E+03  0.36648192704E+02  0.94415263716E+03  0.96190124015E+03  0.12700000000E+03 0.  0.
   -5000001    1    1    2    0    0  0.12789723810E+03 -0.36648192704E+02  0.90197989803E+03  0.92054197622E+03  0.12700000000E+03 0.  0.
<mgrwt>
<rscale>  0 0.36794990E+03</rscale>
<asrwt>0</asrwt>
<pdfrwt beam="1">  1        2 0.26632685E+00 0.36794990E+03</pdfrwt>
<pdfrwt beam="2">  1       -2 0.25936199E-02 0.36794990E+03</pdfrwt>
<totfact> 0.54218659E+03</totfact>
</mgrwt>
</event>
<event>
 4    1  0.1399921E-004  0.5030730E+03  0.7818608E-02  0.1012980E+00
         -2   -1    0    0    0  501 -0.00000000000E+00  0.00000000000E+00  0.12585831828E+03  0.12585831831E+03  0.25500000000E-02 0. -1.
          2   -1    0    0  501    0  0.00000000000E+00 -0.00000000000E+00 -0.50271301035E+03  0.50271301036E+03  0.25500000000E-02 0.  1.
    5000001    1    1    2    0    0  0.52237028207E+02  0.14786712411E+03 -0.80710731595E+00  0.20179951668E+03  0.12700000000E+03 0.  0.
   -5000001    1    1    2    0    0 -0.52237028207E+02 -0.14786712411E+03 -0.37604758475E+03  0.42677181199E+03  0.12700000000E+03 0.  0.
<mgrwt>
<rscale>  0 0.50307301E+03</rscale>
<asrwt>0</asrwt>
<pdfrwt beam="1">  1        2 0.71816144E-01 0.50307301E+03</pdfrwt>
<pdfrwt beam="2">  1       -2 0.17979760E-01 0.50307301E+03</pdfrwt>
<totfact> 0.17082869E+03</totfact>
</mgrwt>
</event>
<event>
 4    1  0.1399921E-004  0.4341738E+03  0.7818608E-02  0.1032550E+00
          2   -1    0    0  501    0  0.00000000000E+00  0.00000000000E+00  0.36313892049E+02  0.36313892138E+02  0.25500000000E-02 0.  1.
         -2   -1    0    0    0  501 -0.00000000000E+00 -0.00000000000E+00 -0.12977604367E+04  0.12977604367E+04  0.25500000000E-02 0. -1.
    5000001    1    1    2    0    0 -0.56803007824E+02  0.13726321176E+03 -0.34036034944E+03  0.39248176833E+03  0.12700000000E+03 0.  0.
   -5000001    1    1    2    0    0  0.56803007824E+02 -0.13726321176E+03 -0.92108619518E+03  0.94159256048E+03  0.12700000000E+03 0.  0.
<mgrwt>
<rscale>  0 0.43417385E+03</rscale>
<asrwt>0</asrwt>
<pdfrwt beam="1">  1        2 0.51876997E-02 0.43417385E+03</pdfrwt>
<pdfrwt beam="2">  1       -2 0.18539432E+00 0.43417385E+03</pdfrwt>
<totfact> 0.26825896E+02</totfact>
</mgrwt>
</event>
<event>
 4    1  0.1399921E-004  0.4472941E+03  0.7818608E-02  0.1028532E+00
         -2   -1    0    0    0  501 -0.00000000000E+00  0.00000000000E+00  0.14120142687E+04  0.14120142687E+04  0.25500000000E-02 0. -1.
          2   -1    0    0  501    0  0.00000000000E+00 -0.00000000000E+00 -0.35423158261E+02  0.35423158353E+02  0.25500000000E-02 0.  1.
    5000001    1    1    2    0    0 -0.16028223981E+03  0.84316857424E+02  0.79509662757E+03  0.82529229732E+03  0.12700000000E+03 0.  0.
   -5000001    1    1    2    0    0  0.16028223981E+03 -0.84316857424E+02  0.58149448288E+03  0.62214512975E+03  0.12700000000E+03 0.  0.
<mgrwt>
<rscale>  0 0.44729411E+03</rscale>
<asrwt>0</asrwt>
<pdfrwt beam="1">  1        2 0.50604508E-02 0.44729411E+03</pdfrwt>
<pdfrwt beam="2">  1       -2 0.20171634E+00 0.44729411E+03</pdfrwt>
<totfact> 0.21700166E+02</totfact>
</mgrwt>
</event>
<event>
 4    1  0.1399921E-004  0.4513370E+03  0.7818608E-02  0.1027324E+00
          2   -1    0    0  501    0  0.00000000000E+00  0.00000000000E+00  0.22801118560E+04  0.22801118560E+04  0.25500000000E-02 0.  1.
         -2   -1    0    0    0  501 -0.00000000000E+00 -0.00000000000E+00 -0.22334985210E+02  0.22334985356E+02  0.25500000000E-02 0. -1.
    5000001    1    1    2    0    0 -0.13155206325E+03 -0.12261588230E+03  0.87603919263E+03  0.90327972797E+03  0.12700000000E+03 0.  0.
   -5000001    1    1    2    0    0  0.13155206325E+03  0.12261588230E+03  0.13817376781E+04  0.13991671134E+04  0.12700000000E+03 0.  0.
<mgrwt>
<rscale>  0 0.45133697E+03</rscale>
<asrwt>0</asrwt>
<pdfrwt beam="1">  1        2 0.32573010E+00 0.45133697E+03</pdfrwt>
<pdfrwt beam="2">  1       -2 0.31907138E-02 0.45133697E+03</pdfrwt>
<totfact> 0.24645420E+03</totfact>
</mgrwt>
</event>
<event>
 4    1  0.1399921E-004  0.4133352E+03  0.7818608E-02  0.1039258E+00
          2   -1    0    0  501    0  0.00000000000E+00  0.00000000000E+00  0.58329593157E+03  0.58329593158E+03  0.25500000000E-02 0.  1.
         -2   -1    0    0    0  501 -0.00000000000E+00 -0.00000000000E+00 -0.73224388642E+02  0.73224388687E+02  0.25500000000E-02 0. -1.
    5000001    1    1    2    0    0  0.54851773807E+02  0.25374763293E+02  0.49555335593E+03  0.51512593051E+03  0.12700000000E+03 0.  0.
   -5000001    1    1    2    0    0 -0.54851773807E+02 -0.25374763293E+02  0.14518186998E+02  0.14139438976E+03  0.12700000000E+03 0.  0.
<mgrwt>
<rscale>  0 0.41333516E+03</rscale>
<asrwt>0</asrwt>
<pdfrwt beam="1">  1        2 0.83327994E-01 0.41333516E+03</pdfrwt>
<pdfrwt beam="2">  1       -2 0.10460627E-01 0.41333516E+03</pdfrwt>
<totfact> 0.35333001E+03</totfact>
</mgrwt>
</event>
<event>
 4    1  0.1399921E-004  0.4441498E+03  0.7818608E-02  0.1029481E+00
         -2   -1    0    0    0  501 -0.00000000000E+00  0.00000000000E+00  0.22455488735E+02  0.22455488880E+02  0.25500000000E-02 0.  1.
          2   -1    0    0  501    0  0.00000000000E+00 -0.00000000000E+00 -0.21962229337E+04  0.21962229337E+04  0.25500000000E-02 0. -1.
    5000001    1    1    2    0    0  0.13599682255E+03  0.68685445267E+02 -0.58796387320E+03  0.62051860756E+03  0.12700000000E+03 0.  0.
   -5000001    1    1    2    0    0 -0.13599682255E+03 -0.68685445267E+02 -0.15858035717E+04  0.15981598150E+04  0.12700000000E+03 0.  0.
<mgrwt>
<rscale>  0 0.44414979E+03</rscale>
<asrwt>0</asrwt>
<pdfrwt beam="1">  1        2 0.31374600E+00 0.44414979E+03</pdfrwt>
<pdfrwt beam="2">  1       -2 0.32079284E-02 0.44414979E+03</pdfrwt>
<totfact> 0.26929843E+03</totfact>
</mgrwt>
</event>
<event>
 4    1  0.1399921E-004  0.3797077E+03  0.7818608E-02  0.1051042E+00
         -2   -1    0    0    0  501 -0.00000000000E+00  0.00000000000E+00  0.43561663937E+03  0.43561663938E+03  0.25500000000E-02 0. -1.
          2   -1    0    0  501    0  0.00000000000E+00 -0.00000000000E+00 -0.82743588012E+02  0.82743588052E+02  0.25500000000E-02 0.  1.
    5000001    1    1    2    0    0  0.11180093442E+02 -0.13153552401E+03  0.10833049417E+03  0.21281702125E+03  0.12700000000E+03 0.  0.
   -5000001    1    1    2    0    0 -0.11180093442E+02  0.13153552401E+03  0.24454255718E+03  0.30554320618E+03  0.12700000000E+03 0.  0.
<mgrwt>
<rscale>  0 0.37970770E+03</rscale>
<asrwt>0</asrwt>
<pdfrwt beam="1">  1        2 0.11820513E-01 0.37970770E+03</pdfrwt>
<pdfrwt beam="2">  1       -2 0.62230949E-01 0.37970770E+03</pdfrwt>
<totfact> 0.12845104E+03</totfact>
</mgrwt>
</event>
<event>
 4    1  0.1399921E-004  0.3180991E+03  0.7818608E-02  0.1076527E+00
          2   -1    0    0  501    0  0.00000000000E+00  0.00000000000E+00  0.91788480059E+02  0.91788480095E+02  0.25500000000E-02 0.  1.
         -2   -1    0    0    0  501 -0.00000000000E+00 -0.00000000000E+00 -0.27559841439E+03  0.27559841440E+03  0.25500000000E-02 0. -1.
    5000001    1    1    2    0    0  0.11929150490E+02 -0.72885109353E+02 -0.21527065966E+02  0.14848218198E+03  0.12700000000E+03 0.  0.
   -5000001    1    1    2    0    0 -0.11929150490E+02  0.72885109353E+02 -0.16228286836E+03  0.21890471251E+03  0.12700000000E+03 0.  0.
<mgrwt>
<rscale>  0 0.31809910E+03</rscale>
<asrwt>0</asrwt>
<pdfrwt beam="1">  1        2 0.13112640E-01 0.31809910E+03</pdfrwt>
<pdfrwt beam="2">  1       -2 0.39371201E-01 0.31809910E+03</pdfrwt>
<totfact> 0.28211322E+03</totfact>
</mgrwt>
</event>
<event>
 4    1  0.1399921E-004  0.5011754E+03  0.7818608E-02  0.1013473E+00
          2   -1    0    0  501    0  0.00000000000E+00  0.00000000000E+00  0.49627164471E+03  0.49627164471E+03  0.25500000000E-02 0.  1.
         -2   -1    0    0    0  501 -0.00000000000E+00 -0.00000000000E+00 -0.12653192113E+03  0.12653192116E+03  0.25500000000E-02 0. -1.
    5000001    1    1    2    0    0  0.19177499298E+03  0.52045606492E+02  0.29015997403E+03  0.37390935214E+03  0.12700000000E+03 0.  0.
   -5000001    1    1    2    0    0 -0.19177499298E+03 -0.52045606492E+02  0.79579749549E+02  0.24889421373E+03  0.12700000000E+03 0.  0.
<mgrwt>
<rscale>  0 0.50117544E+03</rscale>
<asrwt>0</asrwt>
<pdfrwt beam="1">  1        2 0.70895949E-01 0.50117544E+03</pdfrwt>
<pdfrwt beam="2">  1       -2 0.18075989E-01 0.50117544E+03</pdfrwt>
<totfact> 0.17176045E+03</totfact>
</mgrwt>
</event>
<event>
 4    1  0.1399921E-004  0.3237485E+03  0.7818608E-02  0.1073937E+00
         -2   -1    0    0    0  501 -0.00000000000E+00  0.00000000000E+00  0.15559018106E+02  0.15559018315E+02  0.25500000000E-02 0. -1.
          2   -1    0    0  501    0  0.00000000000E+00 -0.00000000000E+00 -0.16841215536E+04  0.16841215536E+04  0.25500000000E-02 0.  1.
    5000001    1    1    2    0    0 -0.56321446855E+02  0.76804177206E+02 -0.10005738748E+04  0.10130883801E+04  0.12700000000E+03 0.  0.
   -5000001    1    1    2    0    0  0.56321446855E+02 -0.76804177206E+02 -0.66798866068E+03  0.68659219178E+03  0.12700000000E+03 0.  0.
<mgrwt>
<rscale>  0 0.32374853E+03</rscale>
<asrwt>0</asrwt>
<pdfrwt beam="1">  1        2 0.24058868E+00 0.32374853E+03</pdfrwt>
<pdfrwt beam="2">  1       -2 0.22227180E-02 0.32374853E+03</pdfrwt>
<totfact> 0.83701796E+03</totfact>
</mgrwt>
</event>
<event>
 4    1  0.1399921E-004  0.5627250E+03  0.7818608E-02  0.9985908E-01
         -2   -1    0    0    0  501 -0.00000000000E+00  0.00000000000E+00  0.44269714830E+02  0.44269714904E+02  0.25500000000E-02 0. -1.
          2   -1    0    0  501    0  0.00000000000E+00 -0.00000000000E+00 -0.17882393411E+04  0.17882393411E+04  0.25500000000E-02 0.  1.
    5000001    1    1    2    0    0  0.21264836752E+03  0.13651452472E+01 -0.43733585413E+03  0.50260604964E+03  0.12700000000E+03 0.  0.
   -5000001    1    1    2    0    0 -0.21264836752E+03 -0.13651452472E+01 -0.13066337721E+04  0.13299030064E+04  0.12700000000E+03 0.  0.
<mgrwt>
<rscale>  0 0.56272496E+03</rscale>
<asrwt>0</asrwt>
<pdfrwt beam="1">  1        2 0.25546272E+00 0.56272496E+03</pdfrwt>
<pdfrwt beam="2">  1       -2 0.63242461E-02 0.56272496E+03</pdfrwt>
<totfact> 0.15082016E+03</totfact>
</mgrwt>
</event>
<event>
 4    1  0.1399921E-004  0.4472633E+03  0.7818608E-02  0.1028541E+00
         -2   -1    0    0    0  501 -0.00000000000E+00  0.00000000000E+00  0.25794403975E+03  0.25794403976E+03  0.25500000000E-02 0. -1.
          2   -1    0    0  501    0  0.00000000000E+00 -0.00000000000E+00 -0.19388357710E+03  0.19388357712E+03  0.25500000000E-02 0.  1.
    5000001    1    1    2    0    0 -0.64025199357E+02 -0.10182819665E+03 -0.10872546198E+03  0.20595735935E+03  0.12700000000E+03 0.  0.
   -5000001    1    1    2    0    0  0.64025199357E+02  0.10182819665E+03  0.17278592463E+03  0.24587025753E+03  0.12700000000E+03 0.  0.
<mgrwt>
<rscale>  0 0.44726329E+03</rscale>
<asrwt>0</asrwt>
<pdfrwt beam="1">  1        2 0.27697654E-01 0.44726329E+03</pdfrwt>
<pdfrwt beam="2">  1       -2 0.36849148E-01 0.44726329E+03</pdfrwt>
<totfact> 0.13474248E+03</totfact>
</mgrwt>
</event>
<event>
 4    1  0.1399921E-004  0.3013019E+03  0.7818608E-02  0.1084592E+00
         -2   -1    0    0    0  501 -0.00000000000E+00  0.00000000000E+00  0.12822997406E+02  0.12822997659E+02  0.25500000000E-02 0. -1.
          2   -1    0    0  501    0  0.00000000000E+00 -0.00000000000E+00 -0.17699226430E+04  0.17699226430E+04  0.25500000000E-02 0.  1.
    5000001    1    1    2    0    0  0.72690964152E+02  0.27913821230E+02 -0.74577633799E+03  0.76050937140E+03  0.12700000000E+03 0.  0.
   -5000001    1    1    2    0    0 -0.72690964152E+02 -0.27913821230E+02 -0.10113233076E+04  0.10222362693E+04  0.12700000000E+03 0.  0.
<mgrwt>
<rscale>  0 0.30130193E+03</rscale>
<asrwt>0</asrwt>
<pdfrwt beam="1">  1        2 0.25284594E+00 0.30130193E+03</pdfrwt>
<pdfrwt beam="2">  1       -2 0.18318579E-02 0.30130193E+03</pdfrwt>
<totfact> 0.10090107E+04</totfact>
</mgrwt>
</event>
<event>
 4    1  0.1399921E-004  0.3427260E+03  0.7818608E-02  0.1065641E+00
          2   -1    0    0  501    0  0.00000000000E+00  0.00000000000E+00  0.57367664204E+03  0.57367664205E+03  0.25500000000E-02 0.  1.
         -2   -1    0    0    0  501 -0.00000000000E+00 -0.00000000000E+00 -0.51187856547E+02  0.51187856610E+02  0.25500000000E-02 0. -1.
    5000001    1    1    2    0    0 -0.10090855289E+03 -0.18511604035E+02  0.16631328772E+03  0.23305433959E+03  0.12700000000E+03 0.  0.
   -5000001    1    1    2    0    0  0.10090855289E+03  0.18511604035E+02  0.35617549778E+03  0.39181015907E+03  0.12700000000E+03 0.  0.
<mgrwt>
<rscale>  0 0.34272600E+03</rscale>
<asrwt>0</asrwt>
<pdfrwt beam="1">  1        2 0.81953806E-01 0.34272600E+03</pdfrwt>
<pdfrwt beam="2">  1       -2 0.73125509E-02 0.34272600E+03</pdfrwt>
<totfact> 0.63296688E+03</totfact>
</mgrwt>
</event>
<event>
 4    1  0.1399921E-004  0.5062673E+03  0.7818608E-02  0.1012156E+00
         -2   -1    0    0    0  501 -0.00000000000E+00  0.00000000000E+00  0.11617313556E+03  0.11617313559E+03  0.25500000000E-02 0. -1.
          2   -1    0    0  501    0  0.00000000000E+00 -0.00000000000E+00 -0.55156154017E+03  0.55156154018E+03  0.25500000000E-02 0.  1.
    5000001    1    1    2    0    0 -0.16352845083E+03 -0.10428881148E+03 -0.83642406520E+02  0.24646046863E+03  0.12700000000E+03 0.  0.
   -5000001    1    1    2    0    0  0.16352845083E+03  0.10428881148E+03 -0.35174599809E+03  0.42127420714E+03  0.12700000000E+03 0.  0.
<mgrwt>
<rscale>  0 0.50626726E+03</rscale>
<asrwt>0</asrwt>
<pdfrwt beam="1">  1        2 0.78794504E-01 0.50626726E+03</pdfrwt>
<pdfrwt beam="2">  1       -2 0.16596163E-01 0.50626726E+03</pdfrwt>
<totfact> 0.17613966E+03</totfact>
</mgrwt>
</event>
<event>
 4    1  0.1399921E-004  0.4563708E+03  0.7818608E-02  0.1025839E+00
          2   -1    0    0  501    0  0.00000000000E+00  0.00000000000E+00  0.16040497423E+04  0.16040497423E+04  0.25500000000E-02 0.  1.
         -2   -1    0    0    0  501 -0.00000000000E+00 -0.00000000000E+00 -0.32460702371E+02  0.32460702472E+02  0.25500000000E-02 0. -1.
    5000001    1    1    2    0    0  0.14814962267E+03 -0.10760551076E+03  0.96191862378E+03  0.98739237156E+03  0.12700000000E+03 0.  0.
   -5000001    1    1    2    0    0 -0.14814962267E+03  0.10760551076E+03  0.60967041616E+03  0.64911807323E+03  0.12700000000E+03 0.  0.
<mgrwt>
<rscale>  0 0.45637082E+03</rscale>
<asrwt>0</asrwt>
<pdfrwt beam="1">  1        2 0.22915002E+00 0.45637082E+03</pdfrwt>
<pdfrwt beam="2">  1       -2 0.46372421E-02 0.45637082E+03</pdfrwt>
<totfact> 0.30345103E+03</totfact>
</mgrwt>
</event>
<event>
 4    1  0.1399921E-004  0.3283569E+03  0.7818608E-02  0.1071866E+00
         -2   -1    0    0    0  501 -0.00000000000E+00  0.00000000000E+00  0.66724393872E+01  0.66724398745E+01  0.25500000000E-02 0. -1.
          2   -1    0    0  501    0  0.00000000000E+00 -0.00000000000E+00 -0.40396855091E+04  0.40396855091E+04  0.25500000000E-02 0.  1.
    5000001    1    1    2    0    0  0.59445795702E+02 -0.69969629382E+02 -0.14133053980E+04  0.14219671936E+04  0.12700000000E+03 0.  0.
   -5000001    1    1    2    0    0 -0.59445795702E+02  0.69969629382E+02 -0.26197076717E+04  0.26243907554E+04  0.12700000000E+03 0.  0.
<mgrwt>
<rscale>  0 0.32835686E+03</rscale>
<asrwt>0</asrwt>
<pdfrwt beam="1">  1        2 0.57709636E+00 0.32835686E+03</pdfrwt>
<pdfrwt beam="2">  1       -2 0.95320825E-03 0.32835686E+03</pdfrwt>
<totfact> 0.15452817E+03</totfact>
</mgrwt>
</event>
<event>
 4    1  0.1399921E-004  0.4377426E+03  0.7818608E-02  0.1031442E+00
         -2   -1    0    0    0  501 -0.00000000000E+00  0.00000000000E+00  0.17986102812E+03  0.17986102814E+03  0.25500000000E-02 0. -1.
          2   -1    0    0  501    0  0.00000000000E+00 -0.00000000000E+00 -0.26634255188E+03  0.26634255189E+03  0.25500000000E-02 0.  1.
    5000001    1    1    2    0    0 -0.17332043428E+03  0.35766038057E+02 -0.65018708878E+02  0.22732271097E+03  0.12700000000E+03 0.  0.
   -5000001    1    1    2    0    0  0.17332043428E+03 -0.35766038057E+02 -0.21462814878E+02  0.21888086906E+03  0.12700000000E+03 0.  0.
<mgrwt>
<rscale>  0 0.43774260E+03</rscale>
<asrwt>0</asrwt>
<pdfrwt beam="1">  1        2 0.38048936E-01 0.43774260E+03</pdfrwt>
<pdfrwt beam="2">  1       -2 0.25694433E-01 0.43774260E+03</pdfrwt>
<totfact> 0.18420639E+03</totfact>
</mgrwt>
</event>
<event>
 4    1  0.1399921E-004  0.3567319E+03  0.7818608E-02  0.1059885E+00
          2   -1    0    0  501    0  0.00000000000E+00  0.00000000000E+00  0.26316148320E+03  0.26316148321E+03  0.25500000000E-02 0.  1.
         -2   -1    0    0    0  501 -0.00000000000E+00 -0.00000000000E+00 -0.12089309775E+03  0.12089309778E+03  0.25500000000E-02 0. -1.
    5000001    1    1    2    0    0  0.65531603991E+02 -0.45331204850E+02 -0.32889850837E+02  0.15349283873E+03  0.12700000000E+03 0.  0.
   -5000001    1    1    2    0    0 -0.65531603991E+02  0.45331204850E+02  0.17515823628E+03  0.23056174225E+03  0.12700000000E+03 0.  0.
<mgrwt>
<rscale>  0 0.35673187E+03</rscale>
<asrwt>0</asrwt>
<pdfrwt beam="1">  1        2 0.37594498E-01 0.35673187E+03</pdfrwt>
<pdfrwt beam="2">  1       -2 0.17270442E-01 0.35673187E+03</pdfrwt>
<totfact> 0.37103495E+03</totfact>
</mgrwt>
</event>
<event>
 4    1  0.1399921E-004  0.3174426E+03  0.7818608E-02  0.1076832E+00
          2   -1    0    0  501    0  0.00000000000E+00  0.00000000000E+00  0.11786261900E+04  0.11786261900E+04  0.25500000000E-02 0.  1.
         -2   -1    0    0    0  501 -0.00000000000E+00 -0.00000000000E+00 -0.21374414110E+02  0.21374414262E+02  0.25500000000E-02 0. -1.
    5000001    1    1    2    0    0 -0.51431645437E+02  0.49524122386E+02  0.34057472743E+03  0.37042947752E+03  0.12700000000E+03 0.  0.
   -5000001    1    1    2    0    0  0.51431645437E+02 -0.49524122386E+02  0.81667704844E+03  0.82957112673E+03  0.12700000000E+03 0.  0.
<mgrwt>
<rscale>  0 0.31744256E+03</rscale>
<asrwt>0</asrwt>
<pdfrwt beam="1">  1        2 0.16837519E+00 0.31744256E+03</pdfrwt>
<pdfrwt beam="2">  1       -2 0.30534873E-02 0.31744256E+03</pdfrwt>
<totfact> 0.95255351E+03</totfact>
</mgrwt>
</event>
<event>
 4    1  0.1399921E-004  0.4202241E+03  0.7818608E-02  0.1036993E+00
          2   -1    0    0  501    0  0.00000000000E+00  0.00000000000E+00  0.19492097761E+03  0.19492097763E+03  0.25500000000E-02 0.  1.
         -2   -1    0    0    0  501 -0.00000000000E+00 -0.00000000000E+00 -0.22648703236E+03  0.22648703237E+03  0.25500000000E-02 0. -1.
    5000001    1    1    2    0    0 -0.78229757510E+02 -0.63193712683E+02  0.11840252552E+03  0.20065268085E+03  0.12700000000E+03 0.  0.
   -5000001    1    1    2    0    0  0.78229757510E+02  0.63193712683E+02 -0.14996858026E+03  0.22075532915E+03  0.12700000000E+03 0.  0.
<mgrwt>
<rscale>  0 0.42022410E+03</rscale>
<asrwt>0</asrwt>
<pdfrwt beam="1">  1        2 0.27845854E-01 0.42022410E+03</pdfrwt>
<pdfrwt beam="2">  1       -2 0.32355290E-01 0.42022410E+03</pdfrwt>
<totfact> 0.17091615E+03</totfact>
</mgrwt>
</event>
<event>
 4    1  0.1399921E-004  0.3026847E+03  0.7818608E-02  0.1083906E+00
          2   -1    0    0  501    0  0.00000000000E+00  0.00000000000E+00  0.24378582576E+04  0.24378582576E+04  0.25500000000E-02 0.  1.
         -2   -1    0    0    0  501 -0.00000000000E+00 -0.00000000000E+00 -0.93953387825E+01  0.93953391285E+01  0.25500000000E-02 0. -1.
    5000001    1    1    2    0    0  0.71300229022E+02  0.24399452917E+02  0.94651030700E+03  0.95796128169E+03  0.12700000000E+03 0.  0.
   -5000001    1    1    2    0    0 -0.71300229022E+02 -0.24399452917E+02  0.14819526118E+04  0.14892923150E+04  0.12700000000E+03 0.  0.
<mgrwt>
<rscale>  0 0.30268469E+03</rscale>
<asrwt>0</asrwt>
<pdfrwt beam="1">  1        2 0.34826540E+00 0.30268469E+03</pdfrwt>
<pdfrwt beam="2">  1       -2 0.13421915E-02 0.30268469E+03</pdfrwt>
<totfact> 0.74785560E+03</totfact>
</mgrwt>
</event>
<event>
 4    1  0.1399921E-004  0.3261073E+03  0.7818608E-02  0.1072872E+00
         -2   -1    0    0    0  501 -0.00000000000E+00  0.00000000000E+00  0.18358527791E+03  0.18358527793E+03  0.25500000000E-02 0. -1.
          2   -1    0    0  501    0  0.00000000000E+00 -0.00000000000E+00 -0.14481824100E+03  0.14481824102E+03  0.25500000000E-02 0.  1.
    5000001    1    1    2    0    0  0.21229980094E+02 -0.56159087561E+02  0.10274890538E+03  0.17404278993E+03  0.12700000000E+03 0.  0.
   -5000001    1    1    2    0    0 -0.21229980094E+02  0.56159087561E+02 -0.63981868469E+02  0.15436072902E+03  0.12700000000E+03 0.  0.
<mgrwt>
<rscale>  0 0.32610733E+03</rscale>
<asrwt>0</asrwt>
<pdfrwt beam="1">  1        2 0.20688320E-01 0.32610733E+03</pdfrwt>
<pdfrwt beam="2">  1       -2 0.26226468E-01 0.32610733E+03</pdfrwt>
<totfact> 0.34907883E+03</totfact>
</mgrwt>
</event>
<event>
 4    1  0.1399921E-004  0.2939889E+03  0.7818608E-02  0.1088285E+00
         -2   -1    0    0    0  501 -0.00000000000E+00  0.00000000000E+00  0.27691695221E+02  0.27691695339E+02  0.25500000000E-02 0. -1.
          2   -1    0    0  501    0  0.00000000000E+00 -0.00000000000E+00 -0.78028342994E+03  0.78028342995E+03  0.25500000000E-02 0.  1.
    5000001    1    1    2    0    0 -0.39626993433E+02 -0.54173776479E+02 -0.46203610067E+03  0.48385065360E+03  0.12700000000E+03 0.  0.
   -5000001    1    1    2    0    0  0.39626993433E+02  0.54173776479E+02 -0.29055563405E+03  0.32412447169E+03  0.12700000000E+03 0.  0.
<mgrwt>
<rscale>  0 0.29398892E+03</rscale>
<asrwt>0</asrwt>
<pdfrwt beam="1">  1        2 0.11146905E+00 0.29398892E+03</pdfrwt>
<pdfrwt beam="2">  1       -2 0.39559570E-02 0.29398892E+03</pdfrwt>
<totfact> 0.11227316E+04</totfact>
</mgrwt>
</event>
<event>
 4    1  0.1399921E-004  0.4939328E+03  0.7818608E-02  0.1015375E+00
          2   -1    0    0  501    0  0.00000000000E+00  0.00000000000E+00  0.29616160943E+04  0.29616160943E+04  0.25500000000E-02 0.  1.
         -2   -1    0    0    0  501 -0.00000000000E+00 -0.00000000000E+00 -0.20594294422E+02  0.20594294579E+02  0.25500000000E-02 0. -1.
    5000001    1    1    2    0    0  0.34317693861E+02 -0.15377965425E+03  0.61585303032E+03  0.64825137187E+03  0.12700000000E+03 0.  0.
   -5000001    1    1    2    0    0 -0.34317693861E+02  0.15377965425E+03  0.23251687695E+04  0.23339590170E+04  0.12700000000E+03 0.  0.
<mgrwt>
<rscale>  0 0.49393276E+03</rscale>
<asrwt>0</asrwt>
<pdfrwt beam="1">  1        2 0.42308812E+00 0.49393276E+03</pdfrwt>
<pdfrwt beam="2">  1       -2 0.29420413E-02 0.49393276E+03</pdfrwt>
<totfact> 0.12356436E+03</totfact>
</mgrwt>
</event>
<event>
 4    1  0.1399921E-004  0.5408052E+03  0.7818608E-02  0.1003645E+00
          2   -1    0    0  501    0  0.00000000000E+00  0.00000000000E+00  0.22813159806E+03  0.22813159807E+03  0.25500000000E-02 0.  1.
         -2   -1    0    0    0  501 -0.00000000000E+00 -0.00000000000E+00 -0.32050607959E+03  0.32050607960E+03  0.25500000000E-02 0. -1.
    5000001    1    1    2    0    0 -0.10669796186E+03 -0.21262027710E+03 -0.66393716032E+02  0.27772101618E+03  0.12700000000E+03 0.  0.
   -5000001    1    1    2    0    0  0.10669796186E+03  0.21262027710E+03 -0.25980765505E+02  0.27091666150E+03  0.12700000000E+03 0.  0.
<mgrwt>
<rscale>  0 0.54080519E+03</rscale>
<asrwt>0</asrwt>
<pdfrwt beam="1">  1        2 0.32590228E-01 0.54080519E+03</pdfrwt>
<pdfrwt beam="2">  1       -2 0.45786583E-01 0.54080519E+03</pdfrwt>
<totfact> 0.73682605E+02</totfact>
</mgrwt>
</event>
<event>
 4    1  0.1399921E-004  0.3997059E+03  0.7818608E-02  0.1043882E+00
          2   -1    0    0  501    0  0.00000000000E+00  0.00000000000E+00  0.79275653333E+03  0.79275653334E+03  0.25500000000E-02 0.  1.
         -2   -1    0    0    0  501 -0.00000000000E+00 -0.00000000000E+00 -0.50382687340E+02  0.50382687405E+02  0.25500000000E-02 0. -1.
    5000001    1    1    2    0    0 -0.22034642602E+02  0.15271347680E+03  0.36634305500E+03  0.41730464342E+03  0.12700000000E+03 0.  0.
   -5000001    1    1    2    0    0  0.22034642602E+02 -0.15271347680E+03  0.37603079099E+03  0.42583457732E+03  0.12700000000E+03 0.  0.
<mgrwt>
<rscale>  0 0.39970591E+03</rscale>
<asrwt>0</asrwt>
<pdfrwt beam="1">  1        2 0.11325093E+00 0.39970591E+03</pdfrwt>
<pdfrwt beam="2">  1       -2 0.71975269E-02 0.39970591E+03</pdfrwt>
<totfact> 0.44274965E+03</totfact>
</mgrwt>
</event>
<event>
 4    1  0.1399921E-004  0.3310933E+03  0.7818608E-02  0.1070654E+00
         -2   -1    0    0    0  501 -0.00000000000E+00  0.00000000000E+00  0.85654765732E+01  0.85654769528E+01  0.25500000000E-02 0. -1.
          2   -1    0    0  501    0  0.00000000000E+00 -0.00000000000E+00 -0.31995518401E+04  0.31995518402E+04  0.25500000000E-02 0.  1.
    5000001    1    1    2    0    0 -0.27349416715E+02 -0.91639530464E+02 -0.11482119235E+04  0.11591658274E+04  0.12700000000E+03 0.  0.
   -5000001    1    1    2    0    0  0.27349416715E+02  0.91639530464E+02 -0.20427744401E+04  0.20489514897E+04  0.12700000000E+03 0.  0.
<mgrwt>
<rscale>  0 0.33109326E+03</rscale>
<asrwt>0</asrwt>
<pdfrwt beam="1">  1        2 0.45707807E+00 0.33109326E+03</pdfrwt>
<pdfrwt beam="2">  1       -2 0.12236416E-02 0.33109326E+03</pdfrwt>
<totfact> 0.34287548E+03</totfact>
</mgrwt>
</event>
<event>
 4    1  0.1399921E-004  0.6840708E+03  0.7818608E-02  0.9744868E-01
         -2   -1    0    0    0  501 -0.00000000000E+00  0.00000000000E+00  0.89273639543E+02  0.89273639580E+02  0.25500000000E-02 0. -1.
          2   -1    0    0  501    0  0.00000000000E+00 -0.00000000000E+00 -0.13104451086E+04  0.13104451086E+04  0.25500000000E-02 0.  1.
    5000001    1    1    2    0    0 -0.13381062024E+03 -0.25457609212E+03 -0.33496146155E+03  0.45939356710E+03  0.12700000000E+03 0.  0.
   -5000001    1    1    2    0    0  0.13381062024E+03  0.25457609212E+03 -0.88621000747E+03  0.94032518104E+03  0.12700000000E+03 0.  0.
<mgrwt>
<rscale>  0 0.68407077E+03</rscale>
<asrwt>0</asrwt>
<pdfrwt beam="1">  1        2 0.18720643E+00 0.68407077E+03</pdfrwt>
<pdfrwt beam="2">  1       -2 0.12753378E-01 0.68407077E+03</pdfrwt>
<totfact> 0.85962927E+02</totfact>
</mgrwt>
</event>
<event>
 4    1  0.1399921E-004  0.3068291E+03  0.7818608E-02  0.1081876E+00
          2   -1    0    0  501    0  0.00000000000E+00  0.00000000000E+00  0.21343072977E+04  0.21343072977E+04  0.25500000000E-02 0.  1.
         -2   -1    0    0    0  501 -0.00000000000E+00 -0.00000000000E+00 -0.11027474867E+02  0.11027475162E+02  0.25500000000E-02 0. -1.
    5000001    1    1    2    0    0  0.64556578563E+02 -0.12873314807E+02  0.14492834704E+04  0.14563258055E+04  0.12700000000E+03 0.  0.
   -5000001    1    1    2    0    0 -0.64556578563E+02  0.12873314807E+02  0.67399635235E+03  0.68900896733E+03  0.12700000000E+03 0.  0.
<mgrwt>
<rscale>  0 0.30682908E+03</rscale>
<asrwt>0</asrwt>
<pdfrwt beam="1">  1        2 0.30490097E+00 0.30682908E+03</pdfrwt>
<pdfrwt beam="2">  1       -2 0.15753540E-02 0.30682908E+03</pdfrwt>
<totfact> 0.83506393E+03</totfact>
</mgrwt>
</event>
<event>
 4    1  0.1399921E-004  0.4084793E+03  0.7818608E-02  0.1040882E+00
         -2   -1    0    0    0  501 -0.00000000000E+00  0.00000000000E+00  0.11160305482E+03  0.11160305485E+03  0.25500000000E-02 0. -1.
          2   -1    0    0  501    0  0.00000000000E+00 -0.00000000000E+00 -0.37376973110E+03  0.37376973111E+03  0.25500000000E-02 0.  1.
    5000001    1    1    2    0    0  0.14976255485E+03  0.43937140042E+02 -0.17268116149E+03  0.26515482014E+03  0.12700000000E+03 0.  0.
   -5000001    1    1    2    0    0 -0.14976255485E+03 -0.43937140042E+02 -0.89485514791E+02  0.22021796582E+03  0.12700000000E+03 0.  0.
<mgrwt>
<rscale>  0 0.40847934E+03</rscale>
<asrwt>0</asrwt>
<pdfrwt beam="1">  1        2 0.53395675E-01 0.40847934E+03</pdfrwt>
<pdfrwt beam="2">  1       -2 0.15943294E-01 0.40847934E+03</pdfrwt>
<totfact> 0.29044402E+03</totfact>
</mgrwt>
</event>
<event>
 4    1  0.1399921E-004  0.3381434E+03  0.7818608E-02  0.1067589E+00
          2   -1    0    0  501    0  0.00000000000E+00  0.00000000000E+00  0.16066671086E+04  0.16066671086E+04  0.25500000000E-02 0.  1.
         -2   -1    0    0    0  501 -0.00000000000E+00 -0.00000000000E+00 -0.17791642307E+02  0.17791642490E+02  0.25500000000E-02 0. -1.
    5000001    1    1    2    0    0 -0.81194906081E+02  0.35606730612E+02  0.46876003013E+03  0.49368554555E+03  0.12700000000E+03 0.  0.
   -5000001    1    1    2    0    0  0.81194906081E+02 -0.35606730612E+02  0.11201154361E+04  0.11307732055E+04  0.12700000000E+03 0.  0.
<mgrwt>
<rscale>  0 0.33814344E+03</rscale>
<asrwt>0</asrwt>
<pdfrwt beam="1">  1        2 0.22952377E+00 0.33814344E+03</pdfrwt>
<pdfrwt beam="2">  1       -2 0.25416644E-02 0.33814344E+03</pdfrwt>
<totfact> 0.75011776E+03</totfact>
</mgrwt>
</event>
<event>
 4    1  0.1399921E-004  0.2646809E+03  0.7818608E-02  0.1104363E+00
          2   -1    0    0  501    0  0.00000000000E+00  0.00000000000E+00  0.14356117606E+04  0.14356117606E+04  0.25500000000E-02 0.  1.
         -2   -1    0    0    0  501 -0.00000000000E+00 -0.00000000000E+00 -0.12199675119E+02  0.12199675386E+02  0.25500000000E-02 0. -1.
    5000001    1    1    2    0    0 -0.17468373507E+02  0.32432969632E+02  0.68278430463E+03  0.69547138564E+03  0.12700000000E+03 0.  0.
   -5000001    1    1    2    0    0  0.17468373507E+02 -0.32432969632E+02  0.74062778085E+03  0.75234005035E+03  0.12700000000E+03 0.  0.
<mgrwt>
<rscale>  0 0.26468092E+03</rscale>
<asrwt>0</asrwt>
<pdfrwt beam="1">  1        2 0.20508725E+00 0.26468092E+03</pdfrwt>
<pdfrwt beam="2">  1       -2 0.17428120E-02 0.26468092E+03</pdfrwt>
<totfact> 0.15893832E+04</totfact>
</mgrwt>
</event>
<event>
 4    1  0.1399921E-004  0.4312236E+03  0.7818608E-02  0.1033474E+00
          2   -1    0    0  501    0  0.00000000000E+00  0.00000000000E+00  0.11897433898E+04  0.11897433898E+04  0.25500000000E-02 0.  1.
         -2   -1    0    0    0  501 -0.00000000000E+00 -0.00000000000E+00 -0.39074352478E+02  0.39074352561E+02  0.25500000000E-02 0. -1.
    5000001    1    1    2    0    0 -0.74283536215E+02  0.15448806377E+03  0.48636255683E+03  0.53109522902E+03  0.12700000000E+03 0.  0.
   -5000001    1    1    2    0    0  0.74283536215E+02 -0.15448806377E+03  0.66430648045E+03  0.69772251331E+03  0.12700000000E+03 0.  0.
<mgrwt>
<rscale>  0 0.43122362E+03</rscale>
<asrwt>0</asrwt>
<pdfrwt beam="1">  1        2 0.16996337E+00 0.43122362E+03</pdfrwt>
<pdfrwt beam="2">  1       -2 0.55820494E-02 0.43122362E+03</pdfrwt>
<totfact> 0.37712962E+03</totfact>
</mgrwt>
</event>
<event>
 4    1  0.1399921E-004  0.4935802E+03  0.7818608E-02  0.1015468E+00
         -2   -1    0    0    0  501 -0.00000000000E+00  0.00000000000E+00  0.27870519471E+02  0.27870519587E+02  0.25500000000E-02 0. -1.
          2   -1    0    0  501    0  0.00000000000E+00 -0.00000000000E+00 -0.21852962618E+04  0.21852962618E+04  0.25500000000E-02 0.  1.
    5000001    1    1    2    0    0  0.45421708521E+02  0.20600195039E+03 -0.11532600055E+04  0.11792529734E+04  0.12700000000E+03 0.  0.
   -5000001    1    1    2    0    0 -0.45421708521E+02 -0.20600195039E+03 -0.10041657368E+04  0.10339138079E+04  0.12700000000E+03 0.  0.
<mgrwt>
<rscale>  0 0.49358015E+03</rscale>
<asrwt>0</asrwt>
<pdfrwt beam="1">  1        2 0.31218507E+00 0.49358015E+03</pdfrwt>
<pdfrwt beam="2">  1       -2 0.39815042E-02 0.49358015E+03</pdfrwt>
<totfact> 0.19590442E+03</totfact>
</mgrwt>
</event>
<event>
 4    1  0.1399921E-004  0.4058015E+03  0.7818608E-02  0.1041789E+00
          2   -1    0    0  501    0  0.00000000000E+00  0.00000000000E+00  0.47969839295E+03  0.47969839296E+03  0.25500000000E-02 0.  1.
         -2   -1    0    0    0  501 -0.00000000000E+00 -0.00000000000E+00 -0.85822074302E+02  0.85822074340E+02  0.25500000000E-02 0. -1.
    5000001    1    1    2    0    0 -0.14440110616E+03 -0.10147852521E+02  0.10786773288E+03  0.22072404982E+03  0.12700000000E+03 0.  0.
   -5000001    1    1    2    0    0  0.14440110616E+03  0.10147852521E+02  0.28600858577E+03  0.34479641748E+03  0.12700000000E+03 0.  0.
<mgrwt>
<rscale>  0 0.40580148E+03</rscale>
<asrwt>0</asrwt>
<pdfrwt beam="1">  1        2 0.68528345E-01 0.40580148E+03</pdfrwt>
<pdfrwt beam="2">  1       -2 0.12260296E-01 0.40580148E+03</pdfrwt>
<totfact> 0.34075035E+03</totfact>
</mgrwt>
</event>
<event>
 4    1  0.1399921E-004  0.3712756E+03  0.7818608E-02  0.1054206E+00
          2   -1    0    0  501    0  0.00000000000E+00  0.00000000000E+00  0.44491184736E+03  0.44491184737E+03  0.25500000000E-02 0.  1.
         -2   -1    0    0    0  501 -0.00000000000E+00 -0.00000000000E+00 -0.77456685756E+02  0.77456685798E+02  0.25500000000E-02 0. -1.
    5000001    1    1    2    0    0  0.47453847016E+02 -0.12423471291E+03  0.14796028417E+03  0.23602410296E+03  0.12700000000E+03 0.  0.
   -5000001    1    1    2    0    0 -0.47453847016E+02  0.12423471291E+03  0.21949487744E+03  0.28634443021E+03  0.12700000000E+03 0.  0.
<mgrwt>
<rscale>  0 0.37127562E+03</rscale>
<asrwt>0</asrwt>
<pdfrwt beam="1">  1        2 0.63558836E-01 0.37127562E+03</pdfrwt>
<pdfrwt beam="2">  1       -2 0.11065241E-01 0.37127562E+03</pdfrwt>
<totfact> 0.43681516E+03</totfact>
</mgrwt>
</event>
<event>
 4    1  0.1399921E-004  0.7355191E+03  0.7818608E-02  0.9658347E-01
          2   -1    0    0  501    0  0.00000000000E+00  0.00000000000E+00  0.51862019073E+03  0.51862019074E+03  0.25500000000E-02 0. -1.
         -2   -1    0    0    0  501 -0.00000000000E+00 -0.00000000000E+00 -0.26078250797E+03  0.26078250798E+03  0.25500000000E-02 0.  1.
    5000001    1    1    2    0    0 -0.26978258236E+03  0.18259081965E+03  0.81170882066E+01  0.34973838263E+03  0.12700000000E+03 0.  0.
   -5000001    1    1    2    0    0  0.26978258236E+03 -0.18259081965E+03  0.24972059456E+03  0.42966431608E+03  0.12700000000E+03 0.  0.
<mgrwt>
<rscale>  0 0.73551907E+03</rscale>
<asrwt>0</asrwt>
<pdfrwt beam="1">  1        2 0.74088598E-01 0.73551907E+03</pdfrwt>
<pdfrwt beam="2">  1       -2 0.37254644E-01 0.73551907E+03</pdfrwt>
<totfact> 0.43972118E+02</totfact>
</mgrwt>
</event>
<event>
 4    1  0.1399921E-004  0.7622576E+03  0.7818608E-02  0.9616314E-01
         -2   -1    0    0    0  501 -0.00000000000E+00  0.00000000000E+00  0.37904316589E+02  0.37904316675E+02  0.25500000000E-02 0. -1.
          2   -1    0    0  501    0  0.00000000000E+00 -0.00000000000E+00 -0.38322589791E+04  0.38322589791E+04  0.25500000000E-02 0.  1.
    5000001    1    1    2    0    0  0.87507124138E+00  0.35162433546E+03 -0.22733632887E+04  0.23038988869E+04  0.12700000000E+03 0.  0.
   -5000001    1    1    2    0    0 -0.87507124138E+00 -0.35162433546E+03 -0.15209913738E+04  0.15662644088E+04  0.12700000000E+03 0.  0.
<mgrwt>
<rscale>  0 0.76225759E+03</rscale>
<asrwt>0</asrwt>
<pdfrwt beam="1">  1        2 0.54746532E+00 0.76225759E+03</pdfrwt>
<pdfrwt beam="2">  1       -2 0.54149048E-02 0.76225759E+03</pdfrwt>
<totfact> 0.14523134E+02</totfact>
</mgrwt>
</event>
<event>
 4    1  0.1399921E-004  0.4644305E+03  0.7818608E-02  0.1023504E+00
          2   -1    0    0  501    0  0.00000000000E+00  0.00000000000E+00  0.22941913434E+03  0.22941913436E+03  0.25500000000E-02 0.  1.
         -2   -1    0    0    0  501 -0.00000000000E+00 -0.00000000000E+00 -0.23504546079E+03  0.23504546080E+03  0.25500000000E-02 0. -1.
    5000001    1    1    2    0    0 -0.78783200839E+02  0.16392876752E+03 -0.71487646424E+02  0.23306419104E+03  0.12700000000E+03 0.  0.
   -5000001    1    1    2    0    0  0.78783200839E+02 -0.16392876752E+03  0.65861319980E+02  0.23140040412E+03  0.12700000000E+03 0.  0.
<mgrwt>
<rscale>  0 0.46443052E+03</rscale>
<asrwt>0</asrwt>
<pdfrwt beam="1">  1        2 0.32774162E-01 0.46443052E+03</pdfrwt>
<pdfrwt beam="2">  1       -2 0.33577923E-01 0.46443052E+03</pdfrwt>
<totfact> 0.13313052E+03</totfact>
</mgrwt>
</event>
<event>
 4    1  0.1399921E-004  0.3260263E+03  0.7818608E-02  0.1072909E+00
         -2   -1    0    0    0  501 -0.00000000000E+00  0.00000000000E+00  0.23590759668E+02  0.23590759806E+02  0.25500000000E-02 0. -1.
          2   -1    0    0  501    0  0.00000000000E+00 -0.00000000000E+00 -0.11264277654E+04  0.11264277655E+04  0.25500000000E-02 0.  1.
    5000001    1    1    2    0    0  0.77408479358E+02  0.40052788675E+02 -0.73966257020E+03  0.75553028815E+03  0.12700000000E+03 0.  0.
   -5000001    1    1    2    0    0 -0.77408479358E+02 -0.40052788675E+02 -0.36317443558E+03  0.39448823710E+03  0.12700000000E+03 0.  0.
<mgrwt>
<rscale>  0 0.32602630E+03</rscale>
<asrwt>0</asrwt>
<pdfrwt beam="1">  1        2 0.16091822E+00 0.32602630E+03</pdfrwt>
<pdfrwt beam="2">  1       -2 0.33701093E-02 0.32602630E+03</pdfrwt>
<totfact> 0.87895791E+03</totfact>
</mgrwt>
</event>
<event>
 4    1  0.1399921E-004  0.6104610E+03  0.7818608E-02  0.9883937E-01
          2   -1    0    0  501    0  0.00000000000E+00  0.00000000000E+00  0.25767637600E+04  0.25767637600E+04  0.25500000000E-02 0.  1.
         -2   -1    0    0    0  501 -0.00000000000E+00 -0.00000000000E+00 -0.36156074645E+02  0.36156074735E+02  0.25500000000E-02 0. -1.
    5000001    1    1    2    0    0 -0.26509390321E+03 -0.47321689433E+01  0.16216876406E+04  0.16481192234E+04  0.12700000000E+03 0.  0.
   -5000001    1    1    2    0    0  0.26509390321E+03  0.47321689433E+01  0.91892004481E+03  0.96480061136E+03  0.12700000000E+03 0.  0.
<mgrwt>
<rscale>  0 0.61046102E+03</rscale>
<asrwt>0</asrwt>
<pdfrwt beam="1">  1        2 0.36810923E+00 0.61046102E+03</pdfrwt>
<pdfrwt beam="2">  1       -2 0.51651518E-02 0.61046102E+03</pdfrwt>
<totfact> 0.82375690E+02</totfact>
</mgrwt>
</event>
<event>
 4    1  0.1399921E-004  0.2805499E+03  0.7818608E-02  0.1095389E+00
          2   -1    0    0  501    0  0.00000000000E+00  0.00000000000E+00  0.16664547520E+03  0.16664547522E+03  0.25500000000E-02 0.  1.
         -2   -1    0    0    0  501 -0.00000000000E+00 -0.00000000000E+00 -0.11807738902E+03  0.11807738905E+03  0.25500000000E-02 0. -1.
    5000001    1    1    2    0    0  0.32189964665E+02 -0.47242555248E+02  0.41266432630E+02  0.14525829172E+03  0.12700000000E+03 0.  0.
   -5000001    1    1    2    0    0 -0.32189964665E+02  0.47242555248E+02  0.73016535516E+01  0.13946457255E+03  0.12700000000E+03 0.  0.
<mgrwt>
<rscale>  0 0.28054991E+03</rscale>
<asrwt>0</asrwt>
<pdfrwt beam="1">  1        2 0.23806496E-01 0.28054991E+03</pdfrwt>
<pdfrwt beam="2">  1       -2 0.16868198E-01 0.28054991E+03</pdfrwt>
<totfact> 0.63485738E+03</totfact>
</mgrwt>
</event>
<event>
 4    1  0.1399921E-004  0.3345923E+03  0.7818608E-02  0.1069123E+00
          2   -1    0    0  501    0  0.00000000000E+00  0.00000000000E+00  0.63199419387E+03  0.63199419388E+03  0.25500000000E-02 0.  1.
         -2   -1    0    0    0  501 -0.00000000000E+00 -0.00000000000E+00 -0.44285217737E+02  0.44285217811E+02  0.25500000000E-02 0. -1.
    5000001    1    1    2    0    0  0.14351515021E+02 -0.84033280115E+02  0.15689730897E+03  0.21911942796E+03  0.12700000000E+03 0.  0.
   -5000001    1    1    2    0    0 -0.14351515021E+02  0.84033280115E+02  0.43081166717E+03  0.45715998372E+03  0.12700000000E+03 0.  0.
<mgrwt>
<rscale>  0 0.33459229E+03</rscale>
<asrwt>0</asrwt>
<pdfrwt beam="1">  1        2 0.90284887E-01 0.33459229E+03</pdfrwt>
<pdfrwt beam="2">  1       -2 0.63264596E-02 0.33459229E+03</pdfrwt>
<totfact> 0.70864164E+03</totfact>
</mgrwt>
</event>
<event>
 4    1  0.1399921E-004  0.5442460E+03  0.7818608E-02  0.1002835E+00
          2   -1    0    0  501    0  0.00000000000E+00  0.00000000000E+00  0.57006612992E+03  0.57006612993E+03  0.25500000000E-02 0.  1.
         -2   -1    0    0    0  501 -0.00000000000E+00 -0.00000000000E+00 -0.12989882351E+03  0.12989882353E+03  0.25500000000E-02 0. -1.
    5000001    1    1    2    0    0  0.26472071380E+02 -0.23679070984E+03  0.26372287323E+03  0.37742464771E+03  0.12700000000E+03 0.  0.
   -5000001    1    1    2    0    0 -0.26472071380E+02  0.23679070984E+03  0.17644443319E+03  0.32254030575E+03  0.12700000000E+03 0.  0.
<mgrwt>
<rscale>  0 0.54424597E+03</rscale>
<asrwt>0</asrwt>
<pdfrwt beam="1">  1        2 0.81438020E-01 0.54424597E+03</pdfrwt>
<pdfrwt beam="2">  1       -2 0.18556975E-01 0.54424597E+03</pdfrwt>
<totfact> 0.14010876E+03</totfact>
</mgrwt>
</event>
<event>
 4    1  0.1399921E-004  0.2922287E+03  0.7818608E-02  0.1089191E+00
         -2   -1    0    0    0  501 -0.00000000000E+00  0.00000000000E+00  0.22752835273E+02  0.22752835416E+02  0.25500000000E-02 0. -1.
          2   -1    0    0  501    0  0.00000000000E+00 -0.00000000000E+00 -0.93831845678E+03  0.93831845678E+03  0.25500000000E-02 0.  1.
    5000001    1    1    2    0    0 -0.58833475014E+02 -0.29451200669E+02 -0.35957840239E+03  0.38698110867E+03  0.12700000000E+03 0.  0.
   -5000001    1    1    2    0    0  0.58833475014E+02  0.29451200669E+02 -0.55598721911E+03  0.57409018353E+03  0.12700000000E+03 0.  0.
<mgrwt>
<rscale>  0 0.29222871E+03</rscale>
<asrwt>0</asrwt>
<pdfrwt beam="1">  1        2 0.13404547E+00 0.29222871E+03</pdfrwt>
<pdfrwt beam="2">  1       -2 0.32504056E-02 0.29222871E+03</pdfrwt>
<totfact> 0.11915745E+04</totfact>
</mgrwt>
</event>
<event>
 4    1  0.1399921E-004  0.4480467E+03  0.7818608E-02  0.1028306E+00
          2   -1    0    0  501    0  0.00000000000E+00  0.00000000000E+00  0.67468124291E+03  0.67468124291E+03  0.25500000000E-02 0.  1.
         -2   -1    0    0    0  501 -0.00000000000E+00 -0.00000000000E+00 -0.74385452421E+02  0.74385452465E+02  0.25500000000E-02 0. -1.
    5000001    1    1    2    0    0 -0.31435583141E+02 -0.14635790297E+03  0.48058869437E+03  0.51913709635E+03  0.12700000000E+03 0.  0.
   -5000001    1    1    2    0    0  0.31435583141E+02  0.14635790297E+03  0.11970709611E+03  0.22992959902E+03  0.12700000000E+03 0.  0.
<mgrwt>
<rscale>  0 0.44804674E+03</rscale>
<asrwt>0</asrwt>
<pdfrwt beam="1">  1        2 0.96383030E-01 0.44804674E+03</pdfrwt>
<pdfrwt beam="2">  1       -2 0.10626494E-01 0.44804674E+03</pdfrwt>
<totfact> 0.29060556E+03</totfact>
</mgrwt>
</event>
<event>
 4    1  0.1399921E-004  0.3861852E+03  0.7818608E-02  0.1048671E+00
          2   -1    0    0  501    0  0.00000000000E+00  0.00000000000E+00  0.12995430905E+04  0.12995430905E+04  0.25500000000E-02 0.  1.
         -2   -1    0    0    0  501 -0.00000000000E+00 -0.00000000000E+00 -0.28690665795E+02  0.28690665908E+02  0.25500000000E-02 0. -1.
    5000001    1    1    2    0    0 -0.77984635780E+01 -0.14216568528E+03  0.73767783894E+03  0.76195110878E+03  0.12700000000E+03 0.  0.
   -5000001    1    1    2    0    0  0.77984635780E+01  0.14216568528E+03  0.53317458581E+03  0.56628264767E+03  0.12700000000E+03 0.  0.
<mgrwt>
<rscale>  0 0.38618522E+03</rscale>
<asrwt>0</asrwt>
<pdfrwt beam="1">  1        2 0.18564904E+00 0.38618522E+03</pdfrwt>
<pdfrwt beam="2">  1       -2 0.40986659E-02 0.38618522E+03</pdfrwt>
<totfact> 0.52733421E+03</totfact>
</mgrwt>
</event>
<event>
 4    1  0.1399921E-004  0.2868692E+03  0.7818608E-02  0.1091995E+00
         -2   -1    0    0    0  501 -0.00000000000E+00  0.00000000000E+00  0.73754080687E+01  0.73754085095E+01  0.25500000000E-02 0. -1.
          2   -1    0    0  501    0  0.00000000000E+00 -0.00000000000E+00 -0.27894710788E+04  0.27894710788E+04  0.25500000000E-02 0.  1.
    5000001    1    1    2    0    0 -0.12902659434E+02  0.65283169140E+02 -0.14301887681E+04  0.14373577436E+04  0.12700000000E+03 0.  0.
   -5000001    1    1    2    0    0  0.12902659434E+02 -0.65283169140E+02 -0.13519069026E+04  0.13594887437E+04  0.12700000000E+03 0.  0.
<mgrwt>
<rscale>  0 0.28686923E+03</rscale>
<asrwt>0</asrwt>
<pdfrwt beam="1">  1        2 0.39849520E+00 0.28686923E+03</pdfrwt>
<pdfrwt beam="2">  1       -2 0.10536315E-02 0.28686923E+03</pdfrwt>
<totfact> 0.70673718E+03</totfact>
</mgrwt>
</event>
<event>
 4    1  0.1399921E-004  0.3673530E+03  0.7818608E-02  0.1055710E+00
          2   -1    0    0  501    0  0.00000000000E+00  0.00000000000E+00  0.28336317074E+04  0.28336317074E+04  0.25500000000E-02 0.  1.
         -2   -1    0    0    0  501 -0.00000000000E+00 -0.00000000000E+00 -0.11905940991E+02  0.11905941265E+02  0.25500000000E-02 0. -1.
    5000001    1    1    2    0    0  0.69529688522E+02 -0.11110547119E+03  0.15713482383E+04  0.15819112141E+04  0.12700000000E+03 0.  0.
   -5000001    1    1    2    0    0 -0.69529688522E+02  0.11110547119E+03  0.12503775282E+04  0.12636264346E+04  0.12700000000E+03 0.  0.
<mgrwt>
<rscale>  0 0.36735298E+03</rscale>
<asrwt>0</asrwt>
<pdfrwt beam="1">  1        2 0.40480448E+00 0.36735298E+03</pdfrwt>
<pdfrwt beam="2">  1       -2 0.17008489E-02 0.36735298E+03</pdfrwt>
<totfact> 0.33100097E+03</totfact>
</mgrwt>
</event>
<event>
 4    1  0.1399921E-004  0.7988765E+03  0.7818608E-02  0.9561645E-01
         -2   -1    0    0    0  501 -0.00000000000E+00  0.00000000000E+00  0.32428632341E+03  0.32428632342E+03  0.25500000000E-02 0. -1.
          2   -1    0    0  501    0  0.00000000000E+00 -0.00000000000E+00 -0.49200628170E+03  0.49200628171E+03  0.25500000000E-02 0.  1.
    5000001    1    1    2    0    0  0.16223154076E+03 -0.31516587397E+03 -0.22008295102E+03  0.43613542193E+03  0.12700000000E+03 0.  0.
   -5000001    1    1    2    0    0 -0.16223154076E+03  0.31516587397E+03  0.52362992728E+02  0.38015718320E+03  0.12700000000E+03 0.  0.
<mgrwt>
<rscale>  0 0.79887648E+03</rscale>
<asrwt>0</asrwt>
<pdfrwt beam="1">  1        2 0.70286611E-01 0.79887648E+03</pdfrwt>
<pdfrwt beam="2">  1       -2 0.46326618E-01 0.79887648E+03</pdfrwt>
<totfact> 0.30392669E+02</totfact>
</mgrwt>
</event>
<event>
 4    1  0.1399921E-004  0.4719083E+03  0.7818608E-02  0.1021383E+00
         -2   -1    0    0    0  501 -0.00000000000E+00  0.00000000000E+00  0.26678598747E+03  0.26678598749E+03  0.25500000000E-02 0. -1.
          2   -1    0    0  501    0  0.00000000000E+00 -0.00000000000E+00 -0.20868550291E+03  0.20868550293E+03  0.25500000000E-02 0.  1.
    5000001    1    1    2    0    0  0.93790959758E+02 -0.14540989233E+03 -0.69692727907E+02  0.22566979692E+03  0.12700000000E+03 0.  0.
   -5000001    1    1    2    0    0 -0.93790959758E+02  0.14540989233E+03  0.12779321247E+03  0.24980169349E+03  0.12700000000E+03 0.  0.
<mgrwt>
<rscale>  0 0.47190833E+03</rscale>
<asrwt>0</asrwt>
<pdfrwt beam="1">  1        2 0.29812215E-01 0.47190833E+03</pdfrwt>
<pdfrwt beam="2">  1       -2 0.38112284E-01 0.47190833E+03</pdfrwt>
<totfact> 0.11639663E+03</totfact>
</mgrwt>
</event>
<event>
 4    1  0.1399921E-004  0.4935595E+03  0.7818608E-02  0.1015474E+00
          2   -1    0    0  501    0  0.00000000000E+00  0.00000000000E+00  0.23117940113E+04  0.23117940113E+04  0.25500000000E-02 0.  1.
         -2   -1    0    0    0  501 -0.00000000000E+00 -0.00000000000E+00 -0.26343282357E+02  0.26343282481E+02  0.25500000000E-02 0. -1.
    5000001    1    1    2    0    0 -0.16908372357E+03  0.12693237001E+03  0.11823916694E+04  0.12078411287E+04  0.12700000000E+03 0.  0.
   -5000001    1    1    2    0    0  0.16908372357E+03 -0.12693237001E+03  0.11030590595E+04  0.11302961651E+04  0.12700000000E+03 0.  0.
<mgrwt>
<rscale>  0 0.49355949E+03</rscale>
<asrwt>0</asrwt>
<pdfrwt beam="1">  1        2 0.33025628E+00 0.49355949E+03</pdfrwt>
<pdfrwt beam="2">  1       -2 0.37633262E-02 0.49355949E+03</pdfrwt>
<totfact> 0.18449509E+03</totfact>
</mgrwt>
</event>
<event>
 4    1  0.1399921E-004  0.3126036E+03  0.7818608E-02  0.1079105E+00
          2   -1    0    0  501    0  0.00000000000E+00  0.00000000000E+00  0.36198058285E+02  0.36198058375E+02  0.25500000000E-02 0.  1.
         -2   -1    0    0    0  501 -0.00000000000E+00 -0.00000000000E+00 -0.67490493900E+03  0.67490493900E+03  0.25500000000E-02 0. -1.
    5000001    1    1    2    0    0 -0.81606141902E+02  0.26254135025E+02 -0.24915140336E+03  0.29249660476E+03  0.12700000000E+03 0.  0.
   -5000001    1    1    2    0    0  0.81606141902E+02 -0.26254135025E+02 -0.38955547735E+03  0.41860639261E+03  0.12700000000E+03 0.  0.
<mgrwt>
<rscale>  0 0.31260357E+03</rscale>
<asrwt>0</asrwt>
<pdfrwt beam="1">  1        2 0.51711516E-02 0.31260357E+03</pdfrwt>
<pdfrwt beam="2">  1       -2 0.96414984E-01 0.31260357E+03</pdfrwt>
<totfact> 0.14086744E+03</totfact>
</mgrwt>
</event>
<event>
 4    1  0.1399921E-004  0.3623275E+03  0.7818608E-02  0.1057666E+00
         -2   -1    0    0    0  501 -0.00000000000E+00  0.00000000000E+00  0.15613924396E+03  0.15613924398E+03  0.25500000000E-02 0. -1.
          2   -1    0    0  501    0  0.00000000000E+00 -0.00000000000E+00 -0.21019899521E+03  0.21019899523E+03  0.25500000000E-02 0.  1.
    5000001    1    1    2    0    0 -0.22204413767E+02  0.11435947667E+03  0.29447065575E+02  0.17483493806E+03  0.12700000000E+03 0.  0.
   -5000001    1    1    2    0    0  0.22204413767E+02 -0.11435947667E+03 -0.83506816830E+02  0.19150330115E+03  0.12700000000E+03 0.  0.
<mgrwt>
<rscale>  0 0.36232754E+03</rscale>
<asrwt>0</asrwt>
<pdfrwt beam="1">  1        2 0.30028428E-01 0.36232754E+03</pdfrwt>
<pdfrwt beam="2">  1       -2 0.22305606E-01 0.36232754E+03</pdfrwt>
<totfact> 0.30615669E+03</totfact>
</mgrwt>
</event>
<event>
 4    1  0.1399921E-004  0.9347530E+03  0.7818608E-02  0.9383152E-01
          2   -1    0    0  501    0  0.00000000000E+00  0.00000000000E+00  0.14604930977E+04  0.14604930977E+04  0.25500000000E-02 0.  1.
         -2   -1    0    0    0  501 -0.00000000000E+00 -0.00000000000E+00 -0.14956645773E+03  0.14956645775E+03  0.25500000000E-02 0. -1.
    5000001    1    1    2    0    0  0.38138607808E+03  0.23000652523E+03  0.76376432746E+03  0.89320954434E+03  0.12700000000E+03 0.  0.
   -5000001    1    1    2    0    0 -0.38138607808E+03 -0.23000652523E+03  0.54716231247E+03  0.71685001108E+03  0.12700000000E+03 0.  0.
<mgrwt>
<rscale>  0 0.93475297E+03</rscale>
<asrwt>0</asrwt>
<pdfrwt beam="1">  1        2 0.20864187E+00 0.93475297E+03</pdfrwt>
<pdfrwt beam="2">  1       -2 0.21366637E-01 0.93475297E+03</pdfrwt>
<totfact> 0.29150702E+02</totfact>
</mgrwt>
</event>
<event>
 4    1  0.1399921E-004  0.4539371E+03  0.7818608E-02  0.1026554E+00
          2   -1    0    0  501    0  0.00000000000E+00  0.00000000000E+00  0.98497700152E+03  0.98497700152E+03  0.25500000000E-02 0.  1.
         -2   -1    0    0    0  501 -0.00000000000E+00 -0.00000000000E+00 -0.52300434670E+02  0.52300434732E+02  0.25500000000E-02 0. -1.
    5000001    1    1    2    0    0 -0.17530825966E+03 -0.39873530414E+02  0.33987586922E+03  0.40492899477E+03  0.12700000000E+03 0.  0.
   -5000001    1    1    2    0    0  0.17530825966E+03  0.39873530414E+02  0.59280069763E+03  0.63234844148E+03  0.12700000000E+03 0.  0.
<mgrwt>
<rscale>  0 0.45393711E+03</rscale>
<asrwt>0</asrwt>
<pdfrwt beam="1">  1        2 0.14071100E+00 0.45393711E+03</pdfrwt>
<pdfrwt beam="2">  1       -2 0.74714907E-02 0.45393711E+03</pdfrwt>
<totfact> 0.31442017E+03</totfact>
</mgrwt>
</event>
<event>
 4    1  0.1399921E-004  0.3546826E+03  0.7818608E-02  0.1060709E+00
          2   -1    0    0  501    0  0.00000000000E+00  0.00000000000E+00  0.14169500953E+04  0.14169500953E+04  0.25500000000E-02 0.  1.
         -2   -1    0    0    0  501 -0.00000000000E+00 -0.00000000000E+00 -0.22195513513E+02  0.22195513659E+02  0.25500000000E-02 0. -1.
    5000001    1    1    2    0    0 -0.91104449595E+02 -0.43397113830E+02  0.40654326544E+03  0.43770967193E+03  0.12700000000E+03 0.  0.
   -5000001    1    1    2    0    0  0.91104449595E+02  0.43397113830E+02  0.98821131635E+03  0.10014359370E+04  0.12700000000E+03 0.  0.
<mgrwt>
<rscale>  0 0.35468259E+03</rscale>
<asrwt>0</asrwt>
<pdfrwt beam="1">  1        2 0.20242134E+00 0.35468259E+03</pdfrwt>
<pdfrwt beam="2">  1       -2 0.31707892E-02 0.35468259E+03</pdfrwt>
<totfact> 0.67353837E+03</totfact>
</mgrwt>
</event>
<event>
 4    1  0.1399921E-004  0.8779375E+03  0.7818608E-02  0.9453589E-01
          2   -1    0    0  501    0  0.00000000000E+00  0.00000000000E+00  0.47275832140E+03  0.47275832141E+03  0.25500000000E-02 0.  1.
         -2   -1    0    0    0  501 -0.00000000000E+00 -0.00000000000E+00 -0.40759423817E+03  0.40759423818E+03  0.25500000000E-02 0. -1.
    5000001    1    1    2    0    0  0.99848547593E+02  0.28975925333E+03 -0.25567073092E+03  0.41883968293E+03  0.12700000000E+03 0.  0.
   -5000001    1    1    2    0    0 -0.99848547593E+02 -0.28975925333E+03  0.32083481415E+03  0.46151287665E+03  0.12700000000E+03 0.  0.
<mgrwt>
<rscale>  0 0.87793751E+03</rscale>
<asrwt>0</asrwt>
<pdfrwt beam="1">  1        2 0.67536903E-01 0.87793751E+03</pdfrwt>
<pdfrwt beam="2">  1       -2 0.58227748E-01 0.87793751E+03</pdfrwt>
<totfact> 0.19839125E+02</totfact>
</mgrwt>
</event>
<event>
 4    1  0.1399921E-004  0.6246553E+03  0.7818608E-02  0.9855534E-01
         -2   -1    0    0    0  501 -0.00000000000E+00  0.00000000000E+00  0.49778147164E+02  0.49778147229E+02  0.25500000000E-02 0. -1.
          2   -1    0    0  501    0  0.00000000000E+00 -0.00000000000E+00 -0.19596665627E+04  0.19596665627E+04  0.25500000000E-02 0.  1.
    5000001    1    1    2    0    0  0.44408031605E+02 -0.23593641158E+03 -0.45886012046E+03  0.53321634796E+03  0.12700000000E+03 0.  0.
   -5000001    1    1    2    0    0 -0.44408031605E+02  0.23593641158E+03 -0.14510282950E+04  0.14762283619E+04  0.12700000000E+03 0.  0.
<mgrwt>
<rscale>  0 0.62465533E+03</rscale>
<asrwt>0</asrwt>
<pdfrwt beam="1">  1        2 0.27995232E+00 0.62465533E+03</pdfrwt>
<pdfrwt beam="2">  1       -2 0.71111651E-02 0.62465533E+03</pdfrwt>
<totfact> 0.10247136E+03</totfact>
</mgrwt>
</event>
<event>
 4    1  0.1399921E-004  0.5964675E+03  0.7818608E-02  0.9912762E-01
          2   -1    0    0  501    0  0.00000000000E+00  0.00000000000E+00  0.13060290110E+04  0.13060290110E+04  0.25500000000E-02 0. -1.
         -2   -1    0    0    0  501 -0.00000000000E+00 -0.00000000000E+00 -0.68102149713E+02  0.68102149761E+02  0.25500000000E-02 0.  1.
    5000001    1    1    2    0    0  0.16493150543E+03  0.20096692448E+03  0.78547885558E+03  0.83707594564E+03  0.12700000000E+03 0.  0.
   -5000001    1    1    2    0    0 -0.16493150543E+03 -0.20096692448E+03  0.45244800571E+03  0.53705521512E+03  0.12700000000E+03 0.  0.
<mgrwt>
<rscale>  0 0.59646755E+03</rscale>
<asrwt>0</asrwt>
<pdfrwt beam="1">  1        2 0.18657557E+00 0.59646755E+03</pdfrwt>
<pdfrwt beam="2">  1       -2 0.97288786E-02 0.59646755E+03</pdfrwt>
<totfact> 0.13507340E+03</totfact>
</mgrwt>
</event>
<event>
 4    1  0.1399921E-004  0.9606358E+03  0.7818608E-02  0.9352805E-01
         -2   -1    0    0    0  501 -0.00000000000E+00  0.00000000000E+00  0.36560753906E+03  0.36560753907E+03  0.25500000000E-02 0. -1.
          2   -1    0    0  501    0  0.00000000000E+00 -0.00000000000E+00 -0.63101890147E+03  0.63101890147E+03  0.25500000000E-02 0.  1.
    5000001    1    1    2    0    0  0.24600963285E+03 -0.12690277665E+03 -0.51803886987E+03  0.60093121476E+03  0.12700000000E+03 0.  0.
   -5000001    1    1    2    0    0 -0.24600963285E+03  0.12690277665E+03  0.25262750746E+03  0.39569522578E+03  0.12700000000E+03 0.  0.
<mgrwt>
<rscale>  0 0.96063576E+03</rscale>
<asrwt>0</asrwt>
<pdfrwt beam="1">  1        2 0.90145558E-01 0.96063576E+03</pdfrwt>
<pdfrwt beam="2">  1       -2 0.52229648E-01 0.96063576E+03</pdfrwt>
<totfact> 0.17681718E+02</totfact>
</mgrwt>
</event>
<event>
 4    1  0.1399921E-004  0.4072789E+03  0.7818608E-02  0.1041288E+00
          2   -1    0    0  501    0  0.00000000000E+00  0.00000000000E+00  0.18473704603E+04  0.18473704603E+04  0.25500000000E-02 0.  1.
         -2   -1    0    0    0  501 -0.00000000000E+00 -0.00000000000E+00 -0.22447593810E+02  0.22447593955E+02  0.25500000000E-02 0. -1.
    5000001    1    1    2    0    0 -0.88648745076E+02  0.11486734630E+03  0.61186773394E+03  0.64153272020E+03  0.12700000000E+03 0.  0.
   -5000001    1    1    2    0    0  0.88648745076E+02 -0.11486734630E+03  0.12130551325E+04  0.12282853340E+04  0.12700000000E+03 0.  0.
<mgrwt>
<rscale>  0 0.40727888E+03</rscale>
<asrwt>0</asrwt>
<pdfrwt beam="1">  1        2 0.26391006E+00 0.40727888E+03</pdfrwt>
<pdfrwt beam="2">  1       -2 0.32067992E-02 0.40727888E+03</pdfrwt>
<totfact> 0.40185241E+03</totfact>
</mgrwt>
</event>
<event>
 4    1  0.1399921E-004  0.1339446E+04  0.7818608E-02  0.8998856E-01
          2   -1    0    0  501    0  0.00000000000E+00  0.00000000000E+00  0.75549876576E+03  0.75549876576E+03  0.25500000000E-02 0. -1.
         -2   -1    0    0    0  501 -0.00000000000E+00 -0.00000000000E+00 -0.59368537668E+03  0.59368537669E+03  0.25500000000E-02 0.  1.
    5000001    1    1    2    0    0  0.50387329228E+03  0.40043104614E+03 -0.54855498116E+02  0.65830953439E+03  0.12700000000E+03 0.  0.
   -5000001    1    1    2    0    0 -0.50387329228E+03 -0.40043104614E+03  0.21666888719E+03  0.69087460806E+03  0.12700000000E+03 0.  0.
<mgrwt>
<rscale>  0 0.13394455E+04</rscale>
<asrwt>0</asrwt>
<pdfrwt beam="1">  1        2 0.10792839E+00 0.13394455E+04</pdfrwt>
<pdfrwt beam="2">  1       -2 0.84812197E-01 0.13394455E+04</pdfrwt>
<totfact> 0.48502549E+01</totfact>
</mgrwt>
</event>
<event>
 4    1  0.1399921E-004  0.2787852E+03  0.7818608E-02  0.1096354E+00
         -2   -1    0    0    0  501 -0.00000000000E+00  0.00000000000E+00  0.20385781622E+02  0.20385781781E+02  0.25500000000E-02 0. -1.
          2   -1    0    0  501    0  0.00000000000E+00 -0.00000000000E+00 -0.95313014380E+03  0.95313014381E+03  0.25500000000E-02 0.  1.
    5000001    1    1    2    0    0  0.31213675053E+02  0.45488260813E+02 -0.52244314684E+03  0.54048063523E+03  0.12700000000E+03 0.  0.
   -5000001    1    1    2    0    0 -0.31213675053E+02 -0.45488260813E+02 -0.41030121534E+03  0.43303529036E+03  0.12700000000E+03 0.  0.
<mgrwt>
<rscale>  0 0.27878524E+03</rscale>
<asrwt>0</asrwt>
<pdfrwt beam="1">  1        2 0.13616142E+00 0.27878524E+03</pdfrwt>
<pdfrwt beam="2">  1       -2 0.29122551E-02 0.27878524E+03</pdfrwt>
<totfact> 0.13725194E+04</totfact>
</mgrwt>
</event>
<event>
 4    1  0.1399921E-004  0.3808809E+03  0.7818608E-02  0.1050609E+00
         -2   -1    0    0    0  501 -0.00000000000E+00  0.00000000000E+00  0.17518891422E+03  0.17518891424E+03  0.25500000000E-02 0. -1.
          2   -1    0    0  501    0  0.00000000000E+00 -0.00000000000E+00 -0.20701973412E+03  0.20701973413E+03  0.25500000000E-02 0.  1.
    5000001    1    1    2    0    0  0.25719462902E+02 -0.13558864043E+03 -0.49088057628E+02  0.19386698426E+03  0.12700000000E+03 0.  0.
   -5000001    1    1    2    0    0 -0.25719462902E+02  0.13558864043E+03  0.17257237729E+02  0.18834166411E+03  0.12700000000E+03 0.  0.
<mgrwt>
<rscale>  0 0.38088089E+03</rscale>
<asrwt>0</asrwt>
<pdfrwt beam="1">  1        2 0.29574248E-01 0.38088089E+03</pdfrwt>
<pdfrwt beam="2">  1       -2 0.25026988E-01 0.38088089E+03</pdfrwt>
<totfact> 0.25444442E+03</totfact>
</mgrwt>
</event>
<event>
 4    1  0.1399921E-004  0.5663944E+03  0.7818608E-02  0.9977689E-01
         -2   -1    0    0    0  501 -0.00000000000E+00  0.00000000000E+00  0.24741494047E+02  0.24741494179E+02  0.25500000000E-02 0. -1.
          2   -1    0    0  501    0  0.00000000000E+00 -0.00000000000E+00 -0.32415445806E+04  0.32415445806E+04  0.25500000000E-02 0.  1.
    5000001    1    1    2    0    0  0.15213923336E+03 -0.19700092835E+03 -0.13431320217E+04  0.13718922479E+04  0.12700000000E+03 0.  0.
   -5000001    1    1    2    0    0 -0.15213923336E+03  0.19700092835E+03 -0.18736710648E+04  0.18943938269E+04  0.12700000000E+03 0.  0.
<mgrwt>
<rscale>  0 0.56639441E+03</rscale>
<asrwt>0</asrwt>
<pdfrwt beam="1">  1        2 0.46307753E+00 0.56639441E+03</pdfrwt>
<pdfrwt beam="2">  1       -2 0.35345012E-02 0.56639441E+03</pdfrwt>
<totfact> 0.65100930E+02</totfact>
</mgrwt>
</event>
<event>
 4    1  0.1399921E-004  0.3076054E+03  0.7818608E-02  0.1081499E+00
          2   -1    0    0  501    0  0.00000000000E+00  0.00000000000E+00  0.22527889098E+04  0.22527889098E+04  0.25500000000E-02 0.  1.
         -2   -1    0    0    0  501 -0.00000000000E+00 -0.00000000000E+00 -0.10500435091E+02  0.10500435400E+02  0.25500000000E-02 0. -1.
    5000001    1    1    2    0    0  0.54407299391E+02  0.62740230743E+02  0.93649891842E+03  0.94871266197E+03  0.12700000000E+03 0.  0.
   -5000001    1    1    2    0    0 -0.54407299391E+02 -0.62740230743E+02  0.13057895563E+04  0.13145766832E+04  0.12700000000E+03 0.  0.
<mgrwt>
<rscale>  0 0.30760536E+03</rscale>
<asrwt>0</asrwt>
<pdfrwt beam="1">  1        2 0.32182714E+00 0.30760536E+03</pdfrwt>
<pdfrwt beam="2">  1       -2 0.15000615E-02 0.30760536E+03</pdfrwt>
<totfact> 0.78473096E+03</totfact>
</mgrwt>
</event>
<event>
 4    1  0.1399921E-004  0.3734156E+03  0.7818608E-02  0.1053395E+00
          2   -1    0    0  501    0  0.00000000000E+00  0.00000000000E+00  0.23273757657E+04  0.23273757657E+04  0.25500000000E-02 0.  1.
         -2   -1    0    0    0  501 -0.00000000000E+00 -0.00000000000E+00 -0.14978157967E+02  0.14978158184E+02  0.25500000000E-02 0. -1.
    5000001    1    1    2    0    0 -0.12133846835E+03 -0.61180923009E+02  0.10541483865E+04  0.10704316653E+04  0.12700000000E+03 0.  0.
   -5000001    1    1    2    0    0  0.12133846835E+03  0.61180923009E+02  0.12582492212E+04  0.12719222586E+04  0.12700000000E+03 0.  0.
<mgrwt>
<rscale>  0 0.37341560E+03</rscale>
<asrwt>0</asrwt>
<pdfrwt beam="1">  1        2 0.33248215E+00 0.37341560E+03</pdfrwt>
<pdfrwt beam="2">  1       -2 0.21397375E-02 0.37341560E+03</pdfrwt>
<totfact> 0.42624967E+03</totfact>
</mgrwt>
</event>
<event>
 4    1  0.1399921E-004  0.5403526E+03  0.7818608E-02  0.1003752E+00
         -2   -1    0    0    0  501 -0.00000000000E+00  0.00000000000E+00  0.30264300753E+03  0.30264300754E+03  0.25500000000E-02 0. -1.
          2   -1    0    0  501    0  0.00000000000E+00 -0.00000000000E+00 -0.24119254831E+03  0.24119254832E+03  0.25500000000E-02 0.  1.
    5000001    1    1    2    0    0  0.10062170198E+03 -0.19709873860E+03  0.12014382743E+03  0.28202159303E+03  0.12700000000E+03 0.  0.
   -5000001    1    1    2    0    0 -0.10062170198E+03  0.19709873860E+03 -0.58693368205E+02  0.26181396284E+03  0.12700000000E+03 0.  0.
<mgrwt>
<rscale>  0 0.54035262E+03</rscale>
<asrwt>0</asrwt>
<pdfrwt beam="1">  1        2 0.34456078E-01 0.54035262E+03</pdfrwt>
<pdfrwt beam="2">  1       -2 0.43234715E-01 0.54035262E+03</pdfrwt>
<totfact> 0.77571124E+02</totfact>
</mgrwt>
</event>
<event>
 4    1  0.1399921E-004  0.5271294E+03  0.7818608E-02  0.1006931E+00
          2   -1    0    0  501    0  0.00000000000E+00  0.00000000000E+00  0.27519523769E+03  0.27519523770E+03  0.25500000000E-02 0.  1.
         -2   -1    0    0    0  501 -0.00000000000E+00 -0.00000000000E+00 -0.25242569672E+03  0.25242569673E+03  0.25500000000E-02 0. -1.
    5000001    1    1    2    0    0 -0.21885518797E+03 -0.72523475790E+02  0.24817484674E+02  0.26439015751E+03  0.12700000000E+03 0.  0.
   -5000001    1    1    2    0    0  0.21885518797E+03  0.72523475790E+02 -0.20479437059E+01  0.26323077692E+03  0.12700000000E+03 0.  0.
<mgrwt>
<rscale>  0 0.52712939E+03</rscale>
<asrwt>0</asrwt>
<pdfrwt beam="1">  1        2 0.39313605E-01 0.52712939E+03</pdfrwt>
<pdfrwt beam="2">  1       -2 0.36060814E-01 0.52712939E+03</pdfrwt>
<totfact> 0.95195521E+02</totfact>
</mgrwt>
</event>
<event>
 4    1  0.1399921E-004  0.2888720E+03  0.7818608E-02  0.1090940E+00
         -2   -1    0    0    0  501 -0.00000000000E+00  0.00000000000E+00  0.10847666068E+02  0.10847666367E+02  0.25500000000E-02 0. -1.
          2   -1    0    0  501    0  0.00000000000E+00 -0.00000000000E+00 -0.19231566067E+04  0.19231566067E+04  0.25500000000E-02 0.  1.
    5000001    1    1    2    0    0 -0.57479343363E+02  0.27459352785E+02 -0.78222947157E+03  0.79502819897E+03  0.12700000000E+03 0.  0.
   -5000001    1    1    2    0    0  0.57479343363E+02 -0.27459352785E+02 -0.11300794691E+04  0.11389760741E+04  0.12700000000E+03 0.  0.
<mgrwt>
<rscale>  0 0.28887202E+03</rscale>
<asrwt>0</asrwt>
<pdfrwt beam="1">  1        2 0.27473644E+00 0.28887202E+03</pdfrwt>
<pdfrwt beam="2">  1       -2 0.15496678E-02 0.28887202E+03</pdfrwt>
<totfact> 0.10843434E+04</totfact>
</mgrwt>
</event>
<event>
 4    1  0.1399921E-004  0.7222409E+03  0.7818608E-02  0.9679936E-01
         -2   -1    0    0    0  501 -0.00000000000E+00  0.00000000000E+00  0.58098622280E+03  0.58098622281E+03  0.25500000000E-02 0. -1.
          2   -1    0    0  501    0  0.00000000000E+00 -0.00000000000E+00 -0.22445964894E+03  0.22445964895E+03  0.25500000000E-02 0.  1.
    5000001    1    1    2    0    0  0.24828046260E+03 -0.22904212842E+03  0.19303622160E+03  0.40926210129E+03  0.12700000000E+03 0.  0.
   -5000001    1    1    2    0    0 -0.24828046260E+03  0.22904212842E+03  0.16349035226E+03  0.39618377047E+03  0.12700000000E+03 0.  0.
<mgrwt>
<rscale>  0 0.72224086E+03</rscale>
<asrwt>0</asrwt>
<pdfrwt beam="1">  1        2 0.32065665E-01 0.72224086E+03</pdfrwt>
<pdfrwt beam="2">  1       -2 0.82998031E-01 0.72224086E+03</pdfrwt>
<totfact> 0.21188825E+02</totfact>
</mgrwt>
</event>
<event>
 4    1  0.1399921E-004  0.7019727E+03  0.7818608E-02  0.9713865E-01
          2   -1    0    0  501    0  0.00000000000E+00  0.00000000000E+00  0.73572268690E+03  0.73572268690E+03  0.25500000000E-02 0.  1.
         -2   -1    0    0    0  501 -0.00000000000E+00 -0.00000000000E+00 -0.16744273239E+03  0.16744273241E+03  0.25500000000E-02 0. -1.
    5000001    1    1    2    0    0 -0.22315234653E+03  0.15175483374E+03  0.46079079814E+02  0.30179261244E+03  0.12700000000E+03 0.  0.
   -5000001    1    1    2    0    0  0.22315234653E+03 -0.15175483374E+03  0.52220087469E+03  0.60137280688E+03  0.12700000000E+03 0.  0.
<mgrwt>
<rscale>  0 0.70197270E+03</rscale>
<asrwt>0</asrwt>
<pdfrwt beam="1">  1        2 0.10510324E+00 0.70197270E+03</pdfrwt>
<pdfrwt beam="2">  1       -2 0.23920391E-01 0.70197270E+03</pdfrwt>
<totfact> 0.65885105E+02</totfact>
</mgrwt>
</event>
<event>
 4    1  0.1399921E-004  0.6017148E+03  0.7818608E-02  0.9901855E-01
         -2   -1    0    0    0  501 -0.00000000000E+00  0.00000000000E+00  0.35383426202E+02  0.35383426294E+02  0.25500000000E-02 0. -1.
          2   -1    0    0  501    0  0.00000000000E+00 -0.00000000000E+00 -0.25581235958E+04  0.25581235958E+04  0.25500000000E-02 0.  1.
    5000001    1    1    2    0    0  0.11941922592E+03 -0.20861955776E+03 -0.18167515749E+04  0.18369807719E+04  0.12700000000E+03 0.  0.
   -5000001    1    1    2    0    0 -0.11941922592E+03  0.20861955776E+03 -0.70598859467E+03  0.75652625018E+03  0.12700000000E+03 0.  0.
<mgrwt>
<rscale>  0 0.60171481E+03</rscale>
<asrwt>0</asrwt>
<pdfrwt beam="1">  1        2 0.36544611E+00 0.60171481E+03</pdfrwt>
<pdfrwt beam="2">  1       -2 0.50547768E-02 0.60171481E+03</pdfrwt>
<totfact> 0.87153783E+02</totfact>
</mgrwt>
</event>
<event>
 4    1  0.1399921E-004  0.3090536E+03  0.7818608E-02  0.1080800E+00
         -2   -1    0    0    0  501 -0.00000000000E+00  0.00000000000E+00  0.15472298695E+02  0.15472298905E+02  0.25500000000E-02 0. -1.
          2   -1    0    0  501    0  0.00000000000E+00 -0.00000000000E+00 -0.15433086438E+04  0.15433086438E+04  0.25500000000E-02 0.  1.
    5000001    1    1    2    0    0  0.64748129631E+02  0.26670215591E+02 -0.10329861369E+04  0.10431169540E+04  0.12700000000E+03 0.  0.
   -5000001    1    1    2    0    0 -0.64748129631E+02 -0.26670215591E+02 -0.49485020819E+03  0.51566398869E+03  0.12700000000E+03 0.  0.
<mgrwt>
<rscale>  0 0.30905360E+03</rscale>
<asrwt>0</asrwt>
<pdfrwt beam="1">  1        2 0.22047257E+00 0.30905360E+03</pdfrwt>
<pdfrwt beam="2">  1       -2 0.22103294E-02 0.30905360E+03</pdfrwt>
<totfact> 0.99186853E+03</totfact>
</mgrwt>
</event>
<event>
 4    1  0.1399921E-004  0.9958580E+03  0.7818608E-02  0.9313099E-01
         -2   -1    0    0    0  501 -0.00000000000E+00  0.00000000000E+00  0.79656617560E+03  0.79656617560E+03  0.25500000000E-02 0. -1.
          2   -1    0    0  501    0  0.00000000000E+00 -0.00000000000E+00 -0.31125262001E+03  0.31125262002E+03  0.25500000000E-02 0.  1.
    5000001    1    1    2    0    0  0.18823091577E+03 -0.32624305558E+03  0.57627140312E+03  0.70005938250E+03  0.12700000000E+03 0.  0.
   -5000001    1    1    2    0    0 -0.18823091577E+03  0.32624305558E+03 -0.90957847533E+02  0.40775941313E+03  0.12700000000E+03 0.  0.
<mgrwt>
<rscale>  0 0.99585804E+03</rscale>
<asrwt>0</asrwt>
<pdfrwt beam="1">  1        2 0.44464661E-01 0.99585804E+03</pdfrwt>
<pdfrwt beam="2">  1       -2 0.11379517E+00 0.99585804E+03</pdfrwt>
<totfact> 0.69174398E+01</totfact>
</mgrwt>
</event>
<event>
 4    1  0.1399921E-004  0.6471493E+03  0.7818608E-02  0.9812143E-01
          2   -1    0    0  501    0  0.00000000000E+00  0.00000000000E+00  0.13119840327E+04  0.13119840327E+04  0.25500000000E-02 0.  1.
         -2   -1    0    0    0  501 -0.00000000000E+00 -0.00000000000E+00 -0.79803224174E+02  0.79803224214E+02  0.25500000000E-02 0. -1.
    5000001    1    1    2    0    0 -0.20982435019E+03 -0.20897052508E+03  0.55241474301E+03  0.63952012211E+03  0.12700000000E+03 0.  0.
   -5000001    1    1    2    0    0  0.20982435019E+03  0.20897052508E+03  0.67976606549E+03  0.75226713479E+03  0.12700000000E+03 0.  0.
<mgrwt>
<rscale>  0 0.64714931E+03</rscale>
<asrwt>0</asrwt>
<pdfrwt beam="1">  1        2 0.18742627E+00 0.64714931E+03</pdfrwt>
<pdfrwt beam="2">  1       -2 0.11400462E-01 0.64714931E+03</pdfrwt>
<totfact> 0.10338223E+03</totfact>
</mgrwt>
</event>
<event>
 4    1  0.1399921E-004  0.3869415E+03  0.7818608E-02  0.1048398E+00
         -2   -1    0    0    0  501 -0.00000000000E+00  0.00000000000E+00  0.11795410463E+03  0.11795410466E+03  0.25500000000E-02 0. -1.
          2   -1    0    0  501    0  0.00000000000E+00 -0.00000000000E+00 -0.31733466387E+03  0.31733466388E+03  0.25500000000E-02 0.  1.
    5000001    1    1    2    0    0 -0.39498823049E+02  0.10564927344E+03 -0.20389222502E+03  0.26537325680E+03  0.12700000000E+03 0.  0.
   -5000001    1    1    2    0    0  0.39498823049E+02 -0.10564927344E+03  0.45116657886E+01  0.16991551174E+03  0.12700000000E+03 0.  0.
<mgrwt>
<rscale>  0 0.38694147E+03</rscale>
<asrwt>0</asrwt>
<pdfrwt beam="1">  1        2 0.45333523E-01 0.38694147E+03</pdfrwt>
<pdfrwt beam="2">  1       -2 0.16850587E-01 0.38694147E+03</pdfrwt>
<totfact> 0.31600963E+03</totfact>
</mgrwt>
</event>
<event>
 4    1  0.1399921E-004  0.6306560E+03  0.7818608E-02  0.9843770E-01
         -2   -1    0    0    0  501 -0.00000000000E+00  0.00000000000E+00  0.94452608158E+02  0.94452608192E+02  0.25500000000E-02 0. -1.
          2   -1    0    0  501    0  0.00000000000E+00 -0.00000000000E+00 -0.10527155976E+04  0.10527155976E+04  0.25500000000E-02 0.  1.
    5000001    1    1    2    0    0 -0.20338686755E+03  0.19126462866E+03 -0.34602835678E+03  0.46239917794E+03  0.12700000000E+03 0.  0.
   -5000001    1    1    2    0    0  0.20338686755E+03 -0.19126462866E+03 -0.61223463265E+03  0.68476902784E+03  0.12700000000E+03 0.  0.
<mgrwt>
<rscale>  0 0.63065596E+03</rscale>
<asrwt>0</asrwt>
<pdfrwt beam="1">  1        2 0.15038794E+00 0.63065596E+03</pdfrwt>
<pdfrwt beam="2">  1       -2 0.13493230E-01 0.63065596E+03</pdfrwt>
<totfact> 0.10977521E+03</totfact>
</mgrwt>
</event>
<event>
 4    1  0.1399921E-004  0.5895828E+03  0.7818608E-02  0.9927257E-01
         -2   -1    0    0    0  501 -0.00000000000E+00  0.00000000000E+00  0.49934857405E+02  0.49934857471E+02  0.25500000000E-02 0. -1.
          2   -1    0    0  501    0  0.00000000000E+00 -0.00000000000E+00 -0.17403068001E+04  0.17403068001E+04  0.25500000000E-02 0.  1.
    5000001    1    1    2    0    0 -0.61102743448E+02  0.21224109658E+03 -0.39487710046E+03  0.46993271093E+03  0.12700000000E+03 0.  0.
   -5000001    1    1    2    0    0  0.61102743448E+02 -0.21224109658E+03 -0.12954948423E+04  0.13203089467E+04  0.12700000000E+03 0.  0.
<mgrwt>
<rscale>  0 0.58958281E+03</rscale>
<asrwt>0</asrwt>
<pdfrwt beam="1">  1        2 0.24861522E+00 0.58958281E+03</pdfrwt>
<pdfrwt beam="2">  1       -2 0.71335522E-02 0.58958281E+03</pdfrwt>
<totfact> 0.13176996E+03</totfact>
</mgrwt>
</event>
<event>
 4    1  0.1399921E-004  0.4284060E+03  0.7818608E-02  0.1034365E+00
         -2   -1    0    0    0  501 -0.00000000000E+00  0.00000000000E+00  0.11159223883E+03  0.11159223886E+03  0.25500000000E-02 0. -1.
          2   -1    0    0  501    0  0.00000000000E+00 -0.00000000000E+00 -0.41116594522E+03  0.41116594522E+03  0.25500000000E-02 0.  1.
    5000001    1    1    2    0    0 -0.28643873961E+02 -0.14119381121E+03 -0.26553461257E+03  0.32770992404E+03  0.12700000000E+03 0.  0.
   -5000001    1    1    2    0    0  0.28643873961E+02  0.14119381121E+03 -0.34039093814E+02  0.19504826004E+03  0.12700000000E+03 0.  0.
<mgrwt>
<rscale>  0 0.42840601E+03</rscale>
<asrwt>0</asrwt>
<pdfrwt beam="1">  1        2 0.58737991E-01 0.42840601E+03</pdfrwt>
<pdfrwt beam="2">  1       -2 0.15941749E-01 0.42840601E+03</pdfrwt>
<totfact> 0.26179064E+03</totfact>
</mgrwt>
</event>
<event>
 4    1  0.1399921E-004  0.3570663E+03  0.7818608E-02  0.1059752E+00
         -2   -1    0    0    0  501 -0.00000000000E+00  0.00000000000E+00  0.14787622400E+03  0.14787622403E+03  0.25500000000E-02 0. -1.
          2   -1    0    0  501    0  0.00000000000E+00 -0.00000000000E+00 -0.21554572427E+03  0.21554572429E+03  0.25500000000E-02 0.  1.
    5000001    1    1    2    0    0 -0.89016849254E+02  0.47778626351E+02  0.41909586906E+02  0.16760730909E+03  0.12700000000E+03 0.  0.
   -5000001    1    1    2    0    0  0.89016849254E+02 -0.47778626351E+02 -0.10957908717E+03  0.19581463922E+03  0.12700000000E+03 0.  0.
<mgrwt>
<rscale>  0 0.35706631E+03</rscale>
<asrwt>0</asrwt>
<pdfrwt beam="1">  1        2 0.30792246E-01 0.35706631E+03</pdfrwt>
<pdfrwt beam="2">  1       -2 0.21125175E-01 0.35706631E+03</pdfrwt>
<totfact> 0.32722151E+03</totfact>
</mgrwt>
</event>
<event>
 4    1  0.1399921E-004  0.4375697E+03  0.7818608E-02  0.1031495E+00
          2   -1    0    0  501    0  0.00000000000E+00  0.00000000000E+00  0.31364498670E+03  0.31364498671E+03  0.25500000000E-02 0.  1.
         -2   -1    0    0    0  501 -0.00000000000E+00 -0.00000000000E+00 -0.15261463692E+03  0.15261463694E+03  0.25500000000E-02 0. -1.
    5000001    1    1    2    0    0  0.11799201709E+03 -0.24586982671E+02 -0.59277967331E+02  0.18484997491E+03  0.12700000000E+03 0.  0.
   -5000001    1    1    2    0    0 -0.11799201709E+03  0.24586982671E+02  0.22030831712E+03  0.28140964874E+03  0.12700000000E+03 0.  0.
<mgrwt>
<rscale>  0 0.43756972E+03</rscale>
<asrwt>0</asrwt>
<pdfrwt beam="1">  1        2 0.44806426E-01 0.43756972E+03</pdfrwt>
<pdfrwt beam="2">  1       -2 0.21802091E-01 0.43756972E+03</pdfrwt>
<totfact> 0.20598805E+03</totfact>
</mgrwt>
</event>
<event>
 4    1  0.1399921E-004  0.5568984E+03  0.7818608E-02  0.9999097E-01
         -2   -1    0    0    0  501 -0.00000000000E+00  0.00000000000E+00  0.15030693766E+02  0.15030693982E+02  0.25500000000E-02 0.  1.
          2   -1    0    0  501    0  0.00000000000E+00 -0.00000000000E+00 -0.51583752040E+04  0.51583752040E+04  0.25500000000E-02 0. -1.
    5000001    1    1    2    0    0  0.20604714351E+03 -0.12765266090E+03 -0.30502782689E+04  0.30625279011E+04  0.12700000000E+03 0.  0.
   -5000001    1    1    2    0    0 -0.20604714351E+03  0.12765266090E+03 -0.20930662414E+04  0.21108779969E+04  0.12700000000E+03 0.  0.
<mgrwt>
<rscale>  0 0.55689841E+03</rscale>
<asrwt>0</asrwt>
<pdfrwt beam="1">  1        2 0.73690961E+00 0.55689841E+03</pdfrwt>
<pdfrwt beam="2">  1       -2 0.21472453E-02 0.55689841E+03</pdfrwt>
<totfact> 0.55273731E+01</totfact>
</mgrwt>
</event>
<event>
 4    1  0.1399921E-004  0.3555710E+03  0.7818608E-02  0.1060351E+00
         -2   -1    0    0    0  501 -0.00000000000E+00  0.00000000000E+00  0.60235947573E+02  0.60235947627E+02  0.25500000000E-02 0. -1.
          2   -1    0    0  501    0  0.00000000000E+00 -0.00000000000E+00 -0.52473126055E+03  0.52473126055E+03  0.25500000000E-02 0.  1.
    5000001    1    1    2    0    0 -0.61553212007E+02 -0.10221835668E+03 -0.17428576151E+03  0.24645875317E+03  0.12700000000E+03 0.  0.
   -5000001    1    1    2    0    0  0.61553212007E+02  0.10221835668E+03 -0.29020955147E+03  0.33850845501E+03  0.12700000000E+03 0.  0.
<mgrwt>
<rscale>  0 0.35557100E+03</rscale>
<asrwt>0</asrwt>
<pdfrwt beam="1">  1        2 0.74961606E-01 0.35557100E+03</pdfrwt>
<pdfrwt beam="2">  1       -2 0.86051357E-02 0.35557100E+03</pdfrwt>
<totfact> 0.54274441E+03</totfact>
</mgrwt>
</event>
<event>
 4    1  0.1399921E-004  0.4777863E+03  0.7818608E-02  0.1019745E+00
         -2   -1    0    0    0  501 -0.00000000000E+00  0.00000000000E+00  0.20055473936E+03  0.20055473937E+03  0.25500000000E-02 0. -1.
          2   -1    0    0  501    0  0.00000000000E+00 -0.00000000000E+00 -0.28456044701E+03  0.28456044702E+03  0.25500000000E-02 0.  1.
    5000001    1    1    2    0    0 -0.19915499479E+03  0.11074134026E+02 -0.76518381175E+02  0.24853452688E+03  0.12700000000E+03 0.  0.
   -5000001    1    1    2    0    0  0.19915499479E+03 -0.11074134026E+02 -0.74873264744E+01  0.23658065951E+03  0.12700000000E+03 0.  0.
<mgrwt>
<rscale>  0 0.47778634E+03</rscale>
<asrwt>0</asrwt>
<pdfrwt beam="1">  1        2 0.40651493E-01 0.47778634E+03</pdfrwt>
<pdfrwt beam="2">  1       -2 0.28650677E-01 0.47778634E+03</pdfrwt>
<totfact> 0.14078783E+03</totfact>
</mgrwt>
</event>
<event>
 4    1  0.1399921E-004  0.5122645E+03  0.7818608E-02  0.1010626E+00
          2   -1    0    0  501    0  0.00000000000E+00  0.00000000000E+00  0.48056994087E+03  0.48056994088E+03  0.25500000000E-02 0.  1.
         -2   -1    0    0    0  501 -0.00000000000E+00 -0.00000000000E+00 -0.13651234535E+03  0.13651234538E+03  0.25500000000E-02 0. -1.
    5000001    1    1    2    0    0  0.18311858789E+02  0.13630258649E+03 -0.38558743399E+02  0.19112691058E+03  0.12700000000E+03 0.  0.
   -5000001    1    1    2    0    0 -0.18311858789E+02 -0.13630258649E+03  0.38261633892E+03  0.42595537567E+03  0.12700000000E+03 0.  0.
<mgrwt>
<rscale>  0 0.51226450E+03</rscale>
<asrwt>0</asrwt>
<pdfrwt beam="1">  1        2 0.68652850E-01 0.51226450E+03</pdfrwt>
<pdfrwt beam="2">  1       -2 0.19501763E-01 0.51226450E+03</pdfrwt>
<totfact> 0.15629411E+03</totfact>
</mgrwt>
</event>
<event>
 4    1  0.1399921E-004  0.3649858E+03  0.7818608E-02  0.1056627E+00
          2   -1    0    0  501    0  0.00000000000E+00  0.00000000000E+00  0.15001040549E+04  0.15001040549E+04  0.25500000000E-02 0.  1.
         -2   -1    0    0    0  501 -0.00000000000E+00 -0.00000000000E+00 -0.22200900580E+02  0.22200900726E+02  0.25500000000E-02 0. -1.
    5000001    1    1    2    0    0  0.78231503135E+02  0.99805664272E+02  0.87686285981E+03  0.89504123570E+03  0.12700000000E+03 0.  0.
   -5000001    1    1    2    0    0 -0.78231503135E+02 -0.99805664272E+02  0.60104029452E+03  0.62726371993E+03  0.12700000000E+03 0.  0.
<mgrwt>
<rscale>  0 0.36498581E+03</rscale>
<asrwt>0</asrwt>
<pdfrwt beam="1">  1        2 0.21430060E+00 0.36498581E+03</pdfrwt>
<pdfrwt beam="2">  1       -2 0.31715569E-02 0.36498581E+03</pdfrwt>
<totfact> 0.61031822E+03</totfact>
</mgrwt>
</event>
<event>
 4    1  0.1399921E-004  0.4179482E+03  0.7818608E-02  0.1037736E+00
         -2   -1    0    0    0  501 -0.00000000000E+00  0.00000000000E+00  0.22745774105E+03  0.22745774106E+03  0.25500000000E-02 0. -1.
          2   -1    0    0  501    0  0.00000000000E+00 -0.00000000000E+00 -0.19199246811E+03  0.19199246813E+03  0.25500000000E-02 0.  1.
    5000001    1    1    2    0    0 -0.26071310416E+01 -0.16276549313E+03 -0.14659823543E+02  0.20698626358E+03  0.12700000000E+03 0.  0.
   -5000001    1    1    2    0    0  0.26071310416E+01  0.16276549313E+03  0.50125096475E+02  0.21246394561E+03  0.12700000000E+03 0.  0.
<mgrwt>
<rscale>  0 0.41794819E+03</rscale>
<asrwt>0</asrwt>
<pdfrwt beam="1">  1        2 0.27427495E-01 0.41794819E+03</pdfrwt>
<pdfrwt beam="2">  1       -2 0.32493963E-01 0.41794819E+03</pdfrwt>
<totfact> 0.17245439E+03</totfact>
</mgrwt>
</event>
<event>
 4    1  0.1399921E-004  0.4812312E+03  0.7818608E-02  0.1018797E+00
         -2   -1    0    0    0  501 -0.00000000000E+00  0.00000000000E+00  0.13209436572E+03  0.13209436575E+03  0.25500000000E-02 0. -1.
          2   -1    0    0  501    0  0.00000000000E+00 -0.00000000000E+00 -0.43829179346E+03  0.43829179346E+03  0.25500000000E-02 0.  1.
    5000001    1    1    2    0    0 -0.14984494312E+03 -0.43156766161E+02 -0.30967414680E+03  0.36924665285E+03  0.12700000000E+03 0.  0.
   -5000001    1    1    2    0    0  0.14984494312E+03  0.43156766161E+02  0.34767190699E+01  0.20113950636E+03  0.12700000000E+03 0.  0.
<mgrwt>
<rscale>  0 0.48123124E+03</rscale>
<asrwt>0</asrwt>
<pdfrwt beam="1">  1        2 0.62613113E-01 0.48123124E+03</pdfrwt>
<pdfrwt beam="2">  1       -2 0.18870624E-01 0.48123124E+03</pdfrwt>
<totfact> 0.18332038E+03</totfact>
</mgrwt>
</event>
<event>
 4    1  0.1399921E-004  0.7628147E+03  0.7818608E-02  0.9615458E-01
          2   -1    0    0  501    0  0.00000000000E+00  0.00000000000E+00  0.38639376170E+03  0.38639376171E+03  0.25500000000E-02 0.  1.
         -2   -1    0    0    0  501 -0.00000000000E+00 -0.00000000000E+00 -0.37648533255E+03  0.37648533256E+03  0.25500000000E-02 0. -1.
    5000001    1    1    2    0    0  0.98118423077E+02  0.34594945431E+03  0.10814229967E+02  0.38151565821E+03  0.12700000000E+03 0.  0.
   -5000001    1    1    2    0    0 -0.98118423077E+02 -0.34594945431E+03 -0.90580081182E+00  0.38136343606E+03  0.12700000000E+03 0.  0.
<mgrwt>
<rscale>  0 0.76281475E+03</rscale>
<asrwt>0</asrwt>
<pdfrwt beam="1">  1        2 0.55199109E-01 0.76281475E+03</pdfrwt>
<pdfrwt beam="2">  1       -2 0.53783618E-01 0.76281475E+03</pdfrwt>
<totfact> 0.29500961E+02</totfact>
</mgrwt>
</event>
<event>
 4    1  0.1399921E-004  0.4537158E+03  0.7818608E-02  0.1026620E+00
         -2   -1    0    0    0  501 -0.00000000000E+00  0.00000000000E+00  0.95385455593E+02  0.95385455627E+02  0.25500000000E-02 0. -1.
          2   -1    0    0  501    0  0.00000000000E+00 -0.00000000000E+00 -0.53954250043E+03  0.53954250043E+03  0.25500000000E-02 0.  1.
    5000001    1    1    2    0    0  0.83737564582E+02 -0.14901395217E+03 -0.11261777798E+03  0.24089188774E+03  0.12700000000E+03 0.  0.
   -5000001    1    1    2    0    0 -0.83737564582E+02  0.14901395217E+03 -0.33153926686E+03  0.39403606831E+03  0.12700000000E+03 0.  0.
<mgrwt>
<rscale>  0 0.45371580E+03</rscale>
<asrwt>0</asrwt>
<pdfrwt beam="1">  1        2 0.77077498E-01 0.45371580E+03</pdfrwt>
<pdfrwt beam="2">  1       -2 0.13626494E-01 0.45371580E+03</pdfrwt>
<totfact> 0.25117581E+03</totfact>
</mgrwt>
</event>
<event>
 4    1  0.1399921E-004  0.4848913E+03  0.7818608E-02  0.1017799E+00
          2   -1    0    0  501    0  0.00000000000E+00  0.00000000000E+00  0.36359697782E+04  0.36359697782E+04  0.25500000000E-02 0.  1.
         -2   -1    0    0    0  501 -0.00000000000E+00 -0.00000000000E+00 -0.16166223057E+02  0.16166223258E+02  0.25500000000E-02 0. -1.
    5000001    1    1    2    0    0  0.64861515712E+02  0.18412588326E+03  0.23174814058E+04  0.23291540145E+04  0.12700000000E+03 0.  0.
   -5000001    1    1    2    0    0 -0.64861515712E+02 -0.18412588326E+03  0.13023221494E+04  0.13229819870E+04  0.12700000000E+03 0.  0.
<mgrwt>
<rscale>  0 0.48489132E+03</rscale>
<asrwt>0</asrwt>
<pdfrwt beam="1">  1        2 0.51942403E+00 0.48489132E+03</pdfrwt>
<pdfrwt beam="2">  1       -2 0.23094614E-02 0.48489132E+03</pdfrwt>
<totfact> 0.73573986E+02</totfact>
</mgrwt>
</event>
<event>
 4    1  0.1399921E-004  0.3761431E+03  0.7818608E-02  0.1052369E+00
          2   -1    0    0  501    0  0.00000000000E+00  0.00000000000E+00  0.24814468140E+03  0.24814468142E+03  0.25500000000E-02 0.  1.
         -2   -1    0    0    0  501 -0.00000000000E+00 -0.00000000000E+00 -0.14254147497E+03  0.14254147499E+03  0.25500000000E-02 0. -1.
    5000001    1    1    2    0    0 -0.12356992590E+03  0.10190388115E+02  0.11740396088E+03  0.21280521757E+03  0.12700000000E+03 0.  0.
   -5000001    1    1    2    0    0  0.12356992590E+03 -0.10190388115E+02 -0.11800754447E+02  0.17788093884E+03  0.12700000000E+03 0.  0.
<mgrwt>
<rscale>  0 0.37614311E+03</rscale>
<asrwt>0</asrwt>
<pdfrwt beam="1">  1        2 0.35449240E-01 0.37614311E+03</pdfrwt>
<pdfrwt beam="2">  1       -2 0.20363068E-01 0.37614311E+03</pdfrwt>
<totfact> 0.29896834E+03</totfact>
</mgrwt>
</event>
<event>
 4    1  0.1399921E-004  0.4255903E+03  0.7818608E-02  0.1035262E+00
          2   -1    0    0  501    0  0.00000000000E+00  0.00000000000E+00  0.33415972937E+03  0.33415972938E+03  0.25500000000E-02 0.  1.
         -2   -1    0    0    0  501 -0.00000000000E+00 -0.00000000000E+00 -0.13550935667E+03  0.13550935670E+03  0.25500000000E-02 0. -1.
    5000001    1    1    2    0    0  0.11202596299E+03  0.12213181003E+03  0.14464924610E+03  0.25400472398E+03  0.12700000000E+03 0.  0.
   -5000001    1    1    2    0    0 -0.11202596299E+03 -0.12213181003E+03  0.54001126591E+02  0.21566436210E+03  0.12700000000E+03 0.  0.
<mgrwt>
<rscale>  0 0.42559027E+03</rscale>
<asrwt>0</asrwt>
<pdfrwt beam="1">  1        2 0.47737105E-01 0.42559027E+03</pdfrwt>
<pdfrwt beam="2">  1       -2 0.19358479E-01 0.42559027E+03</pdfrwt>
<totfact> 0.23616933E+03</totfact>
</mgrwt>
</event>
<event>
 4    1  0.1399921E-004  0.5143498E+03  0.7818608E-02  0.1010100E+00
         -2   -1    0    0    0  501 -0.00000000000E+00  0.00000000000E+00  0.73649498096E+02  0.73649498140E+02  0.25500000000E-02 0. -1.
          2   -1    0    0  501    0  0.00000000000E+00 -0.00000000000E+00 -0.89802276164E+03  0.89802276165E+03  0.25500000000E-02 0.  1.
    5000001    1    1    2    0    0 -0.76126022731E+02  0.18733271491E+03 -0.59260777359E+03  0.63890663695E+03  0.12700000000E+03 0.  0.
   -5000001    1    1    2    0    0  0.76126022731E+02 -0.18733271491E+03 -0.23176548995E+03  0.33276562284E+03  0.12700000000E+03 0.  0.
<mgrwt>
<rscale>  0 0.51434979E+03</rscale>
<asrwt>0</asrwt>
<pdfrwt beam="1">  1        2 0.12828896E+00 0.51434979E+03</pdfrwt>
<pdfrwt beam="2">  1       -2 0.10521357E-01 0.51434979E+03</pdfrwt>
<totfact> 0.20622522E+03</totfact>
</mgrwt>
</event>
<event>
 4    1  0.1399921E-004  0.4871035E+03  0.7818608E-02  0.1017201E+00
         -2   -1    0    0    0  501 -0.00000000000E+00  0.00000000000E+00  0.38647696723E+02  0.38647696807E+02  0.25500000000E-02 0. -1.
          2   -1    0    0  501    0  0.00000000000E+00 -0.00000000000E+00 -0.15348249582E+04  0.15348249582E+04  0.25500000000E-02 0.  1.
    5000001    1    1    2    0    0 -0.62659642200E+02  0.15815828034E+03 -0.36250585737E+03  0.42009495240E+03  0.12700000000E+03 0.  0.
   -5000001    1    1    2    0    0  0.62659642200E+02 -0.15815828034E+03 -0.11336714041E+04  0.11533777026E+04  0.12700000000E+03 0.  0.
<mgrwt>
<rscale>  0 0.48710348E+03</rscale>
<asrwt>0</asrwt>
<pdfrwt beam="1">  1        2 0.21926067E+00 0.48710348E+03</pdfrwt>
<pdfrwt beam="2">  1       -2 0.55211005E-02 0.48710348E+03</pdfrwt>
<totfact> 0.25137450E+03</totfact>
</mgrwt>
</event>
<event>
 4    1  0.1399921E-004  0.6702043E+03  0.7818608E-02  0.9769589E-01
          2   -1    0    0  501    0  0.00000000000E+00  0.00000000000E+00  0.77878054956E+03  0.77878054957E+03  0.25500000000E-02 0.  1.
         -2   -1    0    0    0  501 -0.00000000000E+00 -0.00000000000E+00 -0.14419136983E+03  0.14419136986E+03  0.25500000000E-02 0. -1.
    5000001    1    1    2    0    0 -0.27920335105E+03  0.30649766107E+02  0.49827599378E+03  0.58591969192E+03  0.12700000000E+03 0.  0.
   -5000001    1    1    2    0    0  0.27920335105E+03 -0.30649766107E+02  0.13631318594E+03  0.33705222750E+03  0.12700000000E+03 0.  0.
<mgrwt>
<rscale>  0 0.67020425E+03</rscale>
<asrwt>0</asrwt>
<pdfrwt beam="1">  1        2 0.11125436E+00 0.67020425E+03</pdfrwt>
<pdfrwt beam="2">  1       -2 0.20598767E-01 0.67020425E+03</pdfrwt>
<totfact> 0.79980724E+02</totfact>
</mgrwt>
</event>
<event>
 4    1  0.1399921E-004  0.2733717E+03  0.7818608E-02  0.1099365E+00
          2   -1    0    0  501    0  0.00000000000E+00  0.00000000000E+00  0.89295913909E+03  0.89295913910E+03  0.25500000000E-02 0.  1.
         -2   -1    0    0    0  501 -0.00000000000E+00 -0.00000000000E+00 -0.20922601036E+02  0.20922601191E+02  0.25500000000E-02 0. -1.
    5000001    1    1    2    0    0 -0.31679165048E+02  0.22461841551E+02  0.32790314532E+03  0.35377616728E+03  0.12700000000E+03 0.  0.
   -5000001    1    1    2    0    0  0.31679165048E+02 -0.22461841551E+02  0.54413339274E+03  0.56010557301E+03  0.12700000000E+03 0.  0.
<mgrwt>
<rscale>  0 0.27337175E+03</rscale>
<asrwt>0</asrwt>
<pdfrwt beam="1">  1        2 0.12756557E+00 0.27337175E+03</pdfrwt>
<pdfrwt beam="2">  1       -2 0.29889436E-02 0.27337175E+03</pdfrwt>
<totfact> 0.14371229E+04</totfact>
</mgrwt>
</event>
<event>
 4    1  0.1399921E-004  0.3902581E+03  0.7818608E-02  0.1047206E+00
          2   -1    0    0  501    0  0.00000000000E+00  0.00000000000E+00  0.29086536285E+03  0.29086536286E+03  0.25500000000E-02 0.  1.
         -2   -1    0    0    0  501 -0.00000000000E+00 -0.00000000000E+00 -0.13090369005E+03  0.13090369007E+03  0.25500000000E-02 0. -1.
    5000001    1    1    2    0    0 -0.13104016645E+03  0.56988177987E+02  0.12221527197E+03  0.22690251289E+03  0.12700000000E+03 0.  0.
   -5000001    1    1    2    0    0  0.13104016645E+03 -0.56988177987E+02  0.37746400824E+02  0.19486654004E+03  0.12700000000E+03 0.  0.
<mgrwt>
<rscale>  0 0.39025812E+03</rscale>
<asrwt>0</asrwt>
<pdfrwt beam="1">  1        2 0.41552194E-01 0.39025812E+03</pdfrwt>
<pdfrwt beam="2">  1       -2 0.18700527E-01 0.39025812E+03</pdfrwt>
<totfact> 0.29114868E+03</totfact>
</mgrwt>
</event>
<event>
 4    1  0.1399921E-004  0.4549484E+03  0.7818608E-02  0.1026257E+00
         -2   -1    0    0    0  501 -0.00000000000E+00  0.00000000000E+00  0.90964104822E+02  0.90964104857E+02  0.25500000000E-02 0. -1.
          2   -1    0    0  501    0  0.00000000000E+00 -0.00000000000E+00 -0.56884542119E+03  0.56884542119E+03  0.25500000000E-02 0.  1.
    5000001    1    1    2    0    0  0.14073240859E+03  0.85439274410E+02 -0.10515114379E+03  0.23300481428E+03  0.12700000000E+03 0.  0.
   -5000001    1    1    2    0    0 -0.14073240859E+03 -0.85439274410E+02 -0.37273017258E+03  0.42680471177E+03  0.12700000000E+03 0.  0.
<mgrwt>
<rscale>  0 0.45494841E+03</rscale>
<asrwt>0</asrwt>
<pdfrwt beam="1">  1        2 0.81263629E-01 0.45494841E+03</pdfrwt>
<pdfrwt beam="2">  1       -2 0.12994872E-01 0.45494841E+03</pdfrwt>
<totfact> 0.25568742E+03</totfact>
</mgrwt>
</event>
<event>
 4    1  0.1399921E-004  0.4191669E+03  0.7818608E-02  0.1037338E+00
         -2   -1    0    0    0  501 -0.00000000000E+00  0.00000000000E+00  0.22489301304E+02  0.22489301449E+02  0.25500000000E-02 0. -1.
          2   -1    0    0  501    0  0.00000000000E+00 -0.00000000000E+00 -0.19531607335E+04  0.19531607335E+04  0.25500000000E-02 0.  1.
    5000001    1    1    2    0    0  0.16647839207E+03 -0.88667191977E+01 -0.95781417434E+03  0.98047471477E+03  0.12700000000E+03 0.  0.
   -5000001    1    1    2    0    0 -0.16647839207E+03  0.88667191977E+01 -0.97285725785E+03  0.99517532018E+03  0.12700000000E+03 0.  0.
<mgrwt>
<rscale>  0 0.41916689E+03</rscale>
<asrwt>0</asrwt>
<pdfrwt beam="1">  1        2 0.27902285E+00 0.41916689E+03</pdfrwt>
<pdfrwt beam="2">  1       -2 0.32127586E-02 0.41916689E+03</pdfrwt>
<totfact> 0.35504517E+03</totfact>
</mgrwt>
</event>
<event>
 4    1  0.1399921E-004  0.4954162E+03  0.7818608E-02  0.1014982E+00
         -2   -1    0    0    0  501 -0.00000000000E+00  0.00000000000E+00  0.19508056109E+03  0.19508056110E+03  0.25500000000E-02 0. -1.
          2   -1    0    0  501    0  0.00000000000E+00 -0.00000000000E+00 -0.31453309073E+03  0.31453309074E+03  0.25500000000E-02 0.  1.
    5000001    1    1    2    0    0  0.13639863772E+03 -0.13007245382E+03  0.41620590219E+02  0.23105130414E+03  0.12700000000E+03 0.  0.
   -5000001    1    1    2    0    0 -0.13639863772E+03  0.13007245382E+03 -0.16107311986E+03  0.27856234770E+03  0.12700000000E+03 0.  0.
<mgrwt>
<rscale>  0 0.49541616E+03</rscale>
<asrwt>0</asrwt>
<pdfrwt beam="1">  1        2 0.44933299E-01 0.49541616E+03</pdfrwt>
<pdfrwt beam="2">  1       -2 0.27868651E-01 0.49541616E+03</pdfrwt>
<totfact> 0.13268774E+03</totfact>
</mgrwt>
</event>
<event>
 4    1  0.1399921E-004  0.3045575E+03  0.7818608E-02  0.1082984E+00
          2   -1    0    0  501    0  0.00000000000E+00  0.00000000000E+00  0.45651460556E+03  0.45651460557E+03  0.25500000000E-02 0.  1.
         -2   -1    0    0    0  501 -0.00000000000E+00 -0.00000000000E+00 -0.50795361676E+02  0.50795361740E+02  0.25500000000E-02 0. -1.
    5000001    1    1    2    0    0  0.28843158615E+02 -0.67340846321E+02  0.13431928225E+03  0.19884010402E+03  0.12700000000E+03 0.  0.
   -5000001    1    1    2    0    0 -0.28843158615E+02  0.67340846321E+02  0.27139996164E+03  0.30846986329E+03  0.12700000000E+03 0.  0.
<mgrwt>
<rscale>  0 0.30455754E+03</rscale>
<asrwt>0</asrwt>
<pdfrwt beam="1">  1        2 0.65216375E-01 0.30455754E+03</pdfrwt>
<pdfrwt beam="2">  1       -2 0.72564799E-02 0.30455754E+03</pdfrwt>
<totfact> 0.82386863E+03</totfact>
</mgrwt>
</event>
<event>
 4    1  0.1399921E-004  0.5710604E+03  0.7818608E-02  0.9967335E-01
          2   -1    0    0  501    0  0.00000000000E+00  0.00000000000E+00  0.16148214982E+03  0.16148214984E+03  0.25500000000E-02 0.  1.
         -2   -1    0    0    0  501 -0.00000000000E+00 -0.00000000000E+00 -0.50487005294E+03  0.50487005295E+03  0.25500000000E-02 0. -1.
    5000001    1    1    2    0    0 -0.19090258333E+03 -0.14052138920E+03 -0.28366736314E+03  0.39087879202E+03  0.12700000000E+03 0.  0.
   -5000001    1    1    2    0    0  0.19090258333E+03  0.14052138920E+03 -0.59720539986E+02  0.27547341077E+03  0.12700000000E+03 0.  0.
<mgrwt>
<rscale>  0 0.57106042E+03</rscale>
<asrwt>0</asrwt>
<pdfrwt beam="1">  1        2 0.23068879E-01 0.57106042E+03</pdfrwt>
<pdfrwt beam="2">  1       -2 0.72124292E-01 0.57106042E+03</pdfrwt>
<totfact> 0.42260420E+02</totfact>
</mgrwt>
</event>
<event>
 4    1  0.1399921E-004  0.4260365E+03  0.7818608E-02  0.1035119E+00
         -2   -1    0    0    0  501 -0.00000000000E+00  0.00000000000E+00  0.51205611520E+02  0.51205611584E+02  0.25500000000E-02 0. -1.
          2   -1    0    0  501    0  0.00000000000E+00 -0.00000000000E+00 -0.88616787390E+03  0.88616787391E+03  0.25500000000E-02 0.  1.
    5000001    1    1    2    0    0  0.10375302894E+03  0.68952557913E+02 -0.15968324131E+03  0.23905414410E+03  0.12700000000E+03 0.  0.
   -5000001    1    1    2    0    0 -0.10375302894E+03 -0.68952557913E+02 -0.67527902108E+03  0.69831934139E+03  0.12700000000E+03 0.  0.
<mgrwt>
<rscale>  0 0.42603647E+03</rscale>
<asrwt>0</asrwt>
<pdfrwt beam="1">  1        2 0.12659540E+00 0.42603647E+03</pdfrwt>
<pdfrwt beam="2">  1       -2 0.73150879E-02 0.42603647E+03</pdfrwt>
<totfact> 0.37450882E+03</totfact>
</mgrwt>
</event>
<event>
 4    1  0.1399921E-004  0.3270531E+03  0.7818608E-02  0.1072448E+00
         -2   -1    0    0    0  501 -0.00000000000E+00  0.00000000000E+00  0.29252533360E+02  0.29252533472E+02  0.25500000000E-02 0.  1.
          2   -1    0    0  501    0  0.00000000000E+00 -0.00000000000E+00 -0.91414076068E+03  0.91414076068E+03  0.25500000000E-02 0. -1.
    5000001    1    1    2    0    0 -0.58498267230E+02 -0.73221451089E+02 -0.31909881974E+03  0.35600068108E+03  0.12700000000E+03 0.  0.
   -5000001    1    1    2    0    0  0.58498267230E+02  0.73221451089E+02 -0.56578940757E+03  0.58739261307E+03  0.12700000000E+03 0.  0.
<mgrwt>
<rscale>  0 0.32705310E+03</rscale>
<asrwt>0</asrwt>
<pdfrwt beam="1">  1        2 0.13059152E+00 0.32705310E+03</pdfrwt>
<pdfrwt beam="2">  1       -2 0.41789339E-02 0.32705310E+03</pdfrwt>
<totfact> 0.84798342E+03</totfact>
</mgrwt>
</event>
<event>
 4    1  0.1399921E-004  0.5056117E+03  0.7818608E-02  0.1012324E+00
          2   -1    0    0  501    0  0.00000000000E+00  0.00000000000E+00  0.12186066307E+04  0.12186066307E+04  0.25500000000E-02 0.  1.
         -2   -1    0    0    0  501 -0.00000000000E+00 -0.00000000000E+00 -0.52445804452E+02  0.52445804514E+02  0.25500000000E-02 0. -1.
    5000001    1    1    2    0    0  0.64201275626E+02  0.19216960067E+03  0.37683649506E+03  0.44630225546E+03  0.12700000000E+03 0.  0.
   -5000001    1    1    2    0    0 -0.64201275626E+02 -0.19216960067E+03  0.78932433123E+03  0.82475017980E+03  0.12700000000E+03 0.  0.
<mgrwt>
<rscale>  0 0.50561173E+03</rscale>
<asrwt>0</asrwt>
<pdfrwt beam="1">  1        2 0.17408665E+00 0.50561173E+03</pdfrwt>
<pdfrwt beam="2">  1       -2 0.74922583E-02 0.50561173E+03</pdfrwt>
<totfact> 0.22941502E+03</totfact>
</mgrwt>
</event>
<event>
 4    1  0.1399921E-004  0.2722172E+03  0.7818608E-02  0.1100017E+00
          2   -1    0    0  501    0  0.00000000000E+00  0.00000000000E+00  0.11007047114E+04  0.11007047114E+04  0.25500000000E-02 0.  1.
         -2   -1    0    0    0  501 -0.00000000000E+00 -0.00000000000E+00 -0.16830624975E+02  0.16830625169E+02  0.25500000000E-02 0. -1.
    5000001    1    1    2    0    0  0.45270791969E+02  0.83055075311E+00  0.46552824207E+03  0.48466037447E+03  0.12700000000E+03 0.  0.
   -5000001    1    1    2    0    0 -0.45270791969E+02 -0.83055075311E+00  0.61834584436E+03  0.63287496211E+03  0.12700000000E+03 0.  0.
<mgrwt>
<rscale>  0 0.27221718E+03</rscale>
<asrwt>0</asrwt>
<pdfrwt beam="1">  1        2 0.15724359E+00 0.27221718E+03</pdfrwt>
<pdfrwt beam="2">  1       -2 0.24043742E-02 0.27221718E+03</pdfrwt>
<totfact> 0.14943915E+04</totfact>
</mgrwt>
</event>
<event>
 4    1  0.1399921E-004  0.4248143E+03  0.7818608E-02  0.1035511E+00
          2   -1    0    0  501    0  0.00000000000E+00  0.00000000000E+00  0.18569394029E+04  0.18569394029E+04  0.25500000000E-02 0.  1.
         -2   -1    0    0    0  501 -0.00000000000E+00 -0.00000000000E+00 -0.24296319742E+02  0.24296319876E+02  0.25500000000E-02 0. -1.
    5000001    1    1    2    0    0  0.84687523771E+02 -0.82560539092E+02  0.14586764495E+04  0.14689636495E+04  0.12700000000E+03 0.  0.
   -5000001    1    1    2    0    0 -0.84687523771E+02  0.82560539092E+02  0.37396663369E+03  0.41227207329E+03  0.12700000000E+03 0.  0.
<mgrwt>
<rscale>  0 0.42481428E+03</rscale>
<asrwt>0</asrwt>
<pdfrwt beam="1">  1        2 0.26527705E+00 0.42481428E+03</pdfrwt>
<pdfrwt beam="2">  1       -2 0.34709029E-02 0.42481428E+03</pdfrwt>
<totfact> 0.35256210E+03</totfact>
</mgrwt>
</event>
<event>
 4    1  0.1399921E-004  0.6031429E+03  0.7818608E-02  0.9898907E-01
         -2   -1    0    0    0  501 -0.00000000000E+00  0.00000000000E+00  0.32726916572E+02  0.32726916671E+02  0.25500000000E-02 0. -1.
          2   -1    0    0  501    0  0.00000000000E+00 -0.00000000000E+00 -0.27789160276E+04  0.27789160276E+04  0.25500000000E-02 0.  1.
    5000001    1    1    2    0    0  0.23824874196E+03 -0.12492944882E+03 -0.16036707987E+04  0.16310300000E+04  0.12700000000E+03 0.  0.
   -5000001    1    1    2    0    0 -0.23824874196E+03  0.12492944882E+03 -0.11425183123E+04  0.11806129443E+04  0.12700000000E+03 0.  0.
<mgrwt>
<rscale>  0 0.60314295E+03</rscale>
<asrwt>0</asrwt>
<pdfrwt beam="1">  1        2 0.39698785E+00 0.60314295E+03</pdfrwt>
<pdfrwt beam="2">  1       -2 0.46752756E-02 0.60314295E+03</pdfrwt>
<totfact> 0.75433020E+02</totfact>
</mgrwt>
</event>
<event>
 4    1  0.1399921E-004  0.4641248E+03  0.7818608E-02  0.1023592E+00
          2   -1    0    0  501    0  0.00000000000E+00  0.00000000000E+00  0.31839656355E+03  0.31839656356E+03  0.25500000000E-02 0.  1.
         -2   -1    0    0    0  501 -0.00000000000E+00 -0.00000000000E+00 -0.16913803214E+03  0.16913803216E+03  0.25500000000E-02 0. -1.
    5000001    1    1    2    0    0  0.19328843820E+03  0.17415411114E+02  0.66475581091E+02  0.24127105041E+03  0.12700000000E+03 0.  0.
   -5000001    1    1    2    0    0 -0.19328843820E+03 -0.17415411114E+02  0.82782950314E+02  0.24626354531E+03  0.12700000000E+03 0.  0.
<mgrwt>
<rscale>  0 0.46412485E+03</rscale>
<asrwt>0</asrwt>
<pdfrwt beam="1">  1        2 0.45485223E-01 0.46412485E+03</pdfrwt>
<pdfrwt beam="2">  1       -2 0.24162576E-01 0.46412485E+03</pdfrwt>
<totfact> 0.16913226E+03</totfact>
</mgrwt>
</event>
<event>
 4    1  0.1399921E-004  0.7538202E+03  0.7818608E-02  0.9629376E-01
          2   -1    0    0  501    0  0.00000000000E+00  0.00000000000E+00  0.28832573274E+04  0.28832573274E+04  0.25500000000E-02 0.  1.
         -2   -1    0    0    0  501 -0.00000000000E+00 -0.00000000000E+00 -0.49271088602E+02  0.49271088668E+02  0.25500000000E-02 0. -1.
    5000001    1    1    2    0    0 -0.24039189323E+03 -0.19465881552E+02  0.40430126666E+03  0.48760198635E+03  0.12700000000E+03 0.  0.
   -5000001    1    1    2    0    0  0.24039189323E+03  0.19465881552E+02  0.24296849722E+04  0.24449264298E+04  0.12700000000E+03 0.  0.
<mgrwt>
<rscale>  0 0.75382021E+03</rscale>
<asrwt>0</asrwt>
<pdfrwt beam="1">  1        2 0.41189406E+00 0.75382021E+03</pdfrwt>
<pdfrwt beam="2">  1       -2 0.70387242E-02 0.75382021E+03</pdfrwt>
<totfact> 0.34492158E+02</totfact>
</mgrwt>
</event>
<event>
 4    1  0.1399921E-004  0.6593313E+03  0.7818608E-02  0.9789425E-01
          2   -1    0    0  501    0  0.00000000000E+00  0.00000000000E+00  0.10657807958E+04  0.10657807958E+04  0.25500000000E-02 0.  1.
         -2   -1    0    0    0  501 -0.00000000000E+00 -0.00000000000E+00 -0.10197167714E+03  0.10197167717E+03  0.25500000000E-02 0. -1.
    5000001    1    1    2    0    0  0.23152286782E+03  0.19719895399E+03  0.49564520892E+03  0.59521713593E+03  0.12700000000E+03 0.  0.
   -5000001    1    1    2    0    0 -0.23152286782E+03 -0.19719895399E+03  0.46816390972E+03  0.57253533702E+03  0.12700000000E+03 0.  0.
<mgrwt>
<rscale>  0 0.65933134E+03</rscale>
<asrwt>0</asrwt>
<pdfrwt beam="1">  1        2 0.15225441E+00 0.65933134E+03</pdfrwt>
<pdfrwt beam="2">  1       -2 0.14567382E-01 0.65933134E+03</pdfrwt>
<totfact> 0.94777251E+02</totfact>
</mgrwt>
</event>
<event>
 4    1  0.1399921E-004  0.3587015E+03  0.7818608E-02  0.1059099E+00
         -2   -1    0    0    0  501 -0.00000000000E+00  0.00000000000E+00  0.26839892865E+02  0.26839892986E+02  0.25500000000E-02 0. -1.
          2   -1    0    0  501    0  0.00000000000E+00 -0.00000000000E+00 -0.11984655333E+04  0.11984655333E+04  0.25500000000E-02 0.  1.
    5000001    1    1    2    0    0  0.10575807747E+03  0.54425232556E+02 -0.73434997760E+03  0.75468256008E+03  0.12700000000E+03 0.  0.
   -5000001    1    1    2    0    0 -0.10575807747E+03 -0.54425232556E+02 -0.43727566282E+03  0.47062286619E+03  0.12700000000E+03 0.  0.
<mgrwt>
<rscale>  0 0.35870147E+03</rscale>
<asrwt>0</asrwt>
<pdfrwt beam="1">  1        2 0.17120933E+00 0.35870147E+03</pdfrwt>
<pdfrwt beam="2">  1       -2 0.38342712E-02 0.35870147E+03</pdfrwt>
<totfact> 0.66119726E+03</totfact>
</mgrwt>
</event>
<event>
 4    1  0.1399921E-004  0.5410097E+03  0.7818608E-02  0.1003597E+00
          2   -1    0    0  501    0  0.00000000000E+00  0.00000000000E+00  0.26047929897E+04  0.26047929897E+04  0.25500000000E-02 0.  1.
         -2   -1    0    0    0  501 -0.00000000000E+00 -0.00000000000E+00 -0.28091626711E+02  0.28091626827E+02  0.25500000000E-02 0. -1.
    5000001    1    1    2    0    0 -0.21664696473E+03 -0.12745440605E+02  0.80301692071E+03  0.84146510832E+03  0.12700000000E+03 0.  0.
   -5000001    1    1    2    0    0  0.21664696473E+03  0.12745440605E+02  0.17736844423E+04  0.17914195082E+04  0.12700000000E+03 0.  0.
<mgrwt>
<rscale>  0 0.54100969E+03</rscale>
<asrwt>0</asrwt>
<pdfrwt beam="1">  1        2 0.37211330E+00 0.54100969E+03</pdfrwt>
<pdfrwt beam="2">  1       -2 0.40130894E-02 0.54100969E+03</pdfrwt>
<totfact> 0.11824882E+03</totfact>
</mgrwt>
</event>
<event>
 4    1  0.1399921E-004  0.3788444E+03  0.7818608E-02  0.1051362E+00
         -2   -1    0    0    0  501 -0.00000000000E+00  0.00000000000E+00  0.51224903842E+02  0.51224903905E+02  0.25500000000E-02 0. -1.
          2   -1    0    0  501    0  0.00000000000E+00 -0.00000000000E+00 -0.70045549492E+03  0.70045549493E+03  0.25500000000E-02 0.  1.
    5000001    1    1    2    0    0 -0.17236850130E+02  0.13210709322E+03 -0.23582923294E+03  0.29915517744E+03  0.12700000000E+03 0.  0.
   -5000001    1    1    2    0    0  0.17236850130E+02 -0.13210709322E+03 -0.41340135814E+03  0.45252522139E+03  0.12700000000E+03 0.  0.
<mgrwt>
<rscale>  0 0.37884438E+03</rscale>
<asrwt>0</asrwt>
<pdfrwt beam="1">  1        2 0.10006507E+00 0.37884438E+03</pdfrwt>
<pdfrwt beam="2">  1       -2 0.73178438E-02 0.37884438E+03</pdfrwt>
<totfact> 0.50169259E+03</totfact>
</mgrwt>
</event>
<event>
 4    1  0.1399921E-004  0.7097582E+03  0.7818608E-02  0.9700688E-01
         -2   -1    0    0    0  501 -0.00000000000E+00  0.00000000000E+00  0.50656035275E+03  0.50656035276E+03  0.25500000000E-02 0. -1.
          2   -1    0    0  501    0  0.00000000000E+00 -0.00000000000E+00 -0.24861631481E+03  0.24861631482E+03  0.25500000000E-02 0.  1.
    5000001    1    1    2    0    0  0.22777932386E+03 -0.23825833677E+03  0.16520577596E+03  0.38996461869E+03  0.12700000000E+03 0.  0.
   -5000001    1    1    2    0    0 -0.22777932386E+03  0.23825833677E+03  0.92738261984E+02  0.36521204889E+03  0.12700000000E+03 0.  0.
<mgrwt>
<rscale>  0 0.70975818E+03</rscale>
<asrwt>0</asrwt>
<pdfrwt beam="1">  1        2 0.35516616E-01 0.70975818E+03</pdfrwt>
<pdfrwt beam="2">  1       -2 0.72365765E-01 0.70975818E+03</pdfrwt>
<totfact> 0.25660618E+02</totfact>
</mgrwt>
</event>
<event>
 4    1  0.1399921E-004  0.3309198E+03  0.7818608E-02  0.1070731E+00
         -2   -1    0    0    0  501 -0.00000000000E+00  0.00000000000E+00  0.34552672618E+02  0.34552672712E+02  0.25500000000E-02 0. -1.
          2   -1    0    0  501    0  0.00000000000E+00 -0.00000000000E+00 -0.79232612051E+03  0.79232612052E+03  0.25500000000E-02 0.  1.
    5000001    1    1    2    0    0  0.27728980800E+02  0.97690301467E+02 -0.30245284433E+03  0.34339338144E+03  0.12700000000E+03 0.  0.
   -5000001    1    1    2    0    0 -0.27728980800E+02 -0.97690301467E+02 -0.45532060357E+03  0.48348541179E+03  0.12700000000E+03 0.  0.
<mgrwt>
<rscale>  0 0.33091984E+03</rscale>
<asrwt>0</asrwt>
<pdfrwt beam="1">  1        2 0.11318943E+00 0.33091984E+03</pdfrwt>
<pdfrwt beam="2">  1       -2 0.49360966E-02 0.33091984E+03</pdfrwt>
<totfact> 0.79053162E+03</totfact>
</mgrwt>
</event>
<event>
 4    1  0.1399921E-004  0.4537684E+03  0.7818608E-02  0.1026604E+00
         -2   -1    0    0    0  501 -0.00000000000E+00  0.00000000000E+00  0.11079773925E+03  0.11079773928E+03  0.25500000000E-02 0. -1.
          2   -1    0    0  501    0  0.00000000000E+00 -0.00000000000E+00 -0.46459823310E+03  0.46459823311E+03  0.25500000000E-02 0.  1.
    5000001    1    1    2    0    0  0.59384757453E+02  0.12150912714E+03 -0.11294085130E+02  0.18586977634E+03  0.12700000000E+03 0.  0.
   -5000001    1    1    2    0    0 -0.59384757453E+02 -0.12150912714E+03 -0.34250640872E+03  0.38952619605E+03  0.12700000000E+03 0.  0.
<mgrwt>
<rscale>  0 0.45376837E+03</rscale>
<asrwt>0</asrwt>
<pdfrwt beam="1">  1        2 0.66371175E-01 0.45376837E+03</pdfrwt>
<pdfrwt beam="2">  1       -2 0.15828249E-01 0.45376837E+03</pdfrwt>
<totfact> 0.23155829E+03</totfact>
</mgrwt>
</event>
<event>
 4    1  0.1399921E-004  0.3932020E+03  0.7818608E-02  0.1046159E+00
          2   -1    0    0  501    0  0.00000000000E+00  0.00000000000E+00  0.84315494684E+03  0.84315494684E+03  0.25500000000E-02 0.  1.
         -2   -1    0    0    0  501 -0.00000000000E+00 -0.00000000000E+00 -0.45842052858E+02  0.45842052929E+02  0.25500000000E-02 0. -1.
    5000001    1    1    2    0    0  0.14069835133E+03  0.30485336957E+02  0.49451430096E+03  0.53047033441E+03  0.12700000000E+03 0.  0.
   -5000001    1    1    2    0    0 -0.14069835133E+03 -0.30485336957E+02  0.30279859302E+03  0.35852666536E+03  0.12700000000E+03 0.  0.
<mgrwt>
<rscale>  0 0.39320200E+03</rscale>
<asrwt>0</asrwt>
<pdfrwt beam="1">  1        2 0.12045071E+00 0.39320200E+03</pdfrwt>
<pdfrwt beam="2">  1       -2 0.65488644E-02 0.39320200E+03</pdfrwt>
<totfact> 0.47445428E+03</totfact>
</mgrwt>
</event>
<event>
 4    1  0.1399921E-004  0.4450071E+03  0.7818608E-02  0.1029222E+00
          2   -1    0    0  501    0  0.00000000000E+00  0.00000000000E+00  0.13498079112E+03  0.13498079115E+03  0.25500000000E-02 0.  1.
         -2   -1    0    0    0  501 -0.00000000000E+00 -0.00000000000E+00 -0.36677688287E+03  0.36677688288E+03  0.25500000000E-02 0. -1.
    5000001    1    1    2    0    0  0.82353196514E+01 -0.17423230157E+03 -0.17718118682E+03  0.27918969960E+03  0.12700000000E+03 0.  0.
   -5000001    1    1    2    0    0 -0.82353196514E+01  0.17423230157E+03 -0.54614904925E+02  0.22256797443E+03  0.12700000000E+03 0.  0.
<mgrwt>
<rscale>  0 0.44500712E+03</rscale>
<asrwt>0</asrwt>
<pdfrwt beam="1">  1        2 0.19282970E-01 0.44500712E+03</pdfrwt>
<pdfrwt beam="2">  1       -2 0.52396697E-01 0.44500712E+03</pdfrwt>
<totfact> 0.10207465E+03</totfact>
</mgrwt>
</event>
<event>
 4    1  0.1399921E-004  0.3759185E+03  0.7818608E-02  0.1052453E+00
          2   -1    0    0  501    0  0.00000000000E+00  0.00000000000E+00  0.92584202199E+03  0.92584202199E+03  0.25500000000E-02 0.  1.
         -2   -1    0    0    0  501 -0.00000000000E+00 -0.00000000000E+00 -0.38158428671E+02  0.38158428756E+02  0.25500000000E-02 0. -1.
    5000001    1    1    2    0    0 -0.56816986356E+02  0.93491951258E+02  0.66190158504E+03  0.68279691210E+03  0.12700000000E+03 0.  0.
   -5000001    1    1    2    0    0  0.56816986356E+02 -0.93491951258E+02  0.22578200827E+03  0.28120353865E+03  0.12700000000E+03 0.  0.
<mgrwt>
<rscale>  0 0.37591848E+03</rscale>
<asrwt>0</asrwt>
<pdfrwt beam="1">  1        2 0.13226315E+00 0.37591848E+03</pdfrwt>
<pdfrwt beam="2">  1       -2 0.54512038E-02 0.37591848E+03</pdfrwt>
<totfact> 0.55743373E+03</totfact>
</mgrwt>
</event>
<event>
 4    1  0.1399921E-004  0.2905145E+03  0.7818608E-02  0.1090081E+00
         -2   -1    0    0    0  501 -0.00000000000E+00  0.00000000000E+00  0.15662194929E+02  0.15662195137E+02  0.25500000000E-02 0. -1.
          2   -1    0    0  501    0  0.00000000000E+00 -0.00000000000E+00 -0.13471717805E+04  0.13471717805E+04  0.25500000000E-02 0.  1.
    5000001    1    1    2    0    0 -0.65769218353E+02  0.10422540437E+02 -0.77440707774E+03  0.78757192781E+03  0.12700000000E+03 0.  0.
   -5000001    1    1    2    0    0  0.65769218353E+02 -0.10422540437E+02 -0.55710250781E+03  0.57526204780E+03  0.12700000000E+03 0.  0.
<mgrwt>
<rscale>  0 0.29051449E+03</rscale>
<asrwt>0</asrwt>
<pdfrwt beam="1">  1        2 0.19245304E+00 0.29051449E+03</pdfrwt>
<pdfrwt beam="2">  1       -2 0.22374573E-02 0.29051449E+03</pdfrwt>
<totfact> 0.12258330E+04</totfact>
</mgrwt>
</event>
<event>
 4    1  0.1399921E-004  0.3477933E+03  0.7818608E-02  0.1063524E+00
          2   -1    0    0  501    0  0.00000000000E+00  0.00000000000E+00  0.38961378251E+03  0.38961378252E+03  0.25500000000E-02 0.  1.
         -2   -1    0    0    0  501 -0.00000000000E+00 -0.00000000000E+00 -0.77615417236E+02  0.77615417278E+02  0.25500000000E-02 0. -1.
    5000001    1    1    2    0    0  0.82274596426E+02 -0.74535169322E+02  0.99218251327E+02  0.19569839570E+03  0.12700000000E+03 0.  0.
   -5000001    1    1    2    0    0 -0.82274596426E+02  0.74535169322E+02  0.21278011395E+03  0.27153080410E+03  0.12700000000E+03 0.  0.
<mgrwt>
<rscale>  0 0.34779325E+03</rscale>
<asrwt>0</asrwt>
<pdfrwt beam="1">  1        2 0.55659112E-01 0.34779325E+03</pdfrwt>
<pdfrwt beam="2">  1       -2 0.11087917E-01 0.34779325E+03</pdfrwt>
<totfact> 0.50273014E+03</totfact>
</mgrwt>
</event>
<event>
 4    1  0.1399921E-004  0.3456112E+03  0.7818608E-02  0.1064431E+00
          2   -1    0    0  501    0  0.00000000000E+00  0.00000000000E+00  0.39836941283E+04  0.39836941283E+04  0.25500000000E-02 0.  1.
         -2   -1    0    0    0  501 -0.00000000000E+00 -0.00000000000E+00 -0.74960011861E+01  0.74960016199E+01  0.25500000000E-02 0. -1.
    5000001    1    1    2    0    0  0.22082846054E+02 -0.10778166528E+03  0.24540856880E+04  0.24598313161E+04  0.12700000000E+03 0.  0.
   -5000001    1    1    2    0    0 -0.22082846054E+02  0.10778166528E+03  0.15221124392E+04  0.15313588139E+04  0.12700000000E+03 0.  0.
<mgrwt>
<rscale>  0 0.34561121E+03</rscale>
<asrwt>0</asrwt>
<pdfrwt beam="1">  1        2 0.56909870E+00 0.34561121E+03</pdfrwt>
<pdfrwt beam="2">  1       -2 0.10708582E-02 0.34561121E+03</pdfrwt>
<totfact> 0.14151026E+03</totfact>
</mgrwt>
</event>
<event>
 4    1  0.1399921E-004  0.4555644E+03  0.7818608E-02  0.1026076E+00
          2   -1    0    0  501    0  0.00000000000E+00  0.00000000000E+00  0.10760172098E+04  0.10760172098E+04  0.25500000000E-02 0.  1.
         -2   -1    0    0    0  501 -0.00000000000E+00 -0.00000000000E+00 -0.48219242293E+02  0.48219242360E+02  0.25500000000E-02 0. -1.
    5000001    1    1    2    0    0 -0.97439472731E+02  0.14970912221E+03  0.36080733682E+03  0.42215898240E+03  0.12700000000E+03 0.  0.
   -5000001    1    1    2    0    0  0.97439472731E+02 -0.14970912221E+03  0.66699063066E+03  0.70207746973E+03  0.12700000000E+03 0.  0.
<mgrwt>
<rscale>  0 0.45556442E+03</rscale>
<asrwt>0</asrwt>
<pdfrwt beam="1">  1        2 0.15371673E+00 0.45556442E+03</pdfrwt>
<pdfrwt beam="2">  1       -2 0.68884638E-02 0.45556442E+03</pdfrwt>
<totfact> 0.31543278E+03</totfact>
</mgrwt>
</event>
<event>
 4    1  0.1399921E-004  0.1019034E+04  0.7818608E-02  0.9287911E-01
         -2   -1    0    0    0  501 -0.00000000000E+00  0.00000000000E+00  0.15895119945E+03  0.15895119947E+03  0.25500000000E-02 0. -1.
          2   -1    0    0  501    0  0.00000000000E+00 -0.00000000000E+00 -0.16332549041E+04  0.16332549041E+04  0.25500000000E-02 0.  1.
    5000001    1    1    2    0    0  0.45717532248E+03  0.18503443747E+03 -0.76392890683E+03  0.91813037921E+03  0.12700000000E+03 0.  0.
   -5000001    1    1    2    0    0 -0.45717532248E+03 -0.18503443747E+03 -0.71037479777E+03  0.87407572432E+03  0.12700000000E+03 0.  0.
<mgrwt>
<rscale>  0 0.10190345E+04</rscale>
<asrwt>0</asrwt>
<pdfrwt beam="1">  1        2 0.23332212E+00 0.10190345E+04</pdfrwt>
<pdfrwt beam="2">  1       -2 0.22707315E-01 0.10190345E+04</pdfrwt>
<totfact> 0.21118142E+02</totfact>
</mgrwt>
</event>
<event>
 4    1  0.1399921E-004  0.3646669E+03  0.7818608E-02  0.1056751E+00
         -2   -1    0    0    0  501 -0.00000000000E+00  0.00000000000E+00  0.57858662443E+01  0.57858668063E+01  0.25500000000E-02 0. -1.
          2   -1    0    0  501    0  0.00000000000E+00 -0.00000000000E+00 -0.57459828077E+04  0.57459828077E+04  0.25500000000E-02 0.  1.
    5000001    1    1    2    0    0 -0.88322727678E+02 -0.94397331940E+02 -0.25527859158E+04  0.25592101696E+04  0.12700000000E+03 0.  0.
   -5000001    1    1    2    0    0  0.88322727678E+02  0.94397331940E+02 -0.31874110257E+04  0.31925585049E+04  0.12700000000E+03 0.  0.
<mgrwt>
<rscale>  0 0.36466691E+03</rscale>
<asrwt>0</asrwt>
<pdfrwt beam="1">  1        2 0.82085103E+00 0.36466691E+03</pdfrwt>
<pdfrwt beam="2">  1       -2 0.82655604E-03 0.36466691E+03</pdfrwt>
<totfact> 0.48227292E+01</totfact>
</mgrwt>
</event>
<event>
 4    1  0.1399921E-004  0.5491800E+03  0.7818608E-02  0.1001684E+00
         -2   -1    0    0    0  501 -0.00000000000E+00  0.00000000000E+00  0.57473649520E+02  0.57473649577E+02  0.25500000000E-02 0. -1.
          2   -1    0    0  501    0  0.00000000000E+00 -0.00000000000E+00 -0.13118997395E+04  0.13118997395E+04  0.25500000000E-02 0.  1.
    5000001    1    1    2    0    0 -0.13246804015E+03 -0.13362415526E+03 -0.10124344087E+04  0.10375719871E+04  0.12700000000E+03 0.  0.
   -5000001    1    1    2    0    0  0.13246804015E+03  0.13362415526E+03 -0.24199168123E+03  0.33180140192E+03  0.12700000000E+03 0.  0.
<mgrwt>
<rscale>  0 0.54917999E+03</rscale>
<asrwt>0</asrwt>
<pdfrwt beam="1">  1        2 0.18741423E+00 0.54917999E+03</pdfrwt>
<pdfrwt beam="2">  1       -2 0.82105222E-02 0.54917999E+03</pdfrwt>
<totfact> 0.17628048E+03</totfact>
</mgrwt>
</event>
<event>
 4    1  0.1399921E-004  0.2887260E+03  0.7818608E-02  0.1091016E+00
          2   -1    0    0  501    0  0.00000000000E+00  0.00000000000E+00  0.88404627980E+02  0.88404628017E+02  0.25500000000E-02 0.  1.
         -2   -1    0    0    0  501 -0.00000000000E+00 -0.00000000000E+00 -0.23574195548E+03  0.23574195549E+03  0.25500000000E-02 0. -1.
    5000001    1    1    2    0    0  0.29689613715E+00  0.61807845448E+02 -0.40149942992E+02  0.14683771937E+03  0.12700000000E+03 0.  0.
   -5000001    1    1    2    0    0 -0.29689613715E+00 -0.61807845448E+02 -0.10718738450E+03  0.17730886414E+03  0.12700000000E+03 0.  0.
<mgrwt>
<rscale>  0 0.28872603E+03</rscale>
<asrwt>0</asrwt>
<pdfrwt beam="1">  1        2 0.12629233E-01 0.28872603E+03</pdfrwt>
<pdfrwt beam="2">  1       -2 0.33677422E-01 0.28872603E+03</pdfrwt>
<totfact> 0.39504016E+03</totfact>
</mgrwt>
</event>
<event>
 4    1  0.1399921E-004  0.4686152E+03  0.7818608E-02  0.1022312E+00
          2   -1    0    0  501    0  0.00000000000E+00  0.00000000000E+00  0.11387129891E+04  0.11387129891E+04  0.25500000000E-02 0.  1.
         -2   -1    0    0    0  501 -0.00000000000E+00 -0.00000000000E+00 -0.48212362649E+02  0.48212362717E+02  0.25500000000E-02 0. -1.
    5000001    1    1    2    0    0 -0.97730300536E+02 -0.17546733061E+02  0.11457922891E+03  0.19777891491E+03  0.12700000000E+03 0.  0.
   -5000001    1    1    2    0    0  0.97730300536E+02  0.17546733061E+02  0.97592139752E+03  0.98914643689E+03  0.12700000000E+03 0.  0.
<mgrwt>
<rscale>  0 0.46861517E+03</rscale>
<asrwt>0</asrwt>
<pdfrwt beam="1">  1        2 0.16267328E+00 0.46861517E+03</pdfrwt>
<pdfrwt beam="2">  1       -2 0.68874806E-02 0.46861517E+03</pdfrwt>
<totfact> 0.29041926E+03</totfact>
</mgrwt>
</event>
<event>
 4    1  0.1399921E-004  0.3592804E+03  0.7818608E-02  0.1058869E+00
         -2   -1    0    0    0  501 -0.00000000000E+00  0.00000000000E+00  0.30823750792E+02  0.30823750897E+02  0.25500000000E-02 0. -1.
          2   -1    0    0  501    0  0.00000000000E+00 -0.00000000000E+00 -0.10469393031E+04  0.10469393031E+04  0.25500000000E-02 0.  1.
    5000001    1    1    2    0    0  0.44243072840E+02 -0.10777369112E+03 -0.66010203087E+03  0.68222892723E+03  0.12700000000E+03 0.  0.
   -5000001    1    1    2    0    0 -0.44243072840E+02  0.10777369112E+03 -0.35601352144E+03  0.39553412677E+03  0.12700000000E+03 0.  0.
<mgrwt>
<rscale>  0 0.35928037E+03</rscale>
<asrwt>0</asrwt>
<pdfrwt beam="1">  1        2 0.14956274E+00 0.35928037E+03</pdfrwt>
<pdfrwt beam="2">  1       -2 0.44033936E-02 0.35928037E+03</pdfrwt>
<totfact> 0.65280350E+03</totfact>
</mgrwt>
</event>
<event>
 4    1  0.1399921E-004  0.3147376E+03  0.7818608E-02  0.1078097E+00
          2   -1    0    0  501    0  0.00000000000E+00  0.00000000000E+00  0.26915767788E+03  0.26915767789E+03  0.25500000000E-02 0.  1.
         -2   -1    0    0    0  501 -0.00000000000E+00 -0.00000000000E+00 -0.92009062454E+02  0.92009062489E+02  0.25500000000E-02 0. -1.
    5000001    1    1    2    0    0  0.55659477576E+02 -0.32186643054E+02  0.11579535348E+02  0.14281821688E+03  0.12700000000E+03 0.  0.
   -5000001    1    1    2    0    0 -0.55659477576E+02  0.32186643054E+02  0.16556908007E+03  0.21834852349E+03  0.12700000000E+03 0.  0.
<mgrwt>
<rscale>  0 0.31473764E+03</rscale>
<asrwt>0</asrwt>
<pdfrwt beam="1">  1        2 0.38451098E-01 0.31473764E+03</pdfrwt>
<pdfrwt beam="2">  1       -2 0.13144152E-01 0.31473764E+03</pdfrwt>
<totfact> 0.56788282E+03</totfact>
</mgrwt>
</event>
<event>
 4    1  0.1399921E-004  0.3988321E+03  0.7818608E-02  0.1044185E+00
          2   -1    0    0  501    0  0.00000000000E+00  0.00000000000E+00  0.32316800301E+04  0.32316800301E+04  0.25500000000E-02 0.  1.
         -2   -1    0    0    0  501 -0.00000000000E+00 -0.00000000000E+00 -0.12305289822E+02  0.12305290087E+02  0.25500000000E-02 0. -1.
    5000001    1    1    2    0    0 -0.30680454519E+02  0.12055564858E+03  0.23445539475E+04  0.23512841529E+04  0.12700000000E+03 0.  0.
   -5000001    1    1    2    0    0  0.30680454519E+02 -0.12055564858E+03  0.87482079272E+03  0.89270116728E+03  0.12700000000E+03 0.  0.
<mgrwt>
<rscale>  0 0.39883209E+03</rscale>
<asrwt>0</asrwt>
<pdfrwt beam="1">  1        2 0.46166861E+00 0.39883209E+03</pdfrwt>
<pdfrwt beam="2">  1       -2 0.17578984E-02 0.39883209E+03</pdfrwt>
<totfact> 0.19178261E+03</totfact>
</mgrwt>
</event>
<event>
 4    1  0.1399921E-004  0.4331631E+03  0.7818608E-02  0.1032865E+00
          2   -1    0    0  501    0  0.00000000000E+00  0.00000000000E+00  0.34853693390E+03  0.34853693391E+03  0.25500000000E-02 0.  1.
         -2   -1    0    0    0  501 -0.00000000000E+00 -0.00000000000E+00 -0.13458422514E+03  0.13458422517E+03  0.25500000000E-02 0. -1.
    5000001    1    1    2    0    0 -0.29876140454E+02  0.17044734180E+03  0.13918019609E+03  0.25582221772E+03  0.12700000000E+03 0.  0.
   -5000001    1    1    2    0    0  0.29876140454E+02 -0.17044734180E+03  0.74772512667E+02  0.22729894136E+03  0.12700000000E+03 0.  0.
<mgrwt>
<rscale>  0 0.43316312E+03</rscale>
<asrwt>0</asrwt>
<pdfrwt beam="1">  1        2 0.49790990E-01 0.43316312E+03</pdfrwt>
<pdfrwt beam="2">  1       -2 0.19226318E-01 0.43316312E+03</pdfrwt>
<totfact> 0.22826436E+03</totfact>
</mgrwt>
</event>
<event>
 4    1  0.1399921E-004  0.5774264E+03  0.7818608E-02  0.9953378E-01
          2   -1    0    0  501    0  0.00000000000E+00  0.00000000000E+00  0.98876915674E+03  0.98876915675E+03  0.25500000000E-02 0.  1.
         -2   -1    0    0    0  501 -0.00000000000E+00 -0.00000000000E+00 -0.84302104794E+02  0.84302104833E+02  0.25500000000E-02 0. -1.
    5000001    1    1    2    0    0 -0.11297742917E+03  0.22028709254E+03  0.59541259196E+03  0.65721796788E+03  0.12700000000E+03 0.  0.
   -5000001    1    1    2    0    0  0.11297742917E+03 -0.22028709254E+03  0.30905445999E+03  0.41585329370E+03  0.12700000000E+03 0.  0.
<mgrwt>
<rscale>  0 0.57742643E+03</rscale>
<asrwt>0</asrwt>
<pdfrwt beam="1">  1        2 0.14125273E+00 0.57742643E+03</pdfrwt>
<pdfrwt beam="2">  1       -2 0.12043158E-01 0.57742643E+03</pdfrwt>
<totfact> 0.14499556E+03</totfact>
</mgrwt>
</event>
<event>
 4    1  0.1399921E-004  0.3053255E+03  0.7818608E-02  0.1082608E+00
         -2   -1    0    0    0  501 -0.00000000000E+00  0.00000000000E+00  0.40994518774E+02  0.40994518853E+02  0.25500000000E-02 0. -1.
          2   -1    0    0  501    0  0.00000000000E+00 -0.00000000000E+00 -0.56851310118E+03  0.56851310119E+03  0.25500000000E-02 0.  1.
    5000001    1    1    2    0    0  0.68126745394E+02 -0.48952262651E+02 -0.24019472368E+03  0.28435907360E+03  0.12700000000E+03 0.  0.
   -5000001    1    1    2    0    0 -0.68126745394E+02  0.48952262651E+02 -0.28732385872E+03  0.32514854643E+03  0.12700000000E+03 0.  0.
<mgrwt>
<rscale>  0 0.30532554E+03</rscale>
<asrwt>0</asrwt>
<pdfrwt beam="1">  1        2 0.81216153E-01 0.30532554E+03</pdfrwt>
<pdfrwt beam="2">  1       -2 0.58563602E-02 0.30532554E+03</pdfrwt>
<totfact> 0.89881009E+03</totfact>
</mgrwt>
</event>
<event>
 4    1  0.1399921E-004  0.2723664E+03  0.7818608E-02  0.1099933E+00
         -2   -1    0    0    0  501 -0.00000000000E+00  0.00000000000E+00  0.10568731235E+02  0.10568731542E+02  0.25500000000E-02 0. -1.
          2   -1    0    0  501    0  0.00000000000E+00 -0.00000000000E+00 -0.17547859829E+04  0.17547859829E+04  0.25500000000E-02 0.  1.
    5000001    1    1    2    0    0  0.11959777310E+02  0.43240964687E+02 -0.74182404392E+03  0.75395273687E+03  0.12700000000E+03 0.  0.
   -5000001    1    1    2    0    0 -0.11959777310E+02 -0.43240964687E+02 -0.10023932077E+04  0.10114019776E+04  0.12700000000E+03 0.  0.
<mgrwt>
<rscale>  0 0.27236638E+03</rscale>
<asrwt>0</asrwt>
<pdfrwt beam="1">  1        2 0.25068353E+00 0.27236638E+03</pdfrwt>
<pdfrwt beam="2">  1       -2 0.15098199E-02 0.27236638E+03</pdfrwt>
<totfact> 0.13602601E+04</totfact>
</mgrwt>
</event>
<event>
 4    1  0.1399921E-004  0.3732960E+03  0.7818608E-02  0.1053440E+00
         -2   -1    0    0    0  501 -0.00000000000E+00  0.00000000000E+00  0.15920195740E+04  0.15920195740E+04  0.25500000000E-02 0.  1.
          2   -1    0    0  501    0  0.00000000000E+00 -0.00000000000E+00 -0.21882566723E+02  0.21882566872E+02  0.25500000000E-02 0. -1.
    5000001    1    1    2    0    0  0.12443440869E+03 -0.64568119441E+01  0.10289802897E+04  0.10442485572E+04  0.12700000000E+03 0.  0.
   -5000001    1    1    2    0    0 -0.12443440869E+03  0.64568119441E+01  0.54115671751E+03  0.56965358367E+03  0.12700000000E+03 0.  0.
<mgrwt>
<rscale>  0 0.37329599E+03</rscale>
<asrwt>0</asrwt>
<pdfrwt beam="1">  1        2 0.31260812E-02 0.37329599E+03</pdfrwt>
<pdfrwt beam="2">  1       -2 0.22743135E+00 0.37329599E+03</pdfrwt>
<totfact> 0.28936252E+02</totfact>
</mgrwt>
</event>
<event>
 4    1  0.1399921E-004  0.3176171E+03  0.7818608E-02  0.1076751E+00
          2   -1    0    0  501    0  0.00000000000E+00  0.00000000000E+00  0.30783094569E+02  0.30783094675E+02  0.25500000000E-02 0.  1.
         -2   -1    0    0    0  501 -0.00000000000E+00 -0.00000000000E+00 -0.81928580428E+03  0.81928580428E+03  0.25500000000E-02 0. -1.
    5000001    1    1    2    0    0  0.47252055320E+02  0.21022466637E+01 -0.61582677219E+03  0.63056228044E+03  0.12700000000E+03 0.  0.
   -5000001    1    1    2    0    0 -0.47252055320E+02 -0.21022466637E+01 -0.17267593752E+03  0.21950661852E+03  0.12700000000E+03 0.  0.
<mgrwt>
<rscale>  0 0.31761708E+03</rscale>
<asrwt>0</asrwt>
<pdfrwt beam="1">  1        2 0.43975854E-02 0.31761708E+03</pdfrwt>
<pdfrwt beam="2">  1       -2 0.11704082E+00 0.31761708E+03</pdfrwt>
<totfact> 0.11061658E+03</totfact>
</mgrwt>
</event>
<event>
 4    1  0.1399921E-004  0.4351736E+03  0.7818608E-02  0.1032238E+00
         -2   -1    0    0    0  501 -0.00000000000E+00  0.00000000000E+00  0.32017663661E+03  0.32017663662E+03  0.25500000000E-02 0. -1.
          2   -1    0    0  501    0  0.00000000000E+00 -0.00000000000E+00 -0.14786844842E+03  0.14786844845E+03  0.25500000000E-02 0.  1.
    5000001    1    1    2    0    0 -0.15861269464E+03 -0.67616346106E+02  0.12760155161E+03  0.24928119290E+03  0.12700000000E+03 0.  0.
   -5000001    1    1    2    0    0  0.15861269464E+03  0.67616346106E+02  0.44706636577E+02  0.21876389217E+03  0.12700000000E+03 0.  0.
<mgrwt>
<rscale>  0 0.43517363E+03</rscale>
<asrwt>0</asrwt>
<pdfrwt beam="1">  1        2 0.21124064E-01 0.43517363E+03</pdfrwt>
<pdfrwt beam="2">  1       -2 0.45739519E-01 0.43517363E+03</pdfrwt>
<totfact> 0.12058564E+03</totfact>
</mgrwt>
</event>
<event>
 4    1  0.1399921E-004  0.3844905E+03  0.7818608E-02  0.1049286E+00
         -2   -1    0    0    0  501 -0.00000000000E+00  0.00000000000E+00  0.44807750353E+02  0.44807750425E+02  0.25500000000E-02 0. -1.
          2   -1    0    0  501    0  0.00000000000E+00 -0.00000000000E+00 -0.82481799068E+03  0.82481799068E+03  0.25500000000E-02 0.  1.
    5000001    1    1    2    0    0  0.12317348114E+03 -0.33043885741E+02 -0.54283113755E+03  0.57189006700E+03  0.12700000000E+03 0.  0.
   -5000001    1    1    2    0    0 -0.12317348114E+03  0.33043885741E+02 -0.23717910278E+03  0.29773567411E+03  0.12700000000E+03 0.  0.
<mgrwt>
<rscale>  0 0.38449051E+03</rscale>
<asrwt>0</asrwt>
<pdfrwt beam="1">  1        2 0.11783113E+00 0.38449051E+03</pdfrwt>
<pdfrwt beam="2">  1       -2 0.64011077E-02 0.38449051E+03</pdfrwt>
<totfact> 0.50539611E+03</totfact>
</mgrwt>
</event>
<event>
 4    1  0.1399921E-004  0.5053329E+03  0.7818608E-02  0.1012396E+00
         -2   -1    0    0    0  501 -0.00000000000E+00  0.00000000000E+00  0.22110730870E+03  0.22110730871E+03  0.25500000000E-02 0. -1.
          2   -1    0    0  501    0  0.00000000000E+00 -0.00000000000E+00 -0.28873004653E+03  0.28873004654E+03  0.25500000000E-02 0.  1.
    5000001    1    1    2    0    0  0.25660712555E+02 -0.21488529611E+03 -0.39304640749E+01  0.25095539684E+03  0.12700000000E+03 0.  0.
   -5000001    1    1    2    0    0 -0.25660712555E+02  0.21488529611E+03 -0.63692273756E+02  0.25888195841E+03  0.12700000000E+03 0.  0.
<mgrwt>
<rscale>  0 0.50533285E+03</rscale>
<asrwt>0</asrwt>
<pdfrwt beam="1">  1        2 0.41247149E-01 0.50533285E+03</pdfrwt>
<pdfrwt beam="2">  1       -2 0.31586758E-01 0.50533285E+03</pdfrwt>
<totfact> 0.11580470E+03</totfact>
</mgrwt>
</event>
<event>
 4    1  0.1399921E-004  0.5798705E+03  0.7818608E-02  0.9948071E-01
          2   -1    0    0  501    0  0.00000000000E+00  0.00000000000E+00  0.10474875921E+04  0.10474875921E+04  0.25500000000E-02 0.  1.
         -2   -1    0    0    0  501 -0.00000000000E+00 -0.00000000000E+00 -0.80251497971E+02  0.80251498012E+02  0.25500000000E-02 0. -1.
    5000001    1    1    2    0    0  0.14299638851E+03  0.59165576210E+02  0.89149531715E+03  0.91369657602E+03  0.12700000000E+03 0.  0.
   -5000001    1    1    2    0    0 -0.14299638851E+03 -0.59165576210E+02  0.75740776951E+02  0.21404251407E+03  0.12700000000E+03 0.  0.
<mgrwt>
<rscale>  0 0.57987050E+03</rscale>
<asrwt>0</asrwt>
<pdfrwt beam="1">  1        2 0.14964108E+00 0.57987050E+03</pdfrwt>
<pdfrwt beam="2">  1       -2 0.11464500E-01 0.57987050E+03</pdfrwt>
<totfact> 0.14488683E+03</totfact>
</mgrwt>
</event>
<event>
 4    1  0.1399921E-004  0.6627583E+03  0.7818608E-02  0.9783129E-01
          2   -1    0    0  501    0  0.00000000000E+00  0.00000000000E+00  0.17503514135E+04  0.17503514135E+04  0.25500000000E-02 0.  1.
         -2   -1    0    0    0  501 -0.00000000000E+00 -0.00000000000E+00 -0.62737196150E+02  0.62737196202E+02  0.25500000000E-02 0. -1.
    5000001    1    1    2    0    0 -0.23065049060E+03 -0.81735329697E+02  0.13467751238E+04  0.13747045308E+04  0.12700000000E+03 0.  0.
   -5000001    1    1    2    0    0  0.23065049060E+03  0.81735329697E+02  0.34083909352E+03  0.43838407887E+03  0.12700000000E+03 0.  0.
<mgrwt>
<rscale>  0 0.66275830E+03</rscale>
<asrwt>0</asrwt>
<pdfrwt beam="1">  1        2 0.25005019E+00 0.66275830E+03</pdfrwt>
<pdfrwt beam="2">  1       -2 0.89624570E-02 0.66275830E+03</pdfrwt>
<totfact> 0.90174213E+02</totfact>
</mgrwt>
</event>
<event>
 4    1  0.1399921E-004  0.6724777E+03  0.7818608E-02  0.9765492E-01
         -2   -1    0    0    0  501 -0.00000000000E+00  0.00000000000E+00  0.17872495211E+04  0.17872495211E+04  0.25500000000E-02 0. -1.
          2   -1    0    0  501    0  0.00000000000E+00 -0.00000000000E+00 -0.63257286272E+02  0.63257286324E+02  0.25500000000E-02 0.  1.
    5000001    1    1    2    0    0  0.11173395086E+03 -0.23241498689E+03  0.13419922809E+04  0.13724334169E+04  0.12700000000E+03 0.  0.
   -5000001    1    1    2    0    0 -0.11173395086E+03  0.23241498689E+03  0.38199995396E+03  0.47807339053E+03  0.12700000000E+03 0.  0.
<mgrwt>
<rscale>  0 0.67247767E+03</rscale>
<asrwt>0</asrwt>
<pdfrwt beam="1">  1        2 0.90367557E-02 0.67247767E+03</pdfrwt>
<pdfrwt beam="2">  1       -2 0.25532135E+00 0.67247767E+03</pdfrwt>
<totfact> 0.46715469E+01</totfact>
</mgrwt>
</event>
<event>
 4    1  0.1399921E-004  0.5770768E+03  0.7818608E-02  0.9954140E-01
          2   -1    0    0  501    0  0.00000000000E+00  0.00000000000E+00  0.24520463526E+03  0.24520463528E+03  0.25500000000E-02 0.  1.
         -2   -1    0    0    0  501 -0.00000000000E+00 -0.00000000000E+00 -0.33953037208E+03  0.33953037209E+03  0.25500000000E-02 0. -1.
    5000001    1    1    2    0    0 -0.91303689761E+02 -0.20518883905E+03 -0.17805373522E+03  0.31348198682E+03  0.12700000000E+03 0.  0.
   -5000001    1    1    2    0    0  0.91303689761E+02  0.20518883905E+03  0.83727998406E+02  0.27125302054E+03  0.12700000000E+03 0.  0.
<mgrwt>
<rscale>  0 0.57707684E+03</rscale>
<asrwt>0</asrwt>
<pdfrwt beam="1">  1        2 0.35029234E-01 0.57707684E+03</pdfrwt>
<pdfrwt beam="2">  1       -2 0.48504339E-01 0.57707684E+03</pdfrwt>
<totfact> 0.60569063E+02</totfact>
</mgrwt>
</event>
<event>
 4    1  0.1399921E-004  0.5280884E+03  0.7818608E-02  0.1006697E+00
         -2   -1    0    0    0  501 -0.00000000000E+00  0.00000000000E+00  0.15139411875E+04  0.15139411875E+04  0.25500000000E-02 0. -1.
          2   -1    0    0  501    0  0.00000000000E+00 -0.00000000000E+00 -0.46051555696E+02  0.46051555767E+02  0.25500000000E-02 0.  1.
    5000001    1    1    2    0    0 -0.21817740821E+03  0.70732855502E+02  0.82669539921E+03  0.86727089273E+03  0.12700000000E+03 0.  0.
   -5000001    1    1    2    0    0  0.21817740821E+03 -0.70732855502E+02  0.64119423258E+03  0.69272185052E+03  0.12700000000E+03 0.  0.
<mgrwt>
<rscale>  0 0.52808843E+03</rscale>
<asrwt>0</asrwt>
<pdfrwt beam="1">  1        2 0.65787935E-02 0.52808843E+03</pdfrwt>
<pdfrwt beam="2">  1       -2 0.21627732E+00 0.52808843E+03</pdfrwt>
<totfact> 0.12346066E+02</totfact>
</mgrwt>
</event>
<event>
 4    1  0.1399921E-004  0.3389990E+03  0.7818608E-02  0.1067223E+00
          2   -1    0    0  501    0  0.00000000000E+00  0.00000000000E+00  0.91253500676E+03  0.91253500676E+03  0.25500000000E-02 0.  1.
         -2   -1    0    0    0  501 -0.00000000000E+00 -0.00000000000E+00 -0.31483816868E+02  0.31483816971E+02  0.25500000000E-02 0. -1.
    5000001    1    1    2    0    0 -0.62479909829E+02  0.80373197855E+02  0.57224908879E+03  0.59494672844E+03  0.12700000000E+03 0.  0.
   -5000001    1    1    2    0    0  0.62479909829E+02 -0.80373197855E+02  0.30880210111E+03  0.34907209529E+03  0.12700000000E+03 0.  0.
<mgrwt>
<rscale>  0 0.33899903E+03</rscale>
<asrwt>0</asrwt>
<pdfrwt beam="1">  1        2 0.13036214E+00 0.33899903E+03</pdfrwt>
<pdfrwt beam="2">  1       -2 0.44976883E-02 0.33899903E+03</pdfrwt>
<totfact> 0.76093608E+03</totfact>
</mgrwt>
</event>
<event>
 4    1  0.1399921E-004  0.3304470E+03  0.7818608E-02  0.1070939E+00
          2   -1    0    0  501    0  0.00000000000E+00  0.00000000000E+00  0.97552726396E+03  0.97552726396E+03  0.25500000000E-02 0.  1.
         -2   -1    0    0    0  501 -0.00000000000E+00 -0.00000000000E+00 -0.27983644916E+02  0.27983645032E+02  0.25500000000E-02 0. -1.
    5000001    1    1    2    0    0  0.11562999042E+02 -0.94237822964E+02  0.33278516053E+03  0.36863183977E+03  0.12700000000E+03 0.  0.
   -5000001    1    1    2    0    0 -0.11562999042E+02  0.94237822964E+02  0.61475845851E+03  0.63487906922E+03  0.12700000000E+03 0.  0.
<mgrwt>
<rscale>  0 0.33044702E+03</rscale>
<asrwt>0</asrwt>
<pdfrwt beam="1">  1        2 0.13936106E+00 0.33044702E+03</pdfrwt>
<pdfrwt beam="2">  1       -2 0.39976630E-02 0.33044702E+03</pdfrwt>
<totfact> 0.83177230E+03</totfact>
</mgrwt>
</event>
<event>
 4    1  0.1399921E-004  0.3257966E+03  0.7818608E-02  0.1073012E+00
          2   -1    0    0  501    0  0.00000000000E+00  0.00000000000E+00  0.10083245428E+04  0.10083245428E+04  0.25500000000E-02 0.  1.
         -2   -1    0    0    0  501 -0.00000000000E+00 -0.00000000000E+00 -0.26316781988E+02  0.26316782112E+02  0.25500000000E-02 0. -1.
    5000001    1    1    2    0    0 -0.85074895484E+02  0.50912243358E+02  0.41471612651E+03  0.44491376688E+03  0.12700000000E+03 0.  0.
   -5000001    1    1    2    0    0  0.85074895484E+02 -0.50912243358E+02  0.56729163427E+03  0.58972755801E+03  0.12700000000E+03 0.  0.
<mgrwt>
<rscale>  0 0.32579661E+03</rscale>
<asrwt>0</asrwt>
<pdfrwt beam="1">  1        2 0.14404635E+00 0.32579661E+03</pdfrwt>
<pdfrwt beam="2">  1       -2 0.37595406E-02 0.32579661E+03</pdfrwt>
<totfact> 0.87201848E+03</totfact>
</mgrwt>
</event>
<event>
 4    1  0.1399921E-004  0.6355545E+03  0.7818608E-02  0.9834269E-01
          2   -1    0    0  501    0  0.00000000000E+00  0.00000000000E+00  0.42827366883E+03  0.42827366884E+03  0.25500000000E-02 0.  1.
         -2   -1    0    0    0  501 -0.00000000000E+00 -0.00000000000E+00 -0.23578934700E+03  0.23578934701E+03  0.25500000000E-02 0. -1.
    5000001    1    1    2    0    0  0.20994884151E+03 -0.18736347829E+03  0.17566642676E+02  0.30922673878E+03  0.12700000000E+03 0.  0.
   -5000001    1    1    2    0    0 -0.20994884151E+03  0.18736347829E+03  0.17491767916E+03  0.35483627707E+03  0.12700000000E+03 0.  0.
<mgrwt>
<rscale>  0 0.63555446E+03</rscale>
<asrwt>0</asrwt>
<pdfrwt beam="1">  1        2 0.61181952E-01 0.63555446E+03</pdfrwt>
<pdfrwt beam="2">  1       -2 0.33684193E-01 0.63555446E+03</pdfrwt>
<totfact> 0.66335707E+02</totfact>
</mgrwt>
</event>
<event>
 4    1  0.1399921E-004  0.6626147E+03  0.7818608E-02  0.9783392E-01
         -2   -1    0    0    0  501 -0.00000000000E+00  0.00000000000E+00  0.28039560060E+02  0.28039560176E+02  0.25500000000E-02 0. -1.
          2   -1    0    0  501    0  0.00000000000E+00 -0.00000000000E+00 -0.39146319034E+04  0.39146319034E+04  0.25500000000E-02 0.  1.
    5000001    1    1    2    0    0 -0.11609813786E+03  0.26014790874E+03 -0.26080090887E+04  0.26265940149E+04  0.12700000000E+03 0.  0.
   -5000001    1    1    2    0    0  0.11609813786E+03 -0.26014790874E+03 -0.12785832546E+04  0.13160774487E+04  0.12700000000E+03 0.  0.
<mgrwt>
<rscale>  0 0.66261469E+03</rscale>
<asrwt>0</asrwt>
<pdfrwt beam="1">  1        2 0.55923278E+00 0.66261469E+03</pdfrwt>
<pdfrwt beam="2">  1       -2 0.40056539E-02 0.66261469E+03</pdfrwt>
<totfact> 0.20772014E+02</totfact>
</mgrwt>
</event>
<event>
 4    1  0.1399921E-004  0.5038967E+03  0.7818608E-02  0.1012767E+00
         -2   -1    0    0    0  501 -0.00000000000E+00  0.00000000000E+00  0.12791389797E+04  0.12791389797E+04  0.25500000000E-02 0. -1.
          2   -1    0    0  501    0  0.00000000000E+00 -0.00000000000E+00 -0.49625537934E+02  0.49625538000E+02  0.25500000000E-02 0.  1.
    5000001    1    1    2    0    0 -0.21748663334E+03  0.69659360533E+01  0.61473601317E+03  0.66436309789E+03  0.12700000000E+03 0.  0.
   -5000001    1    1    2    0    0  0.21748663334E+03 -0.69659360533E+01  0.61477742863E+03  0.66440141985E+03  0.12700000000E+03 0.  0.
<mgrwt>
<rscale>  0 0.50389666E+03</rscale>
<asrwt>0</asrwt>
<pdfrwt beam="1">  1        2 0.70893633E-02 0.50389666E+03</pdfrwt>
<pdfrwt beam="2">  1       -2 0.18273412E+00 0.50389666E+03</pdfrwt>
<totfact> 0.18450214E+02</totfact>
</mgrwt>
</event>
<event>
 4    1  0.1399921E-004  0.4659305E+03  0.7818608E-02  0.1023075E+00
          2   -1    0    0  501    0  0.00000000000E+00  0.00000000000E+00  0.62743257855E+02  0.62743257907E+02  0.25500000000E-02 0.  1.
         -2   -1    0    0    0  501 -0.00000000000E+00 -0.00000000000E+00 -0.86499831979E+03  0.86499831979E+03  0.25500000000E-02 0. -1.
    5000001    1    1    2    0    0 -0.83534290788E+02  0.10382356483E+03 -0.11682729484E+03  0.21802506088E+03  0.12700000000E+03 0.  0.
   -5000001    1    1    2    0    0  0.83534290788E+02 -0.10382356483E+03 -0.68542776709E+03  0.70971651682E+03  0.12700000000E+03 0.  0.
<mgrwt>
<rscale>  0 0.46593052E+03</rscale>
<asrwt>0</asrwt>
<pdfrwt beam="1">  1        2 0.89633231E-02 0.46593052E+03</pdfrwt>
<pdfrwt beam="2">  1       -2 0.12357118E+00 0.46593052E+03</pdfrwt>
<totfact> 0.38185781E+02</totfact>
</mgrwt>
</event>
<event>
 4    1  0.1399921E-004  0.3636556E+03  0.7818608E-02  0.1057146E+00
         -2   -1    0    0    0  501 -0.00000000000E+00  0.00000000000E+00  0.14474639925E+03  0.14474639927E+03  0.25500000000E-02 0. -1.
          2   -1    0    0  501    0  0.00000000000E+00 -0.00000000000E+00 -0.22840875944E+03  0.22840875945E+03  0.25500000000E-02 0.  1.
    5000001    1    1    2    0    0 -0.65023105399E+02  0.11268785180E+03 -0.44300132615E+02  0.18713112496E+03  0.12700000000E+03 0.  0.
   -5000001    1    1    2    0    0  0.65023105399E+02 -0.11268785180E+03 -0.39362227574E+02  0.18602403377E+03  0.12700000000E+03 0.  0.
<mgrwt>
<rscale>  0 0.36365558E+03</rscale>
<asrwt>0</asrwt>
<pdfrwt beam="1">  1        2 0.32629823E-01 0.36365558E+03</pdfrwt>
<pdfrwt beam="2">  1       -2 0.20678057E-01 0.36365558E+03</pdfrwt>
<totfact> 0.31867045E+03</totfact>
</mgrwt>
</event>
<event>
 4    1  0.1399921E-004  0.5244169E+03  0.7818608E-02  0.1007595E+00
          2   -1    0    0  501    0  0.00000000000E+00  0.00000000000E+00  0.43078177364E+04  0.43078177364E+04  0.25500000000E-02 0.  1.
         -2   -1    0    0    0  501 -0.00000000000E+00 -0.00000000000E+00 -0.15960118439E+02  0.15960118642E+02  0.25500000000E-02 0. -1.
    5000001    1    1    2    0    0 -0.11880835293E+03 -0.98556015145E+02  0.35450311789E+04  0.35506624413E+04  0.12700000000E+03 0.  0.
   -5000001    1    1    2    0    0  0.11880835293E+03  0.98556015145E+02  0.74682643902E+03  0.77311541368E+03  0.12700000000E+03 0.  0.
<mgrwt>
<rscale>  0 0.52441694E+03</rscale>
<asrwt>0</asrwt>
<pdfrwt beam="1">  1        2 0.61540283E+00 0.52441694E+03</pdfrwt>
<pdfrwt beam="2">  1       -2 0.22800158E-02 0.52441694E+03</pdfrwt>
<totfact> 0.26804184E+02</totfact>
</mgrwt>
</event>
<event>
 4    1  0.1399921E-004  0.4031075E+03  0.7818608E-02  0.1042709E+00
         -2   -1    0    0    0  501 -0.00000000000E+00  0.00000000000E+00  0.20750708702E+02  0.20750708859E+02  0.25500000000E-02 0. -1.
          2   -1    0    0  501    0  0.00000000000E+00 -0.00000000000E+00 -0.19577120054E+04  0.19577120054E+04  0.25500000000E-02 0.  1.
    5000001    1    1    2    0    0  0.99046570270E+02 -0.80043939231E+02 -0.52194030443E+03  0.55205791062E+03  0.12700000000E+03 0.  0.
   -5000001    1    1    2    0    0 -0.99046570270E+02  0.80043939231E+02 -0.14150209922E+04  0.14264048036E+04  0.12700000000E+03 0.  0.
<mgrwt>
<rscale>  0 0.40310749E+03</rscale>
<asrwt>0</asrwt>
<pdfrwt beam="1">  1        2 0.27967303E+00 0.40310749E+03</pdfrwt>
<pdfrwt beam="2">  1       -2 0.29643882E-02 0.40310749E+03</pdfrwt>
<totfact> 0.39887178E+03</totfact>
</mgrwt>
</event>
<event>
 4    1  0.1399921E-004  0.3515696E+03  0.7818608E-02  0.1061973E+00
          2   -1    0    0  501    0  0.00000000000E+00  0.00000000000E+00  0.10769577534E+04  0.10769577534E+04  0.25500000000E-02 0.  1.
         -2   -1    0    0    0  501 -0.00000000000E+00 -0.00000000000E+00 -0.28692200319E+02  0.28692200432E+02  0.25500000000E-02 0. -1.
    5000001    1    1    2    0    0  0.32237436733E+02 -0.11681954943E+03  0.49509936545E+03  0.52529843054E+03  0.12700000000E+03 0.  0.
   -5000001    1    1    2    0    0 -0.32237436733E+02  0.11681954943E+03  0.55316618767E+03  0.58035152334E+03  0.12700000000E+03 0.  0.
<mgrwt>
<rscale>  0 0.35156955E+03</rscale>
<asrwt>0</asrwt>
<pdfrwt beam="1">  1        2 0.15385111E+00 0.35156955E+03</pdfrwt>
<pdfrwt beam="2">  1       -2 0.40988856E-02 0.35156955E+03</pdfrwt>
<totfact> 0.69903639E+03</totfact>
</mgrwt>
</event>
<event>
 4    1  0.1399921E-004  0.5855307E+03  0.7818608E-02  0.9935888E-01
          2   -1    0    0  501    0  0.00000000000E+00  0.00000000000E+00  0.61282339896E+03  0.61282339896E+03  0.25500000000E-02 0.  1.
         -2   -1    0    0    0  501 -0.00000000000E+00 -0.00000000000E+00 -0.13986337540E+03  0.13986337542E+03  0.25500000000E-02 0. -1.
    5000001    1    1    2    0    0  0.15489924745E+03  0.76523626987E+02  0.49271579945E+03  0.53735230657E+03  0.12700000000E+03 0.  0.
   -5000001    1    1    2    0    0 -0.15489924745E+03 -0.76523626987E+02 -0.19755775891E+02  0.21533446781E+03  0.12700000000E+03 0.  0.
<mgrwt>
<rscale>  0 0.58553070E+03</rscale>
<asrwt>0</asrwt>
<pdfrwt beam="1">  1        2 0.87546201E-01 0.58553070E+03</pdfrwt>
<pdfrwt beam="2">  1       -2 0.19980482E-01 0.58553070E+03</pdfrwt>
<totfact> 0.11324487E+03</totfact>
</mgrwt>
</event>
<event>
 4    1  0.1399921E-004  0.3019887E+03  0.7818608E-02  0.1084251E+00
         -2   -1    0    0    0  501 -0.00000000000E+00  0.00000000000E+00  0.46686020161E+02  0.46686020231E+02  0.25500000000E-02 0. -1.
          2   -1    0    0  501    0  0.00000000000E+00 -0.00000000000E+00 -0.48835390213E+03  0.48835390213E+03  0.25500000000E-02 0.  1.
    5000001    1    1    2    0    0  0.63615769302E+02 -0.51217529043E+02 -0.22139071209E+03  0.26797956785E+03  0.12700000000E+03 0.  0.
   -5000001    1    1    2    0    0 -0.63615769302E+02  0.51217529043E+02 -0.22027716987E+03  0.26706035451E+03  0.12700000000E+03 0.  0.
<mgrwt>
<rscale>  0 0.30198874E+03</rscale>
<asrwt>0</asrwt>
<pdfrwt beam="1">  1        2 0.69764840E-01 0.30198874E+03</pdfrwt>
<pdfrwt beam="2">  1       -2 0.66694317E-02 0.30198874E+03</pdfrwt>
<totfact> 0.87162801E+03</totfact>
</mgrwt>
</event>
<event>
 4    1  0.1399921E-004  0.3619235E+03  0.7818608E-02  0.1057825E+00
         -2   -1    0    0    0  501 -0.00000000000E+00  0.00000000000E+00  0.14687019309E+02  0.14687019531E+02  0.25500000000E-02 0. -1.
          2   -1    0    0  501    0  0.00000000000E+00 -0.00000000000E+00 -0.22296663985E+04  0.22296663985E+04  0.25500000000E-02 0.  1.
    5000001    1    1    2    0    0  0.12167762297E+03  0.95054145923E+01 -0.85013265662E+03  0.86818795816E+03  0.12700000000E+03 0.  0.
   -5000001    1    1    2    0    0 -0.12167762297E+03 -0.95054145923E+01 -0.13648467226E+04  0.13761654599E+04  0.12700000000E+03 0.  0.
<mgrwt>
<rscale>  0 0.36192349E+03</rscale>
<asrwt>0</asrwt>
<pdfrwt beam="1">  1        2 0.31852356E+00 0.36192349E+03</pdfrwt>
<pdfrwt beam="2">  1       -2 0.20981471E-02 0.36192349E+03</pdfrwt>
<totfact> 0.49088754E+03</totfact>
</mgrwt>
</event>
<event>
 4    1  0.1399921E-004  0.2875617E+03  0.7818608E-02  0.1091629E+00
         -2   -1    0    0    0  501 -0.00000000000E+00  0.00000000000E+00  0.22379849506E+03  0.22379849507E+03  0.25500000000E-02 0. -1.
          2   -1    0    0  501    0  0.00000000000E+00 -0.00000000000E+00 -0.92372994756E+02  0.92372994792E+02  0.25500000000E-02 0.  1.
    5000001    1    1    2    0    0 -0.37094831250E+02 -0.19682586410E+02  0.12368946123E+03  0.18218538232E+03  0.12700000000E+03 0.  0.
   -5000001    1    1    2    0    0  0.37094831250E+02  0.19682586410E+02  0.77360390725E+01  0.13398610754E+03  0.12700000000E+03 0.  0.
<mgrwt>
<rscale>  0 0.28756173E+03</rscale>
<asrwt>0</asrwt>
<pdfrwt beam="1">  1        2 0.13196142E-01 0.28756173E+03</pdfrwt>
<pdfrwt beam="2">  1       -2 0.31971213E-01 0.28756173E+03</pdfrwt>
<totfact> 0.41229569E+03</totfact>
</mgrwt>
</event>
<event>
 4    1  0.1399921E-004  0.9837142E+03  0.7818608E-02  0.9326589E-01
         -2   -1    0    0    0  501 -0.00000000000E+00  0.00000000000E+00  0.86725175057E+02  0.86725175095E+02  0.25500000000E-02 0. -1.
          2   -1    0    0  501    0  0.00000000000E+00 -0.00000000000E+00 -0.27895407021E+04  0.27895407021E+04  0.25500000000E-02 0.  1.
    5000001    1    1    2    0    0 -0.29311705959E+03 -0.14063915523E+03 -0.33813368189E+03  0.48596334166E+03  0.12700000000E+03 0.  0.
   -5000001    1    1    2    0    0  0.29311705959E+03  0.14063915523E+03 -0.23646818452E+04  0.23903025356E+04  0.12700000000E+03 0.  0.
<mgrwt>
<rscale>  0 0.98371420E+03</rscale>
<asrwt>0</asrwt>
<pdfrwt beam="1">  1        2 0.39850576E+00 0.98371420E+03</pdfrwt>
<pdfrwt beam="2">  1       -2 0.12389312E-01 0.98371420E+03</pdfrwt>
<totfact> 0.15149937E+02</totfact>
</mgrwt>
</event>
<event>
 4    1  0.1399921E-004  0.4197791E+03  0.7818608E-02  0.1037138E+00
         -2   -1    0    0    0  501 -0.00000000000E+00  0.00000000000E+00  0.61780668940E+02  0.61780668992E+02  0.25500000000E-02 0. -1.
          2   -1    0    0  501    0  0.00000000000E+00 -0.00000000000E+00 -0.71306479448E+03  0.71306479448E+03  0.25500000000E-02 0.  1.
    5000001    1    1    2    0    0 -0.82857938156E+01  0.12270910480E+03 -0.11682170393E+03  0.21190207476E+03  0.12700000000E+03 0.  0.
   -5000001    1    1    2    0    0  0.82857938156E+01 -0.12270910480E+03 -0.53446242161E+03  0.56294338871E+03  0.12700000000E+03 0.  0.
<mgrwt>
<rscale>  0 0.41977908E+03</rscale>
<asrwt>0</asrwt>
<pdfrwt beam="1">  1        2 0.10186639E+00 0.41977908E+03</pdfrwt>
<pdfrwt beam="2">  1       -2 0.88258103E-02 0.41977908E+03</pdfrwt>
<totfact> 0.36591112E+03</totfact>
</mgrwt>
</event>
<event>
 4    1  0.1399921E-004  0.3042547E+03  0.7818608E-02  0.1083133E+00
          2   -1    0    0  501    0  0.00000000000E+00  0.00000000000E+00  0.39946168448E+03  0.39946168449E+03  0.25500000000E-02 0.  1.
         -2   -1    0    0    0  501 -0.00000000000E+00 -0.00000000000E+00 -0.57934812768E+02  0.57934812824E+02  0.25500000000E-02 0. -1.
    5000001    1    1    2    0    0 -0.29347114074E+02  0.21494043388E+02  0.28416794866E+03  0.31337464807E+03  0.12700000000E+03 0.  0.
   -5000001    1    1    2    0    0  0.29347114074E+02 -0.21494043388E+02  0.57358923049E+02  0.14402184924E+03  0.12700000000E+03 0.  0.
<mgrwt>
<rscale>  0 0.30425475E+03</rscale>
<asrwt>0</asrwt>
<pdfrwt beam="1">  1        2 0.57065955E-01 0.30425475E+03</pdfrwt>
<pdfrwt beam="2">  1       -2 0.82764018E-02 0.30425475E+03</pdfrwt>
<totfact> 0.77589291E+03</totfact>
</mgrwt>
</event>
<event>
 4    1  0.1399921E-004  0.6192517E+03  0.7818608E-02  0.9866251E-01
         -2   -1    0    0    0  501 -0.00000000000E+00  0.00000000000E+00  0.85119092607E+02  0.85119092645E+02  0.25500000000E-02 0. -1.
          2   -1    0    0  501    0  0.00000000000E+00 -0.00000000000E+00 -0.11262827294E+04  0.11262827294E+04  0.25500000000E-02 0.  1.
    5000001    1    1    2    0    0 -0.16931901242E+03  0.20791315577E+03 -0.34734336857E+03  0.45680764442E+03  0.12700000000E+03 0.  0.
   -5000001    1    1    2    0    0  0.16931901242E+03 -0.20791315577E+03 -0.69382026823E+03  0.75459417763E+03  0.12700000000E+03 0.  0.
<mgrwt>
<rscale>  0 0.61925169E+03</rscale>
<asrwt>0</asrwt>
<pdfrwt beam="1">  1        2 0.16089752E+00 0.61925169E+03</pdfrwt>
<pdfrwt beam="2">  1       -2 0.12159871E-01 0.61925169E+03</pdfrwt>
<totfact> 0.11816581E+03</totfact>
</mgrwt>
</event>
<event>
 4    1  0.1399921E-004  0.4387999E+03  0.7818608E-02  0.1031116E+00
          2   -1    0    0  501    0  0.00000000000E+00  0.00000000000E+00  0.45744646865E+03  0.45744646866E+03  0.25500000000E-02 0.  1.
         -2   -1    0    0    0  501 -0.00000000000E+00 -0.00000000000E+00 -0.10522834915E+03  0.10522834918E+03  0.25500000000E-02 0. -1.
    5000001    1    1    2    0    0 -0.10143995792E+03  0.14539026801E+03  0.14525528125E+03  0.26202383828E+03  0.12700000000E+03 0.  0.
   -5000001    1    1    2    0    0  0.10143995792E+03 -0.14539026801E+03  0.20696283825E+03  0.30065097956E+03  0.12700000000E+03 0.  0.
<mgrwt>
<rscale>  0 0.43879989E+03</rscale>
<asrwt>0</asrwt>
<pdfrwt beam="1">  1        2 0.65349497E-01 0.43879989E+03</pdfrwt>
<pdfrwt beam="2">  1       -2 0.15032621E-01 0.43879989E+03</pdfrwt>
<totfact> 0.25678958E+03</totfact>
</mgrwt>
</event>
<event>
 4    1  0.1399921E-004  0.2788056E+03  0.7818608E-02  0.1096343E+00
         -2   -1    0    0    0  501 -0.00000000000E+00  0.00000000000E+00  0.20685589460E+03  0.20685589462E+03  0.25500000000E-02 0. -1.
          2   -1    0    0  501    0  0.00000000000E+00 -0.00000000000E+00 -0.93945274435E+02  0.93945274470E+02  0.25500000000E-02 0.  1.
    5000001    1    1    2    0    0 -0.30588822807E+02 -0.39896428820E+02  0.26386662630E+02  0.13911382777E+03  0.12700000000E+03 0.  0.
   -5000001    1    1    2    0    0  0.30588822807E+02  0.39896428820E+02  0.86523957538E+02  0.16168734131E+03  0.12700000000E+03 0.  0.
<mgrwt>
<rscale>  0 0.27880555E+03</rscale>
<asrwt>0</asrwt>
<pdfrwt beam="1">  1        2 0.13420754E-01 0.27880555E+03</pdfrwt>
<pdfrwt beam="2">  1       -2 0.29550842E-01 0.27880555E+03</pdfrwt>
<totfact> 0.46593800E+03</totfact>
</mgrwt>
</event>
<event>
 4    1  0.1399921E-004  0.4340253E+03  0.7818608E-02  0.1032596E+00
         -2   -1    0    0    0  501 -0.00000000000E+00  0.00000000000E+00  0.35329818098E+02  0.35329818190E+02  0.25500000000E-02 0.  1.
          2   -1    0    0  501    0  0.00000000000E+00 -0.00000000000E+00 -0.13329952866E+04  0.13329952866E+04  0.25500000000E-02 0. -1.
    5000001    1    1    2    0    0  0.10601878542E+02  0.15737007613E+03 -0.40285128673E+03  0.45088346600E+03  0.12700000000E+03 0.  0.
   -5000001    1    1    2    0    0 -0.10601878542E+02 -0.15737007613E+03 -0.89481418174E+03  0.91744163876E+03  0.12700000000E+03 0.  0.
<mgrwt>
<rscale>  0 0.43402526E+03</rscale>
<asrwt>0</asrwt>
<pdfrwt beam="1">  1        2 0.19042787E+00 0.43402526E+03</pdfrwt>
<pdfrwt beam="2">  1       -2 0.50471177E-02 0.43402526E+03</pdfrwt>
<totfact> 0.36831389E+03</totfact>
</mgrwt>
</event>
<event>
 4    1  0.1399921E-004  0.1525401E+04  0.7818608E-02  0.8867735E-01
          2   -1    0    0  501    0  0.00000000000E+00  0.00000000000E+00  0.19641512291E+04  0.19641512291E+04  0.25500000000E-02 0.  1.
         -2   -1    0    0    0  501 -0.00000000000E+00 -0.00000000000E+00 -0.29616454934E+03  0.29616454935E+03  0.25500000000E-02 0. -1.
    5000001    1    1    2    0    0 -0.44496161271E+03  0.56416119708E+03  0.11630505641E+04  0.13729837245E+04  0.12700000000E+03 0.  0.
   -5000001    1    1    2    0    0  0.44496161271E+03 -0.56416119708E+03  0.50493611567E+03  0.88733205396E+03  0.12700000000E+03 0.  0.
<mgrwt>
<rscale>  0 0.15254009E+04</rscale>
<asrwt>0</asrwt>
<pdfrwt beam="1">  1        2 0.28059303E+00 0.15254009E+04</pdfrwt>
<pdfrwt beam="2">  1       -2 0.42309221E-01 0.15254009E+04</pdfrwt>
<totfact> 0.42812416E+01</totfact>
</mgrwt>
</event>
<event>
 4    1  0.1399921E-004  0.3785788E+03  0.7818608E-02  0.1051460E+00
         -2   -1    0    0    0  501 -0.00000000000E+00  0.00000000000E+00  0.47974607588E+02  0.47974607656E+02  0.25500000000E-02 0. -1.
          2   -1    0    0  501    0  0.00000000000E+00 -0.00000000000E+00 -0.74686338318E+03  0.74686338318E+03  0.25500000000E-02 0.  1.
    5000001    1    1    2    0    0 -0.32689488553E+02  0.12208429876E+03 -0.22124743735E+03  0.28469739585E+03  0.12700000000E+03 0.  0.
   -5000001    1    1    2    0    0  0.32689488553E+02 -0.12208429876E+03 -0.47764133823E+03  0.51014059499E+03  0.12700000000E+03 0.  0.
<mgrwt>
<rscale>  0 0.37857880E+03</rscale>
<asrwt>0</asrwt>
<pdfrwt beam="1">  1        2 0.10669476E+00 0.37857880E+03</pdfrwt>
<pdfrwt beam="2">  1       -2 0.68535158E-02 0.37857880E+03</pdfrwt>
<totfact> 0.51416635E+03</totfact>
</mgrwt>
</event>
<event>
 4    1  0.1399921E-004  0.2970709E+03  0.7818608E-02  0.1086714E+00
          2   -1    0    0  501    0  0.00000000000E+00  0.00000000000E+00  0.72974979377E+02  0.72974979421E+02  0.25500000000E-02 0.  1.
         -2   -1    0    0    0  501 -0.00000000000E+00 -0.00000000000E+00 -0.30233348643E+03  0.30233348644E+03  0.25500000000E-02 0. -1.
    5000001    1    1    2    0    0  0.60684540796E+02 -0.67983445435E+00 -0.54743293356E+02  0.15102616937E+03  0.12700000000E+03 0.  0.
   -5000001    1    1    2    0    0 -0.60684540796E+02  0.67983445435E+00 -0.17461521370E+03  0.22428229650E+03  0.12700000000E+03 0.  0.
<mgrwt>
<rscale>  0 0.29707090E+03</rscale>
<asrwt>0</asrwt>
<pdfrwt beam="1">  1        2 0.10424997E-01 0.29707090E+03</pdfrwt>
<pdfrwt beam="2">  1       -2 0.43190497E-01 0.29707090E+03</pdfrwt>
<totfact> 0.31204905E+03</totfact>
</mgrwt>
</event>
<event>
 4    1  0.1399921E-004  0.4745593E+03  0.7818608E-02  0.1020641E+00
          2   -1    0    0  501    0  0.00000000000E+00  0.00000000000E+00  0.18746582535E+04  0.18746582535E+04  0.25500000000E-02 0.  1.
         -2   -1    0    0    0  501 -0.00000000000E+00 -0.00000000000E+00 -0.30033013629E+02  0.30033013738E+02  0.25500000000E-02 0. -1.
    5000001    1    1    2    0    0  0.14950239598E+03 -0.13314970236E+03  0.88364281026E+03  0.91489530864E+03  0.12700000000E+03 0.  0.
   -5000001    1    1    2    0    0 -0.14950239598E+03  0.13314970236E+03  0.96098242956E+03  0.98979595856E+03  0.12700000000E+03 0.  0.
<mgrwt>
<rscale>  0 0.47455932E+03</rscale>
<asrwt>0</asrwt>
<pdfrwt beam="1">  1        2 0.26780822E+00 0.47455932E+03</pdfrwt>
<pdfrwt beam="2">  1       -2 0.42904321E-02 0.47455932E+03</pdfrwt>
<totfact> 0.24982953E+03</totfact>
</mgrwt>
</event>
<event>
 4    1  0.1399921E-004  0.3917705E+03  0.7818608E-02  0.1046667E+00
          2   -1    0    0  501    0  0.00000000000E+00  0.00000000000E+00  0.83104199023E+03  0.83104199024E+03  0.25500000000E-02 0.  1.
         -2   -1    0    0    0  501 -0.00000000000E+00 -0.00000000000E+00 -0.46172194582E+02  0.46172194652E+02  0.25500000000E-02 0. -1.
    5000001    1    1    2    0    0 -0.13575027560E+03  0.48129665999E+02  0.30578915379E+03  0.36108255102E+03  0.12700000000E+03 0.  0.
   -5000001    1    1    2    0    0  0.13575027560E+03 -0.48129665999E+02  0.47908064186E+03  0.51613163386E+03  0.12700000000E+03 0.  0.
<mgrwt>
<rscale>  0 0.39177051E+03</rscale>
<asrwt>0</asrwt>
<pdfrwt beam="1">  1        2 0.11872029E+00 0.39177051E+03</pdfrwt>
<pdfrwt beam="2">  1       -2 0.65960276E-02 0.39177051E+03</pdfrwt>
<totfact> 0.47791036E+03</totfact>
</mgrwt>
</event>
<event>
 4    1  0.1399921E-004  0.4565099E+03  0.7818608E-02  0.1025798E+00
         -2   -1    0    0    0  501 -0.00000000000E+00  0.00000000000E+00  0.44453017947E+03  0.44453017947E+03  0.25500000000E-02 0. -1.
          2   -1    0    0  501    0  0.00000000000E+00 -0.00000000000E+00 -0.11720313817E+03  0.11720313820E+03  0.25500000000E-02 0.  1.
    5000001    1    1    2    0    0  0.82309746727E+01 -0.18008705439E+03  0.91155749184E+02  0.23861573023E+03  0.12700000000E+03 0.  0.
   -5000001    1    1    2    0    0 -0.82309746727E+01  0.18008705439E+03  0.23617129211E+03  0.32311758745E+03  0.12700000000E+03 0.  0.
<mgrwt>
<rscale>  0 0.45650994E+03</rscale>
<asrwt>0</asrwt>
<pdfrwt beam="1">  1        2 0.16743306E-01 0.45650994E+03</pdfrwt>
<pdfrwt beam="2">  1       -2 0.63504311E-01 0.45650994E+03</pdfrwt>
<totfact> 0.80891954E+02</totfact>
</mgrwt>
</event>
<event>
 4    1  0.1399921E-004  0.3352624E+03  0.7818608E-02  0.1068832E+00
          2   -1    0    0  501    0  0.00000000000E+00  0.00000000000E+00  0.51551730143E+03  0.51551730144E+03  0.25500000000E-02 0.  1.
         -2   -1    0    0    0  501 -0.00000000000E+00 -0.00000000000E+00 -0.54508777239E+02  0.54508777299E+02  0.25500000000E-02 0. -1.
    5000001    1    1    2    0    0  0.10906076395E+03  0.84742490681E+01  0.22664407068E+03  0.28189111001E+03  0.12700000000E+03 0.  0.
   -5000001    1    1    2    0    0 -0.10906076395E+03 -0.84742490681E+01  0.23436445351E+03  0.28813496872E+03  0.12700000000E+03 0.  0.
<mgrwt>
<rscale>  0 0.33526239E+03</rscale>
<asrwt>0</asrwt>
<pdfrwt beam="1">  1        2 0.73645328E-01 0.33526239E+03</pdfrwt>
<pdfrwt beam="2">  1       -2 0.77869682E-02 0.33526239E+03</pdfrwt>
<totfact> 0.64693991E+03</totfact>
</mgrwt>
</event>
<event>
 4    1  0.1399921E-004  0.4053434E+03  0.7818608E-02  0.1041945E+00
         -2   -1    0    0    0  501 -0.00000000000E+00  0.00000000000E+00  0.59956892076E+02  0.59956892130E+02  0.25500000000E-02 0. -1.
          2   -1    0    0  501    0  0.00000000000E+00 -0.00000000000E+00 -0.68508923979E+03  0.68508923979E+03  0.25500000000E-02 0.  1.
    5000001    1    1    2    0    0 -0.52235468671E+02 -0.14482762546E+03 -0.24775693977E+03  0.31814475712E+03  0.12700000000E+03 0.  0.
   -5000001    1    1    2    0    0  0.52235468671E+02  0.14482762546E+03 -0.37737540794E+03  0.42690137480E+03  0.12700000000E+03 0.  0.
<mgrwt>
<rscale>  0 0.40534342E+03</rscale>
<asrwt>0</asrwt>
<pdfrwt beam="1">  1        2 0.97869887E-01 0.40534342E+03</pdfrwt>
<pdfrwt beam="2">  1       -2 0.85652707E-02 0.40534342E+03</pdfrwt>
<totfact> 0.40253166E+03</totfact>
</mgrwt>
</event>
<event>
 4    1  0.1399921E-004  0.3778836E+03  0.7818608E-02  0.1051719E+00
         -2   -1    0    0    0  501 -0.00000000000E+00  0.00000000000E+00  0.48465315144E+02  0.48465315211E+02  0.25500000000E-02 0. -1.
          2   -1    0    0  501    0  0.00000000000E+00 -0.00000000000E+00 -0.73658875015E+03  0.73658875015E+03  0.25500000000E-02 0.  1.
    5000001    1    1    2    0    0  0.29657506356E+01 -0.13365895332E+03 -0.25849246619E+03  0.31752301737E+03  0.12700000000E+03 0.  0.
   -5000001    1    1    2    0    0 -0.29657506356E+01  0.13365895332E+03 -0.42963096881E+03  0.46753104800E+03  0.12700000000E+03 0.  0.
<mgrwt>
<rscale>  0 0.37788361E+03</rscale>
<asrwt>0</asrwt>
<pdfrwt beam="1">  1        2 0.10522696E+00 0.37788361E+03</pdfrwt>
<pdfrwt beam="2">  1       -2 0.69236169E-02 0.37788361E+03</pdfrwt>
<totfact> 0.51469811E+03</totfact>
</mgrwt>
</event>
<event>
 4    1  0.1399921E-004  0.3047321E+03  0.7818608E-02  0.1082899E+00
         -2   -1    0    0    0  501 -0.00000000000E+00  0.00000000000E+00  0.40774678602E+02  0.40774678681E+02  0.25500000000E-02 0. -1.
          2   -1    0    0  501    0  0.00000000000E+00 -0.00000000000E+00 -0.56935843899E+03  0.56935843900E+03  0.25500000000E-02 0.  1.
    5000001    1    1    2    0    0  0.23381718655E+02  0.77518175087E+02 -0.21817027056E+03  0.26510948529E+03  0.12700000000E+03 0.  0.
   -5000001    1    1    2    0    0 -0.23381718655E+02 -0.77518175087E+02 -0.31041348983E+03  0.34502363239E+03  0.12700000000E+03 0.  0.
<mgrwt>
<rscale>  0 0.30473206E+03</rscale>
<asrwt>0</asrwt>
<pdfrwt beam="1">  1        2 0.81336915E-01 0.30473206E+03</pdfrwt>
<pdfrwt beam="2">  1       -2 0.58249544E-02 0.30473206E+03</pdfrwt>
<totfact> 0.90467670E+03</totfact>
</mgrwt>
</event>
<event>
 4    1  0.1399921E-004  0.4091106E+03  0.7818608E-02  0.1040670E+00
         -2   -1    0    0    0  501 -0.00000000000E+00  0.00000000000E+00  0.40802668777E+02  0.40802668857E+02  0.25500000000E-02 0. -1.
          2   -1    0    0  501    0  0.00000000000E+00 -0.00000000000E+00 -0.10254933083E+04  0.10254933083E+04  0.25500000000E-02 0.  1.
    5000001    1    1    2    0    0 -0.42436517980E+01  0.54751098712E+02 -0.88501965764E+03  0.89577033094E+03  0.12700000000E+03 0.  0.
   -5000001    1    1    2    0    0  0.42436517980E+01 -0.54751098712E+02 -0.99670981903E+02  0.17052564624E+03  0.12700000000E+03 0.  0.
<mgrwt>
<rscale>  0 0.40911057E+03</rscale>
<asrwt>0</asrwt>
<pdfrwt beam="1">  1        2 0.14649903E+00 0.40911057E+03</pdfrwt>
<pdfrwt beam="2">  1       -2 0.58289533E-02 0.40911057E+03</pdfrwt>
<totfact> 0.43779659E+03</totfact>
</mgrwt>
</event>
<event>
 4    1  0.1399921E-004  0.1053162E+04  0.7818608E-02  0.9252085E-01
         -2   -1    0    0    0  501 -0.00000000000E+00  0.00000000000E+00  0.14430501460E+03  0.14430501463E+03  0.25500000000E-02 0. -1.
          2   -1    0    0  501    0  0.00000000000E+00 -0.00000000000E+00 -0.19215383134E+04  0.19215383134E+04  0.25500000000E-02 0.  1.
    5000001    1    1    2    0    0 -0.27719483702E+03 -0.42885417252E+03 -0.92812815926E+03  0.10669131919E+04  0.12700000000E+03 0.  0.
   -5000001    1    1    2    0    0  0.27719483702E+03  0.42885417252E+03 -0.84910513955E+03  0.99893013618E+03  0.12700000000E+03 0.  0.
<mgrwt>
<rscale>  0 0.10531621E+04</rscale>
<asrwt>0</asrwt>
<pdfrwt beam="1">  1        2 0.27450546E+00 0.10531621E+04</pdfrwt>
<pdfrwt beam="2">  1       -2 0.20615003E-01 0.10531621E+04</pdfrwt>
<totfact> 0.17772067E+02</totfact>
</mgrwt>
</event>
<event>
 4    1  0.1399921E-004  0.3271905E+03  0.7818608E-02  0.1072387E+00
          2   -1    0    0  501    0  0.00000000000E+00  0.00000000000E+00  0.16865617060E+04  0.16865617060E+04  0.25500000000E-02 0. -1.
         -2   -1    0    0    0  501 -0.00000000000E+00 -0.00000000000E+00 -0.15868618831E+02  0.15868619036E+02  0.25500000000E-02 0.  1.
    5000001    1    1    2    0    0 -0.29658916719E+02 -0.69477586902E+02  0.12005940089E+04  0.12096535705E+04  0.12700000000E+03 0.  0.
   -5000001    1    1    2    0    0  0.29658916719E+02  0.69477586902E+02  0.47009907829E+03  0.49277675456E+03  0.12700000000E+03 0.  0.
<mgrwt>
<rscale>  0 0.32719050E+03</rscale>
<asrwt>0</asrwt>
<pdfrwt beam="1">  1        2 0.24093748E+00 0.32719050E+03</pdfrwt>
<pdfrwt beam="2">  1       -2 0.22669447E-02 0.32719050E+03</pdfrwt>
<totfact> 0.81075812E+03</totfact>
</mgrwt>
</event>
<event>
 4    1  0.1399921E-004  0.3423187E+03  0.7818608E-02  0.1065813E+00
          2   -1    0    0  501    0  0.00000000000E+00  0.00000000000E+00  0.16071811796E+03  0.16071811798E+03  0.25500000000E-02 0.  1.
         -2   -1    0    0    0  501 -0.00000000000E+00 -0.00000000000E+00 -0.18227894638E+03  0.18227894640E+03  0.25500000000E-02 0. -1.
    5000001    1    1    2    0    0 -0.25240846681E+02  0.11185632321E+03 -0.14982986823E+02  0.17176270630E+03  0.12700000000E+03 0.  0.
   -5000001    1    1    2    0    0  0.25240846681E+02 -0.11185632321E+03 -0.65778416013E+01  0.17123435807E+03  0.12700000000E+03 0.  0.
<mgrwt>
<rscale>  0 0.34231874E+03</rscale>
<asrwt>0</asrwt>
<pdfrwt beam="1">  1        2 0.22959731E-01 0.34231874E+03</pdfrwt>
<pdfrwt beam="2">  1       -2 0.26039849E-01 0.34231874E+03</pdfrwt>
<totfact> 0.31432448E+03</totfact>
</mgrwt>
</event>
<event>
 4    1  0.1399921E-004  0.3679768E+03  0.7818608E-02  0.1055469E+00
          2   -1    0    0  501    0  0.00000000000E+00  0.00000000000E+00  0.81187815722E+02  0.81187815762E+02  0.25500000000E-02 0.  1.
         -2   -1    0    0    0  501 -0.00000000000E+00 -0.00000000000E+00 -0.41695587038E+03  0.41695587039E+03  0.25500000000E-02 0. -1.
    5000001    1    1    2    0    0 -0.83050250131E+02  0.64321122382E+02 -0.27859440083E+03  0.32369490420E+03  0.12700000000E+03 0.  0.
   -5000001    1    1    2    0    0  0.83050250131E+02 -0.64321122382E+02 -0.57173653827E+02  0.17444878195E+03  0.12700000000E+03 0.  0.
<mgrwt>
<rscale>  0 0.36797683E+03</rscale>
<asrwt>0</asrwt>
<pdfrwt beam="1">  1        2 0.11598260E-01 0.36797683E+03</pdfrwt>
<pdfrwt beam="2">  1       -2 0.59565123E-01 0.36797683E+03</pdfrwt>
<totfact> 0.14403092E+03</totfact>
</mgrwt>
</event>
<event>
 4    1  0.1399921E-004  0.6204136E+03  0.7818608E-02  0.9863937E-01
         -2   -1    0    0    0  501 -0.00000000000E+00  0.00000000000E+00  0.76906556659E+03  0.76906556660E+03  0.25500000000E-02 0. -1.
          2   -1    0    0  501    0  0.00000000000E+00 -0.00000000000E+00 -0.12512360296E+03  0.12512360299E+03  0.25500000000E-02 0.  1.
    5000001    1    1    2    0    0  0.37810262973E+02  0.28048038631E+03  0.32106913852E+03  0.44644513078E+03  0.12700000000E+03 0.  0.
   -5000001    1    1    2    0    0 -0.37810262973E+02 -0.28048038631E+03  0.32287282511E+03  0.44774403880E+03  0.12700000000E+03 0.  0.
<mgrwt>
<rscale>  0 0.62041359E+03</rscale>
<asrwt>0</asrwt>
<pdfrwt beam="1">  1        2 0.17874801E-01 0.62041359E+03</pdfrwt>
<pdfrwt beam="2">  1       -2 0.10986651E+00 0.62041359E+03</pdfrwt>
<totfact> 0.21649970E+02</totfact>
</mgrwt>
</event>
<event>
 4    1  0.1399921E-004  0.3058689E+03  0.7818608E-02  0.1082343E+00
          2   -1    0    0  501    0  0.00000000000E+00  0.00000000000E+00  0.24910850202E+03  0.24910850203E+03  0.25500000000E-02 0.  1.
         -2   -1    0    0    0  501 -0.00000000000E+00 -0.00000000000E+00 -0.93890626834E+02  0.93890626869E+02  0.25500000000E-02 0. -1.
    5000001    1    1    2    0    0 -0.17676296856E+02 -0.45588129610E+02 -0.64163442412E+00  0.13608872373E+03  0.12700000000E+03 0.  0.
   -5000001    1    1    2    0    0  0.17676296856E+02  0.45588129610E+02  0.15585950961E+03  0.20691040517E+03  0.12700000000E+03 0.  0.
<mgrwt>
<rscale>  0 0.30586895E+03</rscale>
<asrwt>0</asrwt>
<pdfrwt beam="1">  1        2 0.35586929E-01 0.30586895E+03</pdfrwt>
<pdfrwt beam="2">  1       -2 0.13412947E-01 0.30586895E+03</pdfrwt>
<totfact> 0.59705996E+03</totfact>
</mgrwt>
</event>
<event>
 4    1  0.1399921E-004  0.5818137E+03  0.7818608E-02  0.9943872E-01
         -2   -1    0    0    0  501 -0.00000000000E+00  0.00000000000E+00  0.36655426754E+03  0.36655426755E+03  0.25500000000E-02 0. -1.
          2   -1    0    0  501    0  0.00000000000E+00 -0.00000000000E+00 -0.23087111976E+03  0.23087111978E+03  0.25500000000E-02 0.  1.
    5000001    1    1    2    0    0 -0.25238229673E+03 -0.62943126912E+02  0.38096489442E+02  0.29195719453E+03  0.12700000000E+03 0.  0.
   -5000001    1    1    2    0    0  0.25238229673E+03  0.62943126912E+02  0.97586658337E+02  0.30546819280E+03  0.12700000000E+03 0.  0.
<mgrwt>
<rscale>  0 0.58181370E+03</rscale>
<asrwt>0</asrwt>
<pdfrwt beam="1">  1        2 0.32981588E-01 0.58181370E+03</pdfrwt>
<pdfrwt beam="2">  1       -2 0.52364896E-01 0.58181370E+03</pdfrwt>
<totfact> 0.55449407E+02</totfact>
</mgrwt>
</event>
<event>
 4    1  0.1399921E-004  0.5692832E+03  0.7818608E-02  0.9971266E-01
          2   -1    0    0  501    0  0.00000000000E+00  0.00000000000E+00  0.12450514878E+04  0.12450514878E+04  0.25500000000E-02 0.  1.
         -2   -1    0    0    0  501 -0.00000000000E+00 -0.00000000000E+00 -0.65074296812E+02  0.65074296862E+02  0.25500000000E-02 0. -1.
    5000001    1    1    2    0    0  0.23028965705E+03  0.48492407234E+02  0.36559700081E+03  0.45296247825E+03  0.12700000000E+03 0.  0.
   -5000001    1    1    2    0    0 -0.23028965705E+03 -0.48492407234E+02  0.81438019022E+03  0.85716330645E+03  0.12700000000E+03 0.  0.
<mgrwt>
<rscale>  0 0.56928323E+03</rscale>
<asrwt>0</asrwt>
<pdfrwt beam="1">  1        2 0.17786449E+00 0.56928323E+03</pdfrwt>
<pdfrwt beam="2">  1       -2 0.92963283E-02 0.56928323E+03</pdfrwt>
<totfact> 0.15707310E+03</totfact>
</mgrwt>
</event>
<event>
 4    1  0.1399921E-004  0.3320770E+03  0.7818608E-02  0.1070222E+00
          2   -1    0    0  501    0  0.00000000000E+00  0.00000000000E+00  0.19206767031E+03  0.19206767032E+03  0.25500000000E-02 0.  1.
         -2   -1    0    0    0  501 -0.00000000000E+00 -0.00000000000E+00 -0.14353685381E+03  0.14353685384E+03  0.25500000000E-02 0. -1.
    5000001    1    1    2    0    0 -0.50346069833E+02 -0.90044143992E+02 -0.42677156280E+01  0.16367616812E+03  0.12700000000E+03 0.  0.
   -5000001    1    1    2    0    0  0.50346069833E+02  0.90044143992E+02  0.52798532122E+02  0.17192835604E+03  0.12700000000E+03 0.  0.
<mgrwt>
<rscale>  0 0.33207703E+03</rscale>
<asrwt>0</asrwt>
<pdfrwt beam="1">  1        2 0.27438239E-01 0.33207703E+03</pdfrwt>
<pdfrwt beam="2">  1       -2 0.20505265E-01 0.33207703E+03</pdfrwt>
<totfact> 0.39081435E+03</totfact>
</mgrwt>
</event>
<event>
 4    1  0.1399921E-004  0.3808099E+03  0.7818608E-02  0.1050635E+00
          2   -1    0    0  501    0  0.00000000000E+00  0.00000000000E+00  0.17227169604E+03  0.17227169606E+03  0.25500000000E-02 0.  1.
         -2   -1    0    0    0  501 -0.00000000000E+00 -0.00000000000E+00 -0.21044690179E+03  0.21044690180E+03  0.25500000000E-02 0. -1.
    5000001    1    1    2    0    0  0.70415679518E+02  0.11569728095E+03  0.23323626156E+02  0.18712888681E+03  0.12700000000E+03 0.  0.
   -5000001    1    1    2    0    0 -0.70415679518E+02 -0.11569728095E+03 -0.61498831908E+02  0.19558971105E+03  0.12700000000E+03 0.  0.
<mgrwt>
<rscale>  0 0.38080990E+03</rscale>
<asrwt>0</asrwt>
<pdfrwt beam="1">  1        2 0.24610242E-01 0.38080990E+03</pdfrwt>
<pdfrwt beam="2">  1       -2 0.30063843E-01 0.38080990E+03</pdfrwt>
<totfact> 0.22457073E+03</totfact>
</mgrwt>
</event>
<event>
 4    1  0.1399921E-004  0.2797906E+03  0.7818608E-02  0.1095803E+00
         -2   -1    0    0    0  501 -0.00000000000E+00  0.00000000000E+00  0.86111177218E+02  0.86111177255E+02  0.25500000000E-02 0. -1.
          2   -1    0    0  501    0  0.00000000000E+00 -0.00000000000E+00 -0.22727237448E+03  0.22727237450E+03  0.25500000000E-02 0.  1.
    5000001    1    1    2    0    0 -0.29135737695E+02  0.47057098759E+02 -0.48791670021E+02  0.14687712149E+03  0.12700000000E+03 0.  0.
   -5000001    1    1    2    0    0  0.29135737695E+02 -0.47057098759E+02 -0.92369527246E+02  0.16650643026E+03  0.12700000000E+03 0.  0.
<mgrwt>
<rscale>  0 0.27979058E+03</rscale>
<asrwt>0</asrwt>
<pdfrwt beam="1">  1        2 0.32467482E-01 0.27979058E+03</pdfrwt>
<pdfrwt beam="2">  1       -2 0.12301597E-01 0.27979058E+03</pdfrwt>
<totfact> 0.75722175E+03</totfact>
</mgrwt>
</event>
<event>
 4    1  0.1399921E-004  0.2692364E+03  0.7818608E-02  0.1101717E+00
          2   -1    0    0  501    0  0.00000000000E+00  0.00000000000E+00  0.22548837535E+04  0.22548837535E+04  0.25500000000E-02 0.  1.
         -2   -1    0    0    0  501 -0.00000000000E+00 -0.00000000000E+00 -0.80368059873E+01  0.80368063918E+01  0.25500000000E-02 0. -1.
    5000001    1    1    2    0    0  0.42234977007E+02 -0.14363803579E+02  0.11089836362E+04  0.11171230091E+04  0.12700000000E+03 0.  0.
   -5000001    1    1    2    0    0 -0.42234977007E+02  0.14363803579E+02  0.11378633113E+04  0.11457975508E+04  0.12700000000E+03 0.  0.
<mgrwt>
<rscale>  0 0.26923643E+03</rscale>
<asrwt>0</asrwt>
<pdfrwt beam="1">  1        2 0.32212683E+00 0.26923643E+03</pdfrwt>
<pdfrwt beam="2">  1       -2 0.11481131E-02 0.26923643E+03</pdfrwt>
<totfact> 0.11555669E+04</totfact>
</mgrwt>
</event>
<event>
 4    1  0.1399921E-004  0.3906861E+03  0.7818608E-02  0.1047053E+00
          2   -1    0    0  501    0  0.00000000000E+00  0.00000000000E+00  0.20187483180E+04  0.20187483180E+04  0.25500000000E-02 0.  1.
         -2   -1    0    0    0  501 -0.00000000000E+00 -0.00000000000E+00 -0.18902258608E+02  0.18902258780E+02  0.25500000000E-02 0. -1.
    5000001    1    1    2    0    0 -0.65374582143E+02  0.13121546639E+03  0.87888490549E+03  0.90003278369E+03  0.12700000000E+03 0.  0.
   -5000001    1    1    2    0    0  0.65374582143E+02 -0.13121546639E+03  0.11209611539E+04  0.11376177931E+04  0.12700000000E+03 0.  0.
<mgrwt>
<rscale>  0 0.39068608E+03</rscale>
<asrwt>0</asrwt>
<pdfrwt beam="1">  1        2 0.28839261E+00 0.39068608E+03</pdfrwt>
<pdfrwt beam="2">  1       -2 0.27003227E-02 0.39068608E+03</pdfrwt>
<totfact> 0.42812895E+03</totfact>
</mgrwt>
</event>
<event>
 4    1  0.1399921E-004  0.3307693E+03  0.7818608E-02  0.1070797E+00
          2   -1    0    0  501    0  0.00000000000E+00  0.00000000000E+00  0.30971177813E+03  0.30971177814E+03  0.25500000000E-02 0.  1.
         -2   -1    0    0    0  501 -0.00000000000E+00 -0.00000000000E+00 -0.88314628172E+02  0.88314628209E+02  0.25500000000E-02 0. -1.
    5000001    1    1    2    0    0 -0.39763321314E+02 -0.94794406140E+02  0.14151851577E+03  0.21615640509E+03  0.12700000000E+03 0.  0.
   -5000001    1    1    2    0    0  0.39763321314E+02  0.94794406140E+02  0.79878634190E+02  0.18187000126E+03  0.12700000000E+03 0.  0.
<mgrwt>
<rscale>  0 0.33076929E+03</rscale>
<asrwt>0</asrwt>
<pdfrwt beam="1">  1        2 0.44244541E-01 0.33076929E+03</pdfrwt>
<pdfrwt beam="2">  1       -2 0.12616375E-01 0.33076929E+03</pdfrwt>
<totfact> 0.52235459E+03</totfact>
</mgrwt>
</event>
<event>
 4    1  0.1399921E-004  0.3078001E+03  0.7818608E-02  0.1081405E+00
          2   -1    0    0  501    0  0.00000000000E+00  0.00000000000E+00  0.25428670116E+03  0.25428670117E+03  0.25500000000E-02 0.  1.
         -2   -1    0    0    0  501 -0.00000000000E+00 -0.00000000000E+00 -0.93143759586E+02  0.93143759621E+02  0.25500000000E-02 0. -1.
    5000001    1    1    2    0    0 -0.62432413780E+02 -0.32672422731E+02  0.23116622181E+02  0.14706689539E+03  0.12700000000E+03 0.  0.
   -5000001    1    1    2    0    0  0.62432413780E+02  0.32672422731E+02  0.13802631939E+03  0.20036356541E+03  0.12700000000E+03 0.  0.
<mgrwt>
<rscale>  0 0.30780006E+03</rscale>
<asrwt>0</asrwt>
<pdfrwt beam="1">  1        2 0.36326671E-01 0.30780006E+03</pdfrwt>
<pdfrwt beam="2">  1       -2 0.13306252E-01 0.30780006E+03</pdfrwt>
<totfact> 0.59164587E+03</totfact>
</mgrwt>
</event>
<event>
 4    1  0.1399921E-004  0.6806474E+03  0.7818608E-02  0.9750912E-01
          2   -1    0    0  501    0  0.00000000000E+00  0.00000000000E+00  0.22898682675E+04  0.22898682675E+04  0.25500000000E-02 0.  1.
         -2   -1    0    0    0  501 -0.00000000000E+00 -0.00000000000E+00 -0.50579419162E+02  0.50579419226E+02  0.25500000000E-02 0. -1.
    5000001    1    1    2    0    0  0.15267170840E+03 -0.24758161477E+03  0.69730425108E+03  0.76613805876E+03  0.12700000000E+03 0.  0.
   -5000001    1    1    2    0    0 -0.15267170840E+03  0.24758161477E+03  0.15419845973E+04  0.15743096280E+04  0.12700000000E+03 0.  0.
<mgrwt>
<rscale>  0 0.68064736E+03</rscale>
<asrwt>0</asrwt>
<pdfrwt beam="1">  1        2 0.32712410E+00 0.68064736E+03</pdfrwt>
<pdfrwt beam="2">  1       -2 0.72256300E-02 0.68064736E+03</pdfrwt>
<totfact> 0.67839268E+02</totfact>
</mgrwt>
</event>
<event>
 4    1  0.1399921E-004  0.4332578E+03  0.7818608E-02  0.1032836E+00
          2   -1    0    0  501    0  0.00000000000E+00  0.00000000000E+00  0.58127401111E+03  0.58127401112E+03  0.25500000000E-02 0.  1.
         -2   -1    0    0    0  501 -0.00000000000E+00 -0.00000000000E+00 -0.80733135624E+02  0.80733135665E+02  0.25500000000E-02 0. -1.
    5000001    1    1    2    0    0 -0.68164325512E+02 -0.36613071582E+02  0.95855668930E+01  0.14902273443E+03  0.12700000000E+03 0.  0.
   -5000001    1    1    2    0    0  0.68164325512E+02  0.36613071582E+02  0.49095530859E+03  0.51298441236E+03  0.12700000000E+03 0.  0.
<mgrwt>
<rscale>  0 0.43325777E+03</rscale>
<asrwt>0</asrwt>
<pdfrwt beam="1">  1        2 0.83039143E-01 0.43325777E+03</pdfrwt>
<pdfrwt beam="2">  1       -2 0.11533305E-01 0.43325777E+03</pdfrwt>
<totfact> 0.30304836E+03</totfact>
</mgrwt>
</event>
<event>
 4    1  0.1399921E-004  0.5439504E+03  0.7818608E-02  0.1002904E+00
         -2   -1    0    0    0  501 -0.00000000000E+00  0.00000000000E+00  0.71777628094E+02  0.71777628139E+02  0.25500000000E-02 0. -1.
          2   -1    0    0  501    0  0.00000000000E+00 -0.00000000000E+00 -0.10305512293E+04  0.10305512293E+04  0.25500000000E-02 0.  1.
    5000001    1    1    2    0    0  0.13675078137E+03  0.94470963681E+02 -0.12712122430E+03  0.24477406900E+03  0.12700000000E+03 0.  0.
   -5000001    1    1    2    0    0 -0.13675078137E+03 -0.94470963681E+02 -0.83165237692E+03  0.85755478846E+03  0.12700000000E+03 0.  0.
<mgrwt>
<rscale>  0 0.54395045E+03</rscale>
<asrwt>0</asrwt>
<pdfrwt beam="1">  1        2 0.14722160E+00 0.54395045E+03</pdfrwt>
<pdfrwt beam="2">  1       -2 0.10253947E-01 0.54395045E+03</pdfrwt>
<totfact> 0.17796494E+03</totfact>
</mgrwt>
</event>
<event>
 4    1  0.1399921E-004  0.3231911E+03  0.7818608E-02  0.1074190E+00
         -2   -1    0    0    0  501 -0.00000000000E+00  0.00000000000E+00  0.10748696499E+03  0.10748696502E+03  0.25500000000E-02 0. -1.
          2   -1    0    0  501    0  0.00000000000E+00 -0.00000000000E+00 -0.24294227025E+03  0.24294227027E+03  0.25500000000E-02 0.  1.
    5000001    1    1    2    0    0  0.72235195241E+02  0.67566342324E+02 -0.83099697317E+02  0.18115654485E+03  0.12700000000E+03 0.  0.
   -5000001    1    1    2    0    0 -0.72235195241E+02 -0.67566342324E+02 -0.52355607945E+02  0.16927269044E+03  0.12700000000E+03 0.  0.
<mgrwt>
<rscale>  0 0.32319113E+03</rscale>
<asrwt>0</asrwt>
<pdfrwt beam="1">  1        2 0.34706038E-01 0.32319113E+03</pdfrwt>
<pdfrwt beam="2">  1       -2 0.15355281E-01 0.32319113E+03</pdfrwt>
<totfact> 0.49174634E+03</totfact>
</mgrwt>
</event>
<event>
 4    1  0.1399921E-004  0.3603119E+03  0.7818608E-02  0.1058460E+00
          2   -1    0    0  501    0  0.00000000000E+00  0.00000000000E+00  0.95039312250E+03  0.95039312250E+03  0.25500000000E-02 0.  1.
         -2   -1    0    0    0  501 -0.00000000000E+00 -0.00000000000E+00 -0.34150259920E+02  0.34150260016E+02  0.25500000000E-02 0. -1.
    5000001    1    1    2    0    0  0.59636363166E+01  0.12762312770E+03  0.45269450883E+03  0.48722124954E+03  0.12700000000E+03 0.  0.
   -5000001    1    1    2    0    0 -0.59636363166E+01 -0.12762312770E+03  0.46354835375E+03  0.49732213298E+03  0.12700000000E+03 0.  0.
<mgrwt>
<rscale>  0 0.36031193E+03</rscale>
<asrwt>0</asrwt>
<pdfrwt beam="1">  1        2 0.13577041E+00 0.36031193E+03</pdfrwt>
<pdfrwt beam="2">  1       -2 0.48786097E-02 0.36031193E+03</pdfrwt>
<totfact> 0.63769860E+03</totfact>
</mgrwt>
</event>
<event>
 4    1  0.1399921E-004  0.3610096E+03  0.7818608E-02  0.1058185E+00
         -2   -1    0    0    0  501 -0.00000000000E+00  0.00000000000E+00  0.18988500632E+02  0.18988500803E+02  0.25500000000E-02 0. -1.
          2   -1    0    0  501    0  0.00000000000E+00 -0.00000000000E+00 -0.17158793180E+04  0.17158793180E+04  0.25500000000E-02 0.  1.
    5000001    1    1    2    0    0  0.11237657086E+03 -0.61760739868E+02 -0.83317826732E+03  0.85250097232E+03  0.12700000000E+03 0.  0.
   -5000001    1    1    2    0    0 -0.11237657086E+03  0.61760739868E+02 -0.86371255004E+03  0.88236684648E+03  0.12700000000E+03 0.  0.
<mgrwt>
<rscale>  0 0.36100956E+03</rscale>
<asrwt>0</asrwt>
<pdfrwt beam="1">  1        2 0.24512552E+00 0.36100956E+03</pdfrwt>
<pdfrwt beam="2">  1       -2 0.27126441E-02 0.36100956E+03</pdfrwt>
<totfact> 0.60060489E+03</totfact>
</mgrwt>
</event>
<event>
 4    1  0.1399921E-004  0.4047831E+03  0.7818608E-02  0.1042136E+00
         -2   -1    0    0    0  501 -0.00000000000E+00  0.00000000000E+00  0.15801593590E+03  0.15801593592E+03  0.25500000000E-02 0. -1.
          2   -1    0    0  501    0  0.00000000000E+00 -0.00000000000E+00 -0.25922915221E+03  0.25922915222E+03  0.25500000000E-02 0.  1.
    5000001    1    1    2    0    0 -0.22593427424E+01 -0.15709205712E+03 -0.63244494997E+02  0.21168817914E+03  0.12700000000E+03 0.  0.
   -5000001    1    1    2    0    0  0.22593427424E+01  0.15709205712E+03 -0.37968721315E+02  0.20555690900E+03  0.12700000000E+03 0.  0.
<mgrwt>
<rscale>  0 0.40478309E+03</rscale>
<asrwt>0</asrwt>
<pdfrwt beam="1">  1        2 0.37032736E-01 0.40478309E+03</pdfrwt>
<pdfrwt beam="2">  1       -2 0.22573705E-01 0.40478309E+03</pdfrwt>
<totfact> 0.23848557E+03</totfact>
</mgrwt>
</event>
<event>
 4    1  0.1399921E-004  0.6297587E+03  0.7818608E-02  0.9845520E-01
          2   -1    0    0  501    0  0.00000000000E+00  0.00000000000E+00  0.67315943610E+03  0.67315943610E+03  0.25500000000E-02 0.  1.
         -2   -1    0    0    0  501 -0.00000000000E+00 -0.00000000000E+00 -0.14728904137E+03  0.14728904139E+03  0.25500000000E-02 0. -1.
    5000001    1    1    2    0    0 -0.49009110347E+02 -0.25428285655E+03  0.42751291771E+03  0.51571111956E+03  0.12700000000E+03 0.  0.
   -5000001    1    1    2    0    0  0.49009110347E+02  0.25428285655E+03  0.98357477022E+02  0.30473735793E+03  0.12700000000E+03 0.  0.
<mgrwt>
<rscale>  0 0.62975871E+03</rscale>
<asrwt>0</asrwt>
<pdfrwt beam="1">  1        2 0.96165635E-01 0.62975871E+03</pdfrwt>
<pdfrwt beam="2">  1       -2 0.21041291E-01 0.62975871E+03</pdfrwt>
<totfact> 0.92400769E+02</totfact>
</mgrwt>
</event>
<event>
 4    1  0.1399921E-004  0.3382394E+03  0.7818608E-02  0.1067548E+00
         -2   -1    0    0    0  501 -0.00000000000E+00  0.00000000000E+00  0.11949383476E+03  0.11949383478E+03  0.25500000000E-02 0. -1.
          2   -1    0    0  501    0  0.00000000000E+00 -0.00000000000E+00 -0.23935526405E+03  0.23935526406E+03  0.25500000000E-02 0.  1.
    5000001    1    1    2    0    0  0.13689684299E+02 -0.71435168670E+02  0.29980315230E+02  0.14939280465E+03  0.12700000000E+03 0.  0.
   -5000001    1    1    2    0    0 -0.13689684299E+02  0.71435168670E+02 -0.14984174452E+03  0.20945629420E+03  0.12700000000E+03 0.  0.
<mgrwt>
<rscale>  0 0.33823943E+03</rscale>
<asrwt>0</asrwt>
<pdfrwt beam="1">  1        2 0.34193609E-01 0.33823943E+03</pdfrwt>
<pdfrwt beam="2">  1       -2 0.17070548E-01 0.33823943E+03</pdfrwt>
<totfact> 0.41918087E+03</totfact>
</mgrwt>
</event>
<event>
 4    1  0.1399921E-004  0.3288892E+03  0.7818608E-02  0.1071629E+00
         -2   -1    0    0    0  501 -0.00000000000E+00  0.00000000000E+00  0.89543493096E+01  0.89543496727E+01  0.25500000000E-02 0. -1.
          2   -1    0    0  501    0  0.00000000000E+00 -0.00000000000E+00 -0.30199879653E+04  0.30199879653E+04  0.25500000000E-02 0.  1.
    5000001    1    1    2    0    0 -0.52560387528E+01  0.10433150530E+03 -0.15108771012E+04  0.15197997578E+04  0.12700000000E+03 0.  0.
   -5000001    1    1    2    0    0  0.52560387528E+01 -0.10433150530E+03 -0.15001565149E+04  0.15091425572E+04  0.12700000000E+03 0.  0.
<mgrwt>
<rscale>  0 0.32888921E+03</rscale>
<asrwt>0</asrwt>
<pdfrwt beam="1">  1        2 0.43142620E+00 0.32888921E+03</pdfrwt>
<pdfrwt beam="2">  1       -2 0.12791947E-02 0.32888921E+03</pdfrwt>
<totfact> 0.40218527E+03</totfact>
</mgrwt>
</event>
<event>
 4    1  0.1399921E-004  0.3817726E+03  0.7818608E-02  0.1050281E+00
         -2   -1    0    0    0  501 -0.00000000000E+00  0.00000000000E+00  0.50127834750E+02  0.50127834815E+02  0.25500000000E-02 0. -1.
          2   -1    0    0  501    0  0.00000000000E+00 -0.00000000000E+00 -0.72689311616E+03  0.72689311617E+03  0.25500000000E-02 0.  1.
    5000001    1    1    2    0    0 -0.10540389034E+02  0.14203641265E+03 -0.34817234219E+03  0.39703705392E+03  0.12700000000E+03 0.  0.
   -5000001    1    1    2    0    0  0.10540389034E+02 -0.14203641265E+03 -0.32859293922E+03  0.37998389706E+03  0.12700000000E+03 0.  0.
<mgrwt>
<rscale>  0 0.38177259E+03</rscale>
<asrwt>0</asrwt>
<pdfrwt beam="1">  1        2 0.10384187E+00 0.38177259E+03</pdfrwt>
<pdfrwt beam="2">  1       -2 0.71611197E-02 0.38177259E+03</pdfrwt>
<totfact> 0.49631871E+03</totfact>
</mgrwt>
</event>
<event>
 4    1  0.1399921E-004  0.6552917E+03  0.7818608E-02  0.9796900E-01
          2   -1    0    0  501    0  0.00000000000E+00  0.00000000000E+00  0.19712382107E+04  0.19712382107E+04  0.25500000000E-02 0.  1.
         -2   -1    0    0    0  501 -0.00000000000E+00 -0.00000000000E+00 -0.54459075952E+02  0.54459076012E+02  0.25500000000E-02 0. -1.
    5000001    1    1    2    0    0  0.25760544759E+03 -0.92053965775E+02  0.13541268590E+04  0.13873078424E+04  0.12700000000E+03 0.  0.
   -5000001    1    1    2    0    0 -0.25760544759E+03  0.92053965775E+02  0.56265227573E+03  0.63838944432E+03  0.12700000000E+03 0.  0.
<mgrwt>
<rscale>  0 0.65529173E+03</rscale>
<asrwt>0</asrwt>
<pdfrwt beam="1">  1        2 0.28160548E+00 0.65529173E+03</pdfrwt>
<pdfrwt beam="2">  1       -2 0.77798673E-02 0.65529173E+03</pdfrwt>
<totfact> 0.87504841E+02</totfact>
</mgrwt>
</event>
<event>
 4    1  0.1399921E-004  0.3235918E+03  0.7818608E-02  0.1074008E+00
          2   -1    0    0  501    0  0.00000000000E+00  0.00000000000E+00  0.36120093592E+02  0.36120093682E+02  0.25500000000E-02 0.  1.
         -2   -1    0    0    0  501 -0.00000000000E+00 -0.00000000000E+00 -0.72474647236E+03  0.72474647236E+03  0.25500000000E-02 0. -1.
    5000001    1    1    2    0    0  0.87168022048E+02 -0.78059681260E+01 -0.45925655551E+03  0.48446339488E+03  0.12700000000E+03 0.  0.
   -5000001    1    1    2    0    0 -0.87168022048E+02  0.78059681260E+01 -0.22936982326E+03  0.27640317116E+03  0.12700000000E+03 0.  0.
<mgrwt>
<rscale>  0 0.32359178E+03</rscale>
<asrwt>0</asrwt>
<pdfrwt beam="1">  1        2 0.51600138E-02 0.32359178E+03</pdfrwt>
<pdfrwt beam="2">  1       -2 0.10353520E+00 0.32359178E+03</pdfrwt>
<totfact> 0.11974353E+03</totfact>
</mgrwt>
</event>
<event>
 4    1  0.1399921E-004  0.3253246E+03  0.7818608E-02  0.1073225E+00
         -2   -1    0    0    0  501 -0.00000000000E+00  0.00000000000E+00  0.26747723761E+03  0.26747723762E+03  0.25500000000E-02 0. -1.
          2   -1    0    0  501    0  0.00000000000E+00 -0.00000000000E+00 -0.98920675455E+02  0.98920675488E+02  0.25500000000E-02 0.  1.
    5000001    1    1    2    0    0 -0.34286142228E+01  0.62039759262E+02  0.17486532676E+03  0.22487234074E+03  0.12700000000E+03 0.  0.
   -5000001    1    1    2    0    0  0.34286142228E+01 -0.62039759262E+02 -0.63087646072E+01  0.14152557237E+03  0.12700000000E+03 0.  0.
<mgrwt>
<rscale>  0 0.32532463E+03</rscale>
<asrwt>0</asrwt>
<pdfrwt beam="1">  1        2 0.14131525E-01 0.32532463E+03</pdfrwt>
<pdfrwt beam="2">  1       -2 0.38211033E-01 0.32532463E+03</pdfrwt>
<totfact> 0.27306258E+03</totfact>
</mgrwt>
</event>
<event>
 4    1  0.1399921E-004  0.4793774E+03  0.7818608E-02  0.1019306E+00
          2   -1    0    0  501    0  0.00000000000E+00  0.00000000000E+00  0.17517781493E+04  0.17517781493E+04  0.25500000000E-02 0.  1.
         -2   -1    0    0    0  501 -0.00000000000E+00 -0.00000000000E+00 -0.32795633996E+02  0.32795634095E+02  0.25500000000E-02 0. -1.
    5000001    1    1    2    0    0 -0.95841647423E+02 -0.17828441837E+03  0.78977450475E+03  0.82513254909E+03  0.12700000000E+03 0.  0.
   -5000001    1    1    2    0    0  0.95841647423E+02  0.17828441837E+03  0.92920801060E+03  0.95944123436E+03  0.12700000000E+03 0.  0.
<mgrwt>
<rscale>  0 0.47937741E+03</rscale>
<asrwt>0</asrwt>
<pdfrwt beam="1">  1        2 0.25025410E+00 0.47937741E+03</pdfrwt>
<pdfrwt beam="2">  1       -2 0.46850890E-02 0.47937741E+03</pdfrwt>
<totfact> 0.25142798E+03</totfact>
</mgrwt>
</event>
<event>
 4    1  0.1399921E-004  0.3538501E+03  0.7818608E-02  0.1061046E+00
         -2   -1    0    0    0  501 -0.00000000000E+00  0.00000000000E+00  0.38155294777E+02  0.38155294862E+02  0.25500000000E-02 0. -1.
          2   -1    0    0  501    0  0.00000000000E+00 -0.00000000000E+00 -0.82039654494E+03  0.82039654495E+03  0.25500000000E-02 0.  1.
    5000001    1    1    2    0    0  0.68384928086E+02  0.38336015007E+02 -0.16059101539E+03  0.21923645377E+03  0.12700000000E+03 0.  0.
   -5000001    1    1    2    0    0 -0.68384928086E+02 -0.38336015007E+02 -0.62165023477E+03  0.63931538604E+03  0.12700000000E+03 0.  0.
<mgrwt>
<rscale>  0 0.35385009E+03</rscale>
<asrwt>0</asrwt>
<pdfrwt beam="1">  1        2 0.11719950E+00 0.35385009E+03</pdfrwt>
<pdfrwt beam="2">  1       -2 0.54507569E-02 0.35385009E+03</pdfrwt>
<totfact> 0.65122136E+03</totfact>
</mgrwt>
</event>
<event>
 4    1  0.1399921E-004  0.3281820E+03  0.7818608E-02  0.1071944E+00
         -2   -1    0    0    0  501 -0.00000000000E+00  0.00000000000E+00  0.12534057313E+02  0.12534057572E+02  0.25500000000E-02 0. -1.
          2   -1    0    0  501    0  0.00000000000E+00 -0.00000000000E+00 -0.21482154760E+04  0.21482154760E+04  0.25500000000E-02 0.  1.
    5000001    1    1    2    0    0 -0.10109838715E+03 -0.23548245688E+02 -0.10983356502E+04  0.11105159181E+04  0.12700000000E+03 0.  0.
   -5000001    1    1    2    0    0  0.10109838715E+03  0.23548245688E+02 -0.10373457685E+04  0.10502336155E+04  0.12700000000E+03 0.  0.
<mgrwt>
<rscale>  0 0.32818200E+03</rscale>
<asrwt>0</asrwt>
<pdfrwt beam="1">  1        2 0.30688769E+00 0.32818200E+03</pdfrwt>
<pdfrwt beam="2">  1       -2 0.17905810E-02 0.32818200E+03</pdfrwt>
<totfact> 0.68102115E+03</totfact>
</mgrwt>
</event>
<event>
 4    1  0.1399921E-004  0.3317748E+03  0.7818608E-02  0.1070354E+00
          2   -1    0    0  501    0  0.00000000000E+00  0.00000000000E+00  0.25149813041E+03  0.25149813042E+03  0.25500000000E-02 0.  1.
         -2   -1    0    0    0  501 -0.00000000000E+00 -0.00000000000E+00 -0.10941883996E+03  0.10941883999E+03  0.25500000000E-02 0. -1.
    5000001    1    1    2    0    0  0.68516216882E+02  0.56723894378E+02  0.68889622015E+01  0.15520480008E+03  0.12700000000E+03 0.  0.
   -5000001    1    1    2    0    0 -0.68516216882E+02 -0.56723894378E+02  0.13519032825E+03  0.20571217033E+03  0.12700000000E+03 0.  0.
<mgrwt>
<rscale>  0 0.33177483E+03</rscale>
<asrwt>0</asrwt>
<pdfrwt beam="1">  1        2 0.35928305E-01 0.33177483E+03</pdfrwt>
<pdfrwt beam="2">  1       -2 0.15631263E-01 0.33177483E+03</pdfrwt>
<totfact> 0.46002939E+03</totfact>
</mgrwt>
</event>
<event>
 4    1  0.1399921E-004  0.3198834E+03  0.7818608E-02  0.1075703E+00
         -2   -1    0    0    0  501 -0.00000000000E+00  0.00000000000E+00  0.23376440117E+02  0.23376440256E+02  0.25500000000E-02 0. -1.
          2   -1    0    0  501    0  0.00000000000E+00 -0.00000000000E+00 -0.10943220988E+04  0.10943220988E+04  0.25500000000E-02 0.  1.
    5000001    1    1    2    0    0  0.94067831957E+02 -0.14964276981E+02 -0.46739037628E+03  0.49361467810E+03  0.12700000000E+03 0.  0.
   -5000001    1    1    2    0    0 -0.94067831957E+02  0.14964276981E+02 -0.60355528240E+03  0.62408386096E+03  0.12700000000E+03 0.  0.
<mgrwt>
<rscale>  0 0.31988345E+03</rscale>
<asrwt>0</asrwt>
<pdfrwt beam="1">  1        2 0.15633170E+00 0.31988345E+03</pdfrwt>
<pdfrwt beam="2">  1       -2 0.33394921E-02 0.31988345E+03</pdfrwt>
<totfact> 0.92864133E+03</totfact>
</mgrwt>
</event>
<event>
 4    1  0.1399921E-004  0.3534037E+03  0.7818608E-02  0.1061227E+00
         -2   -1    0    0    0  501 -0.00000000000E+00  0.00000000000E+00  0.70187456821E+02  0.70187456867E+02  0.25500000000E-02 0. -1.
          2   -1    0    0  501    0  0.00000000000E+00 -0.00000000000E+00 -0.44485924835E+03  0.44485924836E+03  0.25500000000E-02 0.  1.
    5000001    1    1    2    0    0  0.37981895191E+02  0.11675923087E+03 -0.19372134687E+03  0.26216846223E+03  0.12700000000E+03 0.  0.
   -5000001    1    1    2    0    0 -0.37981895191E+02 -0.11675923087E+03 -0.18095044466E+03  0.25287824299E+03  0.12700000000E+03 0.  0.
<mgrwt>
<rscale>  0 0.35340367E+03</rscale>
<asrwt>0</asrwt>
<pdfrwt beam="1">  1        2 0.63551320E-01 0.35340367E+03</pdfrwt>
<pdfrwt beam="2">  1       -2 0.10026780E-01 0.35340367E+03</pdfrwt>
<totfact> 0.51128120E+03</totfact>
</mgrwt>
</event>
<event>
 4    1  0.1399921E-004  0.4956885E+03  0.7818608E-02  0.1014910E+00
          2   -1    0    0  501    0  0.00000000000E+00  0.00000000000E+00  0.31843062602E+03  0.31843062603E+03  0.25500000000E-02 0.  1.
         -2   -1    0    0    0  501 -0.00000000000E+00 -0.00000000000E+00 -0.19290469883E+03  0.19290469885E+03  0.25500000000E-02 0. -1.
    5000001    1    1    2    0    0  0.53243128470E+02 -0.19019149097E+03 -0.19050879684E+02  0.23558346713E+03  0.12700000000E+03 0.  0.
   -5000001    1    1    2    0    0 -0.53243128470E+02  0.19019149097E+03  0.14457680688E+03  0.27575185775E+03  0.12700000000E+03 0.  0.
<mgrwt>
<rscale>  0 0.49568847E+03</rscale>
<asrwt>0</asrwt>
<pdfrwt beam="1">  1        2 0.45490089E-01 0.49568847E+03</pdfrwt>
<pdfrwt beam="2">  1       -2 0.27557815E-01 0.49568847E+03</pdfrwt>
<totfact> 0.13360253E+03</totfact>
</mgrwt>
</event>
<event>
 4    1  0.1399921E-004  0.3492214E+03  0.7818608E-02  0.1062935E+00
          2   -1    0    0  501    0  0.00000000000E+00  0.00000000000E+00  0.25041007744E+03  0.25041007745E+03  0.25500000000E-02 0.  1.
         -2   -1    0    0    0  501 -0.00000000000E+00 -0.00000000000E+00 -0.12175590108E+03  0.12175590110E+03  0.25500000000E-02 0. -1.
    5000001    1    1    2    0    0 -0.23459026892E+01  0.11960304853E+03  0.71825886062E+02  0.18867525112E+03  0.12700000000E+03 0.  0.
   -5000001    1    1    2    0    0  0.23459026892E+01 -0.11960304853E+03  0.56828290303E+02  0.18349072744E+03  0.12700000000E+03 0.  0.
<mgrwt>
<rscale>  0 0.34922145E+03</rscale>
<asrwt>0</asrwt>
<pdfrwt beam="1">  1        2 0.35772867E-01 0.34922145E+03</pdfrwt>
<pdfrwt beam="2">  1       -2 0.17393701E-01 0.34922145E+03</pdfrwt>
<totfact> 0.38685266E+03</totfact>
</mgrwt>
</event>
<event>
 4    1  0.1399921E-004  0.6615975E+03  0.7818608E-02  0.9785257E-01
          2   -1    0    0  501    0  0.00000000000E+00  0.00000000000E+00  0.26447865670E+04  0.26447865670E+04  0.25500000000E-02 0.  1.
         -2   -1    0    0    0  501 -0.00000000000E+00 -0.00000000000E+00 -0.41374915910E+02  0.41374915989E+02  0.25500000000E-02 0. -1.
    5000001    1    1    2    0    0  0.20031956081E+03 -0.21380858831E+03  0.95110414136E+03  0.10032796851E+04  0.12700000000E+03 0.  0.
   -5000001    1    1    2    0    0 -0.20031956081E+03  0.21380858831E+03  0.16523075098E+04  0.16828817979E+04  0.12700000000E+03 0.  0.
<mgrwt>
<rscale>  0 0.66159753E+03</rscale>
<asrwt>0</asrwt>
<pdfrwt beam="1">  1        2 0.37782679E+00 0.66159753E+03</pdfrwt>
<pdfrwt beam="2">  1       -2 0.59107002E-02 0.66159753E+03</pdfrwt>
<totfact> 0.61277139E+02</totfact>
</mgrwt>
</event>
<event>
 4    1  0.1399921E-004  0.7254198E+03  0.7818608E-02  0.9674722E-01
         -2   -1    0    0    0  501 -0.00000000000E+00  0.00000000000E+00  0.20568103632E+03  0.20568103634E+03  0.25500000000E-02 0. -1.
          2   -1    0    0  501    0  0.00000000000E+00 -0.00000000000E+00 -0.63962375188E+03  0.63962375188E+03  0.25500000000E-02 0.  1.
    5000001    1    1    2    0    0 -0.92186484039E+02  0.31829898634E+03 -0.30430300031E+03  0.46748466129E+03  0.12700000000E+03 0.  0.
   -5000001    1    1    2    0    0  0.92186484039E+02 -0.31829898634E+03 -0.12963971525E+03  0.37782012693E+03  0.12700000000E+03 0.  0.
<mgrwt>
<rscale>  0 0.72541981E+03</rscale>
<asrwt>0</asrwt>
<pdfrwt beam="1">  1        2 0.91374821E-01 0.72541981E+03</pdfrwt>
<pdfrwt beam="2">  1       -2 0.29383006E-01 0.72541981E+03</pdfrwt>
<totfact> 0.53772505E+02</totfact>
</mgrwt>
</event>
<event>
 4    1  0.1399921E-004  0.3173486E+03  0.7818608E-02  0.1076876E+00
         -2   -1    0    0    0  501 -0.00000000000E+00  0.00000000000E+00  0.14694020631E+02  0.14694020852E+02  0.25500000000E-02 0. -1.
          2   -1    0    0  501    0  0.00000000000E+00 -0.00000000000E+00 -0.17134545074E+04  0.17134545074E+04  0.25500000000E-02 0.  1.
    5000001    1    1    2    0    0  0.48791497535E+02  0.79405476866E+02 -0.74567137592E+03  0.76212901851E+03  0.12700000000E+03 0.  0.
   -5000001    1    1    2    0    0 -0.48791497535E+02 -0.79405476866E+02 -0.95308911088E+03  0.96601950978E+03  0.12700000000E+03 0.  0.
<mgrwt>
<rscale>  0 0.31734862E+03</rscale>
<asrwt>0</asrwt>
<pdfrwt beam="1">  1        2 0.24477909E+00 0.31734862E+03</pdfrwt>
<pdfrwt beam="2">  1       -2 0.20991469E-02 0.31734862E+03</pdfrwt>
<totfact> 0.88073333E+03</totfact>
</mgrwt>
</event>
<event>
 4    1  0.1399921E-004  0.2716404E+03  0.7818608E-02  0.1100344E+00
         -2   -1    0    0    0  501 -0.00000000000E+00  0.00000000000E+00  0.11121828001E+02  0.11121828294E+02  0.25500000000E-02 0. -1.
          2   -1    0    0  501    0  0.00000000000E+00 -0.00000000000E+00 -0.16586417300E+04  0.16586417300E+04  0.25500000000E-02 0.  1.
    5000001    1    1    2    0    0 -0.30844730540E+02  0.36664860231E+02 -0.85286496345E+03  0.86359907090E+03  0.12700000000E+03 0.  0.
   -5000001    1    1    2    0    0  0.30844730540E+02 -0.36664860231E+02 -0.79465493851E+03  0.80616448736E+03  0.12700000000E+03 0.  0.
<mgrwt>
<rscale>  0 0.27164041E+03</rscale>
<asrwt>0</asrwt>
<pdfrwt beam="1">  1        2 0.23694866E+00 0.27164041E+03</pdfrwt>
<pdfrwt beam="2">  1       -2 0.15888337E-02 0.27164041E+03</pdfrwt>
<totfact> 0.14078522E+04</totfact>
</mgrwt>
</event>
<event>
 4    1  0.1399921E-004  0.3597942E+03  0.7818608E-02  0.1058665E+00
         -2   -1    0    0    0  501 -0.00000000000E+00  0.00000000000E+00  0.11218873252E+03  0.11218873254E+03  0.25500000000E-02 0. -1.
          2   -1    0    0  501    0  0.00000000000E+00 -0.00000000000E+00 -0.28846887678E+03  0.28846887680E+03  0.25500000000E-02 0.  1.
    5000001    1    1    2    0    0  0.88420277143E+02  0.90668336601E+02 -0.72587258601E+02  0.19348592399E+03  0.12700000000E+03 0.  0.
   -5000001    1    1    2    0    0 -0.88420277143E+02 -0.90668336601E+02 -0.10369288567E+03  0.20717168535E+03  0.12700000000E+03 0.  0.
<mgrwt>
<rscale>  0 0.35979415E+03</rscale>
<asrwt>0</asrwt>
<pdfrwt beam="1">  1        2 0.41209839E-01 0.35979415E+03</pdfrwt>
<pdfrwt beam="2">  1       -2 0.16026962E-01 0.35979415E+03</pdfrwt>
<totfact> 0.38077364E+03</totfact>
</mgrwt>
</event>
<event>
 4    1  0.1399921E-004  0.4868957E+03  0.7818608E-02  0.1017257E+00
          2   -1    0    0  501    0  0.00000000000E+00  0.00000000000E+00  0.19240758236E+04  0.19240758236E+04  0.25500000000E-02 0.  1.
         -2   -1    0    0    0  501 -0.00000000000E+00 -0.00000000000E+00 -0.30802768689E+02  0.30802768795E+02  0.25500000000E-02 0. -1.
    5000001    1    1    2    0    0 -0.67677762915E+02 -0.19328361098E+03  0.10856633603E+04  0.11120848734E+04  0.12700000000E+03 0.  0.
   -5000001    1    1    2    0    0  0.67677762915E+02  0.19328361098E+03  0.80760969469E+03  0.84279371903E+03  0.12700000000E+03 0.  0.
<mgrwt>
<rscale>  0 0.48689573E+03</rscale>
<asrwt>0</asrwt>
<pdfrwt beam="1">  1        2 0.27486788E+00 0.48689573E+03</pdfrwt>
<pdfrwt beam="2">  1       -2 0.44003970E-02 0.48689573E+03</pdfrwt>
<totfact> 0.22695984E+03</totfact>
</mgrwt>
</event>
<event>
 4    1  0.1399921E-004  0.3146159E+03  0.7818608E-02  0.1078154E+00
         -2   -1    0    0    0  501 -0.00000000000E+00  0.00000000000E+00  0.43097280220E+02  0.43097280295E+02  0.25500000000E-02 0. -1.
          2   -1    0    0  501    0  0.00000000000E+00 -0.00000000000E+00 -0.57418449960E+03  0.57418449961E+03  0.25500000000E-02 0.  1.
    5000001    1    1    2    0    0 -0.25781228531E+02  0.66844415207E+02 -0.38135154025E+03  0.40827790148E+03  0.12700000000E+03 0.  0.
   -5000001    1    1    2    0    0  0.25781228531E+02 -0.66844415207E+02 -0.14973567913E+03  0.20900387842E+03  0.12700000000E+03 0.  0.
<mgrwt>
<rscale>  0 0.31461589E+03</rscale>
<asrwt>0</asrwt>
<pdfrwt beam="1">  1        2 0.82026353E-01 0.31461589E+03</pdfrwt>
<pdfrwt beam="2">  1       -2 0.61567547E-02 0.31461589E+03</pdfrwt>
<totfact> 0.82371079E+03</totfact>
</mgrwt>
</event>
<event>
 4    1  0.1399921E-004  0.3525162E+03  0.7818608E-02  0.1061587E+00
         -2   -1    0    0    0  501 -0.00000000000E+00  0.00000000000E+00  0.15567060503E+02  0.15567060711E+02  0.25500000000E-02 0. -1.
          2   -1    0    0  501    0  0.00000000000E+00 -0.00000000000E+00 -0.19956832128E+04  0.19956832128E+04  0.25500000000E-02 0.  1.
    5000001    1    1    2    0    0 -0.66494493307E+01  0.99646370533E+02 -0.13920490801E+04  0.14013933266E+04  0.12700000000E+03 0.  0.
   -5000001    1    1    2    0    0  0.66494493307E+01 -0.99646370533E+02 -0.58806707220E+03  0.60985694695E+03  0.12700000000E+03 0.  0.
<mgrwt>
<rscale>  0 0.35251622E+03</rscale>
<asrwt>0</asrwt>
<pdfrwt beam="1">  1        2 0.28509744E+00 0.35251622E+03</pdfrwt>
<pdfrwt beam="2">  1       -2 0.22238671E-02 0.35251622E+03</pdfrwt>
<totfact> 0.58732779E+03</totfact>
</mgrwt>
</event>
<event>
 4    1  0.1399921E-004  0.3966027E+03  0.7818608E-02  0.1044962E+00
          2   -1    0    0  501    0  0.00000000000E+00  0.00000000000E+00  0.10282931312E+04  0.10282931312E+04  0.25500000000E-02 0.  1.
         -2   -1    0    0    0  501 -0.00000000000E+00 -0.00000000000E+00 -0.38241459327E+02  0.38241459412E+02  0.25500000000E-02 0. -1.
    5000001    1    1    2    0    0  0.84244735012E+02 -0.74813222075E+02  0.77058749609E+03  0.78906798358E+03  0.12700000000E+03 0.  0.
   -5000001    1    1    2    0    0 -0.84244735012E+02  0.74813222075E+02  0.21946417582E+03  0.27746660708E+03  0.12700000000E+03 0.  0.
<mgrwt>
<rscale>  0 0.39660272E+03</rscale>
<asrwt>0</asrwt>
<pdfrwt beam="1">  1        2 0.14689903E+00 0.39660272E+03</pdfrwt>
<pdfrwt beam="2">  1       -2 0.54630651E-02 0.39660272E+03</pdfrwt>
<totfact> 0.48189567E+03</totfact>
</mgrwt>
</event>
<event>
 4    1  0.1399921E-004  0.3779406E+03  0.7818608E-02  0.1051698E+00
          2   -1    0    0  501    0  0.00000000000E+00  0.00000000000E+00  0.27060751133E+03  0.27060751134E+03  0.25500000000E-02 0.  1.
         -2   -1    0    0    0  501 -0.00000000000E+00 -0.00000000000E+00 -0.13196149655E+03  0.13196149657E+03  0.25500000000E-02 0. -1.
    5000001    1    1    2    0    0  0.12690252923E+03 -0.58155011552E+02  0.79678408124E+02  0.20485093608E+03  0.12700000000E+03 0.  0.
   -5000001    1    1    2    0    0 -0.12690252923E+03  0.58155011552E+02  0.58967606654E+02  0.19771807183E+03  0.12700000000E+03 0.  0.
<mgrwt>
<rscale>  0 0.37794059E+03</rscale>
<asrwt>0</asrwt>
<pdfrwt beam="1">  1        2 0.38658216E-01 0.37794059E+03</pdfrwt>
<pdfrwt beam="2">  1       -2 0.18851642E-01 0.37794059E+03</pdfrwt>
<totfact> 0.31049725E+03</totfact>
</mgrwt>
</event>
<event>
 4    1  0.1399921E-004  0.3475476E+03  0.7818608E-02  0.1063626E+00
         -2   -1    0    0    0  501 -0.00000000000E+00  0.00000000000E+00  0.13790847792E+02  0.13790848028E+02  0.25500000000E-02 0. -1.
          2   -1    0    0  501    0  0.00000000000E+00 -0.00000000000E+00 -0.21896643509E+04  0.21896643509E+04  0.25500000000E-02 0.  1.
    5000001    1    1    2    0    0 -0.11097520970E+02  0.99234151464E+02 -0.68208910537E+03  0.70096014113E+03  0.12700000000E+03 0.  0.
   -5000001    1    1    2    0    0  0.11097520970E+02 -0.99234151464E+02 -0.14937843978E+04  0.15024950578E+04  0.12700000000E+03 0.  0.
<mgrwt>
<rscale>  0 0.34754757E+03</rscale>
<asrwt>0</asrwt>
<pdfrwt beam="1">  1        2 0.31280897E+00 0.34754757E+03</pdfrwt>
<pdfrwt beam="2">  1       -2 0.19701225E-02 0.34754757E+03</pdfrwt>
<totfact> 0.56413994E+03</totfact>
</mgrwt>
</event>
<event>
 4    1  0.1399921E-004  0.3546368E+03  0.7818608E-02  0.1060728E+00
          2   -1    0    0  501    0  0.00000000000E+00  0.00000000000E+00  0.22158926338E+04  0.22158926338E+04  0.25500000000E-02 0.  1.
         -2   -1    0    0    0  501 -0.00000000000E+00 -0.00000000000E+00 -0.14189229257E+02  0.14189229486E+02  0.25500000000E-02 0. -1.
    5000001    1    1    2    0    0 -0.97471245499E+02  0.12708431622E+02  0.15735528664E+04  0.15817268321E+04  0.12700000000E+03 0.  0.
   -5000001    1    1    2    0    0  0.97471245499E+02 -0.12708431622E+02  0.62815053806E+03  0.64835503114E+03  0.12700000000E+03 0.  0.
<mgrwt>
<rscale>  0 0.35463677E+03</rscale>
<asrwt>0</asrwt>
<pdfrwt beam="1">  1        2 0.31655568E+00 0.35463677E+03</pdfrwt>
<pdfrwt beam="2">  1       -2 0.20270354E-02 0.35463677E+03</pdfrwt>
<totfact> 0.52489190E+03</totfact>
</mgrwt>
</event>
<event>
 4    1  0.1399921E-004  0.2956970E+03  0.7818608E-02  0.1087412E+00
         -2   -1    0    0    0  501 -0.00000000000E+00  0.00000000000E+00  0.43112744134E+02  0.43112744210E+02  0.25500000000E-02 0. -1.
          2   -1    0    0  501    0  0.00000000000E+00 -0.00000000000E+00 -0.50702350302E+03  0.50702350302E+03  0.25500000000E-02 0.  1.
    5000001    1    1    2    0    0  0.33687527120E+02  0.67640294057E+02 -0.22361105623E+03  0.26803164614E+03  0.12700000000E+03 0.  0.
   -5000001    1    1    2    0    0 -0.33687527120E+02 -0.67640294057E+02 -0.24029970266E+03  0.28210460110E+03  0.12700000000E+03 0.  0.
<mgrwt>
<rscale>  0 0.29569697E+03</rscale>
<asrwt>0</asrwt>
<pdfrwt beam="1">  1        2 0.72431925E-01 0.29569697E+03</pdfrwt>
<pdfrwt beam="2">  1       -2 0.61589638E-02 0.29569697E+03</pdfrwt>
<totfact> 0.94475556E+03</totfact>
</mgrwt>
</event>
<event>
 4    1  0.1399921E-004  0.2692036E+03  0.7818608E-02  0.1101736E+00
         -2   -1    0    0    0  501 -0.00000000000E+00  0.00000000000E+00  0.16494249916E+02  0.16494250113E+02  0.25500000000E-02 0. -1.
          2   -1    0    0  501    0  0.00000000000E+00 -0.00000000000E+00 -0.10984215735E+04  0.10984215735E+04  0.25500000000E-02 0.  1.
    5000001    1    1    2    0    0 -0.24908443995E+01 -0.44229329741E+02 -0.51976396380E+03  0.53688547753E+03  0.12700000000E+03 0.  0.
   -5000001    1    1    2    0    0  0.24908443995E+01  0.44229329741E+02 -0.56216335981E+03  0.57803034611E+03  0.12700000000E+03 0.  0.
<mgrwt>
<rscale>  0 0.26920357E+03</rscale>
<asrwt>0</asrwt>
<pdfrwt beam="1">  1        2 0.15691732E+00 0.26920357E+03</pdfrwt>
<pdfrwt beam="2">  1       -2 0.23563221E-02 0.26920357E+03</pdfrwt>
<totfact> 0.15435410E+04</totfact>
</mgrwt>
</event>
<event>
 4    1  0.1399921E-004  0.6972059E+03  0.7818608E-02  0.9722022E-01
         -2   -1    0    0    0  501 -0.00000000000E+00  0.00000000000E+00  0.41009360496E+03  0.41009360497E+03  0.25500000000E-02 0. -1.
          2   -1    0    0  501    0  0.00000000000E+00 -0.00000000000E+00 -0.29633241504E+03  0.29633241505E+03  0.25500000000E-02 0.  1.
    5000001    1    1    2    0    0  0.13358380017E+03  0.20645575581E+03  0.27164213409E+03  0.38779770473E+03  0.12700000000E+03 0.  0.
   -5000001    1    1    2    0    0 -0.13358380017E+03 -0.20645575581E+03 -0.15788094416E+03  0.31862831529E+03  0.12700000000E+03 0.  0.
<mgrwt>
<rscale>  0 0.69720593E+03</rscale>
<asrwt>0</asrwt>
<pdfrwt beam="1">  1        2 0.42333202E-01 0.69720593E+03</pdfrwt>
<pdfrwt beam="2">  1       -2 0.58584800E-01 0.69720593E+03</pdfrwt>
<totfact> 0.33223442E+02</totfact>
</mgrwt>
</event>
<event>
 4    1  0.1399921E-004  0.3200563E+03  0.7818608E-02  0.1075623E+00
         -2   -1    0    0    0  501 -0.00000000000E+00  0.00000000000E+00  0.14233474159E+03  0.14233474162E+03  0.25500000000E-02 0. -1.
          2   -1    0    0  501    0  0.00000000000E+00 -0.00000000000E+00 -0.17992094642E+03  0.17992094643E+03  0.25500000000E-02 0.  1.
    5000001    1    1    2    0    0  0.10716693581E+02  0.94279811148E+02  0.31851198399E+01  0.15856442003E+03  0.12700000000E+03 0.  0.
   -5000001    1    1    2    0    0 -0.10716693581E+02 -0.94279811148E+02 -0.40771324662E+02  0.16369126802E+03  0.12700000000E+03 0.  0.
<mgrwt>
<rscale>  0 0.32005625E+03</rscale>
<asrwt>0</asrwt>
<pdfrwt beam="1">  1        2 0.25702992E-01 0.32005625E+03</pdfrwt>
<pdfrwt beam="2">  1       -2 0.20333535E-01 0.32005625E+03</pdfrwt>
<totfact> 0.42607955E+03</totfact>
</mgrwt>
</event>
<event>
 4    1  0.1399921E-004  0.8578469E+03  0.7818608E-02  0.9479865E-01
          2   -1    0    0  501    0  0.00000000000E+00  0.00000000000E+00  0.78715465597E+03  0.78715465597E+03  0.25500000000E-02 0.  1.
         -2   -1    0    0    0  501 -0.00000000000E+00 -0.00000000000E+00 -0.23372194722E+03  0.23372194723E+03  0.25500000000E-02 0. -1.
    5000001    1    1    2    0    0 -0.29864665834E+03 -0.63229774017E+02  0.60188081164E+03  0.68671489155E+03  0.12700000000E+03 0.  0.
   -5000001    1    1    2    0    0  0.29864665834E+03  0.63229774017E+02 -0.48448102885E+02  0.33416171165E+03  0.12700000000E+03 0.  0.
<mgrwt>
<rscale>  0 0.85784688E+03</rscale>
<asrwt>0</asrwt>
<pdfrwt beam="1">  1        2 0.11245067E+00 0.85784688E+03</pdfrwt>
<pdfrwt beam="2">  1       -2 0.33388850E-01 0.85784688E+03</pdfrwt>
<totfact> 0.32585296E+02</totfact>
</mgrwt>
</event>
<event>
 4    1  0.1399921E-004  0.6789989E+03  0.7818608E-02  0.9753837E-01
          2   -1    0    0  501    0  0.00000000000E+00  0.00000000000E+00  0.66014004183E+03  0.66014004183E+03  0.25500000000E-02 0.  1.
         -2   -1    0    0    0  501 -0.00000000000E+00 -0.00000000000E+00 -0.17459911043E+03  0.17459911045E+03  0.25500000000E-02 0. -1.
    5000001    1    1    2    0    0  0.26162002192E+02 -0.31093912088E+03  0.19114761472E+03  0.38734222319E+03  0.12700000000E+03 0.  0.
   -5000001    1    1    2    0    0 -0.26162002192E+02  0.31093912088E+03  0.29439331668E+03  0.44739692909E+03  0.12700000000E+03 0.  0.
<mgrwt>
<rscale>  0 0.67899886E+03</rscale>
<asrwt>0</asrwt>
<pdfrwt beam="1">  1        2 0.94305721E-01 0.67899886E+03</pdfrwt>
<pdfrwt beam="2">  1       -2 0.24942730E-01 0.67899886E+03</pdfrwt>
<totfact> 0.69863647E+02</totfact>
</mgrwt>
</event>
<event>
 4    1  0.1399921E-004  0.6438499E+03  0.7818608E-02  0.9818388E-01
          2   -1    0    0  501    0  0.00000000000E+00  0.00000000000E+00  0.71010562123E+03  0.71010562124E+03  0.25500000000E-02 0.  1.
         -2   -1    0    0    0  501 -0.00000000000E+00 -0.00000000000E+00 -0.14594404511E+03  0.14594404514E+03  0.25500000000E-02 0. -1.
    5000001    1    1    2    0    0  0.23241555835E+03  0.76490970437E+02  0.50312243186E+03  0.57369769196E+03  0.12700000000E+03 0.  0.
   -5000001    1    1    2    0    0 -0.23241555835E+03 -0.76490970437E+02  0.61039144260E+02  0.28235197441E+03  0.12700000000E+03 0.  0.
<mgrwt>
<rscale>  0 0.64384994E+03</rscale>
<asrwt>0</asrwt>
<pdfrwt beam="1">  1        2 0.10144366E+00 0.64384994E+03</pdfrwt>
<pdfrwt beam="2">  1       -2 0.20849149E-01 0.64384994E+03</pdfrwt>
<totfact> 0.87940258E+02</totfact>
</mgrwt>
</event>
<event>
 4    1  0.1399921E-004  0.3637418E+03  0.7818608E-02  0.1057112E+00
         -2   -1    0    0    0  501 -0.00000000000E+00  0.00000000000E+00  0.45588462426E+02  0.45588462498E+02  0.25500000000E-02 0. -1.
          2   -1    0    0  501    0  0.00000000000E+00 -0.00000000000E+00 -0.72555692568E+03  0.72555692568E+03  0.25500000000E-02 0.  1.
    5000001    1    1    2    0    0 -0.32371232502E+02 -0.12499646680E+03 -0.30476284446E+03  0.35451573276E+03  0.12700000000E+03 0.  0.
   -5000001    1    1    2    0    0  0.32371232502E+02  0.12499646680E+03 -0.37520561879E+03  0.41662965542E+03  0.12700000000E+03 0.  0.
<mgrwt>
<rscale>  0 0.36374180E+03</rscale>
<asrwt>0</asrwt>
<pdfrwt beam="1">  1        2 0.10365098E+00 0.36374180E+03</pdfrwt>
<pdfrwt beam="2">  1       -2 0.65126379E-02 0.36374180E+03</pdfrwt>
<totfact> 0.57619605E+03</totfact>
</mgrwt>
</event>
<event>
 4    1  0.1399921E-004  0.4283360E+03  0.7818608E-02  0.1034387E+00
          2   -1    0    0  501    0  0.00000000000E+00  0.00000000000E+00  0.31569238312E+04  0.31569238312E+04  0.25500000000E-02 0.  1.
         -2   -1    0    0    0  501 -0.00000000000E+00 -0.00000000000E+00 -0.14529314256E+02  0.14529314479E+02  0.25500000000E-02 0. -1.
    5000001    1    1    2    0    0 -0.15024660066E+03 -0.82109827991E+02  0.17234549152E+04  0.17365891597E+04  0.12700000000E+03 0.  0.
   -5000001    1    1    2    0    0  0.15024660066E+03  0.82109827991E+02  0.14189396018E+04  0.14348639860E+04  0.12700000000E+03 0.  0.
<mgrwt>
<rscale>  0 0.42833603E+03</rscale>
<asrwt>0</asrwt>
<pdfrwt beam="1">  1        2 0.45098931E+00 0.42833603E+03</pdfrwt>
<pdfrwt beam="2">  1       -2 0.20756155E-02 0.42833603E+03</pdfrwt>
<totfact> 0.16433151E+03</totfact>
</mgrwt>
</event>
<event>
 4    1  0.1399921E-004  0.3577561E+03  0.7818608E-02  0.1059476E+00
          2   -1    0    0  501    0  0.00000000000E+00  0.00000000000E+00  0.16615243504E+04  0.16615243504E+04  0.25500000000E-02 0.  1.
         -2   -1    0    0    0  501 -0.00000000000E+00 -0.00000000000E+00 -0.19257828720E+02  0.19257828889E+02  0.25500000000E-02 0. -1.
    5000001    1    1    2    0    0 -0.81490230306E+02 -0.76113806108E+02  0.10964602254E+04  0.11094088493E+04  0.12700000000E+03 0.  0.
   -5000001    1    1    2    0    0  0.81490230306E+02  0.76113806108E+02  0.54580629627E+03  0.57137332994E+03  0.12700000000E+03 0.  0.
<mgrwt>
<rscale>  0 0.35775607E+03</rscale>
<asrwt>0</asrwt>
<pdfrwt beam="1">  1        2 0.23736059E+00 0.35775607E+03</pdfrwt>
<pdfrwt beam="2">  1       -2 0.27511188E-02 0.35775607E+03</pdfrwt>
<totfact> 0.62595911E+03</totfact>
</mgrwt>
</event>
<event>
 4    1  0.1399921E-004  0.3236074E+03  0.7818608E-02  0.1074001E+00
         -2   -1    0    0    0  501 -0.00000000000E+00  0.00000000000E+00  0.14900256372E+02  0.14900256590E+02  0.25500000000E-02 0. -1.
          2   -1    0    0  501    0  0.00000000000E+00 -0.00000000000E+00 -0.17570465366E+04  0.17570465366E+04  0.25500000000E-02 0.  1.
    5000001    1    1    2    0    0 -0.59490327017E+02 -0.80240548330E+02 -0.91811220919E+03  0.93222136495E+03  0.12700000000E+03 0.  0.
   -5000001    1    1    2    0    0  0.59490327017E+02  0.80240548330E+02 -0.82403407100E+03  0.83972542821E+03  0.12700000000E+03 0.  0.
<mgrwt>
<rscale>  0 0.32360744E+03</rscale>
<asrwt>0</asrwt>
<pdfrwt beam="1">  1        2 0.25100652E+00 0.32360744E+03</pdfrwt>
<pdfrwt beam="2">  1       -2 0.21286092E-02 0.32360744E+03</pdfrwt>
<totfact> 0.82115002E+03</totfact>
</mgrwt>
</event>
<event>
 4    1  0.1399921E-004  0.3259110E+03  0.7818608E-02  0.1072961E+00
         -2   -1    0    0    0  501 -0.00000000000E+00  0.00000000000E+00  0.47233145939E+02  0.47233146007E+02  0.25500000000E-02 0. -1.
          2   -1    0    0  501    0  0.00000000000E+00 -0.00000000000E+00 -0.56220042837E+03  0.56220042838E+03  0.25500000000E-02 0.  1.
    5000001    1    1    2    0    0 -0.93096173012E+02 -0.40234059160E+02 -0.27959466408E+03  0.32340045319E+03  0.12700000000E+03 0.  0.
   -5000001    1    1    2    0    0  0.93096173012E+02  0.40234059160E+02 -0.23537261835E+03  0.28603312119E+03  0.12700000000E+03 0.  0.
<mgrwt>
<rscale>  0 0.32591100E+03</rscale>
<asrwt>0</asrwt>
<pdfrwt beam="1">  1        2 0.80314343E-01 0.32591100E+03</pdfrwt>
<pdfrwt beam="2">  1       -2 0.67475926E-02 0.32591100E+03</pdfrwt>
<totfact> 0.73300174E+03</totfact>
</mgrwt>
</event>
<event>
 4    1  0.1399921E-004  0.5546965E+03  0.7818608E-02  0.1000413E+00
          2   -1    0    0  501    0  0.00000000000E+00  0.00000000000E+00  0.25224124639E+04  0.25224124639E+04  0.25500000000E-02 0.  1.
         -2   -1    0    0    0  501 -0.00000000000E+00 -0.00000000000E+00 -0.30495432903E+02  0.30495433010E+02  0.25500000000E-02 0. -1.
    5000001    1    1    2    0    0  0.14225800570E+03  0.63748015172E+02  0.36677811408E+03  0.41827781987E+03  0.12700000000E+03 0.  0.
   -5000001    1    1    2    0    0 -0.14225800570E+03 -0.63748015172E+02  0.21251389169E+04  0.21346300770E+04  0.12700000000E+03 0.  0.
<mgrwt>
<rscale>  0 0.55469653E+03</rscale>
<asrwt>0</asrwt>
<pdfrwt beam="1">  1        2 0.36034479E+00 0.55469653E+03</pdfrwt>
<pdfrwt beam="2">  1       -2 0.43564885E-02 0.55469653E+03</pdfrwt>
<totfact> 0.11481105E+03</totfact>
</mgrwt>
</event>
<event>
 4    1  0.1399921E-004  0.3918623E+03  0.7818608E-02  0.1046634E+00
         -2   -1    0    0    0  501 -0.00000000000E+00  0.00000000000E+00  0.99054165533E+02  0.99054165566E+02  0.25500000000E-02 0. -1.
          2   -1    0    0  501    0  0.00000000000E+00 -0.00000000000E+00 -0.38755588019E+03  0.38755588019E+03  0.25500000000E-02 0.  1.
    5000001    1    1    2    0    0  0.97156971840E+02 -0.66836935437E+02 -0.30755413377E+02  0.17601576227E+03  0.12700000000E+03 0.  0.
   -5000001    1    1    2    0    0 -0.97156971840E+02  0.66836935437E+02 -0.25774630128E+03  0.31059428349E+03  0.12700000000E+03 0.  0.
<mgrwt>
<rscale>  0 0.39186234E+03</rscale>
<asrwt>0</asrwt>
<pdfrwt beam="1">  1        2 0.55365125E-01 0.39186234E+03</pdfrwt>
<pdfrwt beam="2">  1       -2 0.14150595E-01 0.39186234E+03</pdfrwt>
<totfact> 0.34034366E+03</totfact>
</mgrwt>
</event>
<event>
 4    1  0.1399921E-004  0.3244420E+03  0.7818608E-02  0.1073623E+00
          2   -1    0    0  501    0  0.00000000000E+00  0.00000000000E+00  0.73938021352E+03  0.73938021353E+03  0.25500000000E-02 0.  1.
         -2   -1    0    0    0  501 -0.00000000000E+00 -0.00000000000E+00 -0.35591503897E+02  0.35591503988E+02  0.25500000000E-02 0. -1.
    5000001    1    1    2    0    0 -0.42558578890E+02 -0.76484882358E+02  0.47193299844E+03  0.49649866554E+03  0.12700000000E+03 0.  0.
   -5000001    1    1    2    0    0  0.42558578890E+02  0.76484882358E+02  0.23185571118E+03  0.27847305197E+03  0.12700000000E+03 0.  0.
<mgrwt>
<rscale>  0 0.32444201E+03</rscale>
<asrwt>0</asrwt>
<pdfrwt beam="1">  1        2 0.10562574E+00 0.32444201E+03</pdfrwt>
<pdfrwt beam="2">  1       -2 0.50845007E-02 0.32444201E+03</pdfrwt>
<totfact> 0.82211493E+03</totfact>
</mgrwt>
</event>
<event>
 4    1  0.1399921E-004  0.3049037E+03  0.7818608E-02  0.1082815E+00
          2   -1    0    0  501    0  0.00000000000E+00  0.00000000000E+00  0.23850762039E+04  0.23850762039E+04  0.25500000000E-02 0.  1.
         -2   -1    0    0    0  501 -0.00000000000E+00 -0.00000000000E+00 -0.97445805062E+01  0.97445808399E+01  0.25500000000E-02 0. -1.
    5000001    1    1    2    0    0 -0.12410872902E+02 -0.83396157720E+02  0.11727247900E+04  0.11825909614E+04  0.12700000000E+03 0.  0.
   -5000001    1    1    2    0    0  0.12410872902E+02  0.83396157720E+02  0.12026068334E+04  0.12122298233E+04  0.12700000000E+03 0.  0.
<mgrwt>
<rscale>  0 0.30490371E+03</rscale>
<asrwt>0</asrwt>
<pdfrwt beam="1">  1        2 0.34072493E+00 0.30490371E+03</pdfrwt>
<pdfrwt beam="2">  1       -2 0.13920839E-02 0.30490371E+03</pdfrwt>
<totfact> 0.75312460E+03</totfact>
</mgrwt>
</event>
<event>
 4    1  0.1399921E-004  0.3620949E+03  0.7818608E-02  0.1057757E+00
         -2   -1    0    0    0  501 -0.00000000000E+00  0.00000000000E+00  0.44957724724E+02  0.44957724796E+02  0.25500000000E-02 0. -1.
          2   -1    0    0  501    0  0.00000000000E+00 -0.00000000000E+00 -0.72908904945E+03  0.72908904945E+03  0.25500000000E-02 0.  1.
    5000001    1    1    2    0    0 -0.12280138325E+03 -0.62424808844E+01 -0.42568286951E+03  0.46092738440E+03  0.12700000000E+03 0.  0.
   -5000001    1    1    2    0    0  0.12280138325E+03  0.62424808844E+01 -0.25844845521E+03  0.31311938985E+03  0.12700000000E+03 0.  0.
<mgrwt>
<rscale>  0 0.36209493E+03</rscale>
<asrwt>0</asrwt>
<pdfrwt beam="1">  1        2 0.10415557E+00 0.36209493E+03</pdfrwt>
<pdfrwt beam="2">  1       -2 0.64225325E-02 0.36209493E+03</pdfrwt>
<totfact> 0.58527771E+03</totfact>
</mgrwt>
</event>
<event>
 4    1  0.1399921E-004  0.3745733E+03  0.7818608E-02  0.1052958E+00
          2   -1    0    0  501    0  0.00000000000E+00  0.00000000000E+00  0.51104758987E+03  0.51104758987E+03  0.25500000000E-02 0.  1.
         -2   -1    0    0    0  501 -0.00000000000E+00 -0.00000000000E+00 -0.68636038106E+02  0.68636038153E+02  0.25500000000E-02 0. -1.
    5000001    1    1    2    0    0 -0.55758042890E+02 -0.10799055565E+03  0.12119349023E+03  0.21351295401E+03  0.12700000000E+03 0.  0.
   -5000001    1    1    2    0    0  0.55758042890E+02  0.10799055565E+03  0.32121806154E+03  0.36617067402E+03  0.12700000000E+03 0.  0.
<mgrwt>
<rscale>  0 0.37457326E+03</rscale>
<asrwt>0</asrwt>
<pdfrwt beam="1">  1        2 0.73006800E-01 0.37457326E+03</pdfrwt>
<pdfrwt beam="2">  1       -2 0.98051481E-02 0.37457326E+03</pdfrwt>
<totfact> 0.45482693E+03</totfact>
</mgrwt>
</event>
<event>
 4    1  0.1399921E-004  0.7298666E+03  0.7818608E-02  0.9667477E-01
         -2   -1    0    0    0  501 -0.00000000000E+00  0.00000000000E+00  0.59008999631E+02  0.59008999686E+02  0.25500000000E-02 0. -1.
          2   -1    0    0  501    0  0.00000000000E+00 -0.00000000000E+00 -0.22568815510E+04  0.22568815510E+04  0.25500000000E-02 0.  1.
    5000001    1    1    2    0    0 -0.19748910677E+03 -0.25519120329E+03 -0.73823036434E+03  0.81562097102E+03  0.12700000000E+03 0.  0.
   -5000001    1    1    2    0    0  0.19748910677E+03  0.25519120329E+03 -0.14596421870E+04  0.15002695796E+04  0.12700000000E+03 0.  0.
<mgrwt>
<rscale>  0 0.72986663E+03</rscale>
<asrwt>0</asrwt>
<pdfrwt beam="1">  1        2 0.32241160E+00 0.72986663E+03</pdfrwt>
<pdfrwt beam="2">  1       -2 0.84298585E-02 0.72986663E+03</pdfrwt>
<totfact> 0.54935317E+02</totfact>
</mgrwt>
</event>
<event>
 4    1  0.1399921E-004  0.3142211E+03  0.7818608E-02  0.1078340E+00
         -2   -1    0    0    0  501 -0.00000000000E+00  0.00000000000E+00  0.19545128110E+02  0.19545128276E+02  0.25500000000E-02 0. -1.
          2   -1    0    0  501    0  0.00000000000E+00 -0.00000000000E+00 -0.12629092329E+04  0.12629092329E+04  0.25500000000E-02 0.  1.
    5000001    1    1    2    0    0 -0.78329579869E+02 -0.13358774410E+02 -0.81488004457E+03  0.82853634017E+03  0.12700000000E+03 0.  0.
   -5000001    1    1    2    0    0  0.78329579869E+02  0.13358774410E+02 -0.42848406018E+03  0.45391802098E+03  0.12700000000E+03 0.  0.
<mgrwt>
<rscale>  0 0.31422109E+03</rscale>
<asrwt>0</asrwt>
<pdfrwt beam="1">  1        2 0.18041555E+00 0.31422109E+03</pdfrwt>
<pdfrwt beam="2">  1       -2 0.27921620E-02 0.31422109E+03</pdfrwt>
<totfact> 0.97966381E+03</totfact>
</mgrwt>
</event>
<event>
 4    1  0.1399921E-004  0.3054321E+03  0.7818608E-02  0.1082556E+00
          2   -1    0    0  501    0  0.00000000000E+00  0.00000000000E+00  0.18291167646E+02  0.18291167823E+02  0.25500000000E-02 0.  1.
         -2   -1    0    0    0  501 -0.00000000000E+00 -0.00000000000E+00 -0.12750517709E+04  0.12750517709E+04  0.25500000000E-02 0. -1.
    5000001    1    1    2    0    0 -0.60797741104E+02  0.14302370143E+02 -0.87134675592E+03  0.88276559299E+03  0.12700000000E+03 0.  0.
   -5000001    1    1    2    0    0  0.60797741104E+02 -0.14302370143E+02 -0.38541384735E+03  0.41057734575E+03  0.12700000000E+03 0.  0.
<mgrwt>
<rscale>  0 0.30543206E+03</rscale>
<asrwt>0</asrwt>
<pdfrwt beam="1">  1        2 0.26130248E-02 0.30543206E+03</pdfrwt>
<pdfrwt beam="2">  1       -2 0.18215020E+00 0.30543206E+03</pdfrwt>
<totfact> 0.71495040E+02</totfact>
</mgrwt>
</event>
<event>
 4    1  0.1399921E-004  0.3122311E+03  0.7818608E-02  0.1079281E+00
          2   -1    0    0  501    0  0.00000000000E+00  0.00000000000E+00  0.52572556902E+03  0.52572556902E+03  0.25500000000E-02 0.  1.
         -2   -1    0    0    0  501 -0.00000000000E+00 -0.00000000000E+00 -0.46358920061E+02  0.46358920131E+02  0.25500000000E-02 0. -1.
    5000001    1    1    2    0    0  0.89241050612E+02 -0.72870999077E+01  0.21213845011E+03  0.26296157315E+03  0.12700000000E+03 0.  0.
   -5000001    1    1    2    0    0 -0.89241050612E+02  0.72870999077E+01  0.26722819885E+03  0.30912291601E+03  0.12700000000E+03 0.  0.
<mgrwt>
<rscale>  0 0.31223113E+03</rscale>
<asrwt>0</asrwt>
<pdfrwt beam="1">  1        2 0.75103654E-01 0.31223113E+03</pdfrwt>
<pdfrwt beam="2">  1       -2 0.66227027E-02 0.31223113E+03</pdfrwt>
<totfact> 0.81268338E+03</totfact>
</mgrwt>
</event>
<event>
 4    1  0.1399921E-004  0.3581461E+03  0.7818608E-02  0.1059320E+00
         -2   -1    0    0    0  501 -0.00000000000E+00  0.00000000000E+00  0.24262505315E+02  0.24262505449E+02  0.25500000000E-02 0. -1.
          2   -1    0    0  501    0  0.00000000000E+00 -0.00000000000E+00 -0.13216751975E+04  0.13216751975E+04  0.25500000000E-02 0.  1.
    5000001    1    1    2    0    0  0.12582064426E+03 -0.84251595462E+01 -0.62605364767E+03  0.65113284942E+03  0.12700000000E+03 0.  0.
   -5000001    1    1    2    0    0 -0.12582064426E+03  0.84251595462E+01 -0.67135904456E+03  0.69480485357E+03  0.12700000000E+03 0.  0.
<mgrwt>
<rscale>  0 0.35814607E+03</rscale>
<asrwt>0</asrwt>
<pdfrwt beam="1">  1        2 0.18881070E+00 0.35814607E+03</pdfrwt>
<pdfrwt beam="2">  1       -2 0.34660730E-02 0.35814607E+03</pdfrwt>
<totfact> 0.66088689E+03</totfact>
</mgrwt>
</event>
<event>
 4    1  0.1399921E-004  0.3797474E+03  0.7818608E-02  0.1051027E+00
         -2   -1    0    0    0  501 -0.00000000000E+00  0.00000000000E+00  0.17569940560E+02  0.17569940745E+02  0.25500000000E-02 0. -1.
          2   -1    0    0  501    0  0.00000000000E+00 -0.00000000000E+00 -0.20519149511E+04  0.20519149511E+04  0.25500000000E-02 0.  1.
    5000001    1    1    2    0    0 -0.51884307228E+02 -0.13117638049E+03 -0.10437585637E+04  0.10608770727E+04  0.12700000000E+03 0.  0.
   -5000001    1    1    2    0    0  0.51884307228E+02  0.13117638049E+03 -0.99058644684E+03  0.10086078191E+04  0.12700000000E+03 0.  0.
<mgrwt>
<rscale>  0 0.37974741E+03</rscale>
<asrwt>0</asrwt>
<pdfrwt beam="1">  1        2 0.29313055E+00 0.37974741E+03</pdfrwt>
<pdfrwt beam="2">  1       -2 0.25099928E-02 0.37974741E+03</pdfrwt>
<totfact> 0.46000663E+03</totfact>
</mgrwt>
</event>
<event>
 4    1  0.1399921E-004  0.4623573E+03  0.7818608E-02  0.1024100E+00
         -2   -1    0    0    0  501 -0.00000000000E+00  0.00000000000E+00  0.23328641223E+02  0.23328641362E+02  0.25500000000E-02 0.  1.
          2   -1    0    0  501    0  0.00000000000E+00 -0.00000000000E+00 -0.22908990150E+04  0.22908990150E+04  0.25500000000E-02 0. -1.
    5000001    1    1    2    0    0 -0.88546750988E+02  0.17002942339E+03 -0.12526571056E+04  0.12735891630E+04  0.12700000000E+03 0.  0.
   -5000001    1    1    2    0    0  0.88546750988E+02 -0.17002942339E+03 -0.10149132682E+04  0.10406384934E+04  0.12700000000E+03 0.  0.
<mgrwt>
<rscale>  0 0.46235727E+03</rscale>
<asrwt>0</asrwt>
<pdfrwt beam="1">  1        2 0.32727114E+00 0.46235727E+03</pdfrwt>
<pdfrwt beam="2">  1       -2 0.33326645E-02 0.46235727E+03</pdfrwt>
<totfact> 0.22775620E+03</totfact>
</mgrwt>
</event>
<event>
 4    1  0.1399921E-004  0.3356418E+03  0.7818608E-02  0.1068667E+00
          2   -1    0    0  501    0  0.00000000000E+00  0.00000000000E+00  0.40084953976E+04  0.40084953976E+04  0.25500000000E-02 0.  1.
         -2   -1    0    0    0  501 -0.00000000000E+00 -0.00000000000E+00 -0.70260393908E+01  0.70260398536E+01  0.25500000000E-02 0. -1.
    5000001    1    1    2    0    0  0.62176338192E+02  0.73517211811E+02  0.26297313372E+04  0.26345562403E+04  0.12700000000E+03 0.  0.
   -5000001    1    1    2    0    0 -0.62176338192E+02 -0.73517211811E+02  0.13717380210E+04  0.13809651971E+04  0.12700000000E+03 0.  0.
<mgrwt>
<rscale>  0 0.33564176E+03</rscale>
<asrwt>0</asrwt>
<pdfrwt beam="1">  1        2 0.57263996E+00 0.33564176E+03</pdfrwt>
<pdfrwt beam="2">  1       -2 0.10037239E-02 0.33564176E+03</pdfrwt>
<totfact> 0.15008025E+03</totfact>
</mgrwt>
</event>
<event>
 4    1  0.1399921E-004  0.4361500E+03  0.7818608E-02  0.1031935E+00
         -2   -1    0    0    0  501 -0.00000000000E+00  0.00000000000E+00  0.36475284658E+02  0.36475284747E+02  0.25500000000E-02 0.  1.
          2   -1    0    0  501    0  0.00000000000E+00 -0.00000000000E+00 -0.13038065643E+04  0.13038065643E+04  0.25500000000E-02 0. -1.
    5000001    1    1    2    0    0 -0.88445122685E+02 -0.11538150171E+03 -0.94542256886E+03  0.96492914993E+03  0.12700000000E+03 0.  0.
   -5000001    1    1    2    0    0  0.88445122685E+02  0.11538150171E+03 -0.32190871080E+03  0.37535269914E+03  0.12700000000E+03 0.  0.
<mgrwt>
<rscale>  0 0.43615005E+03</rscale>
<asrwt>0</asrwt>
<pdfrwt beam="1">  1        2 0.18625805E+00 0.43615005E+03</pdfrwt>
<pdfrwt beam="2">  1       -2 0.52107558E-02 0.43615005E+03</pdfrwt>
<totfact> 0.36347140E+03</totfact>
</mgrwt>
</event>
<event>
 4    1  0.1399921E-004  0.3579790E+03  0.7818608E-02  0.1059387E+00
          2   -1    0    0  501    0  0.00000000000E+00  0.00000000000E+00  0.28356630578E+04  0.28356630578E+04  0.25500000000E-02 0.  1.
         -2   -1    0    0    0  501 -0.00000000000E+00 -0.00000000000E+00 -0.11297974120E+02  0.11297974408E+02  0.25500000000E-02 0. -1.
    5000001    1    1    2    0    0 -0.97261325604E+02 -0.67730586441E+02  0.10690965411E+04  0.10831175430E+04  0.12700000000E+03 0.  0.
   -5000001    1    1    2    0    0  0.97261325604E+02  0.67730586441E+02  0.17552685426E+04  0.17638434892E+04  0.12700000000E+03 0.  0.
<mgrwt>
<rscale>  0 0.35797904E+03</rscale>
<asrwt>0</asrwt>
<pdfrwt beam="1">  1        2 0.40509465E+00 0.35797904E+03</pdfrwt>
<pdfrwt beam="2">  1       -2 0.16139966E-02 0.35797904E+03</pdfrwt>
<totfact> 0.35697143E+03</totfact>
</mgrwt>
</event>
<event>
 4    1  0.1399921E-004  0.3350136E+03  0.7818608E-02  0.1068940E+00
          2   -1    0    0  501    0  0.00000000000E+00  0.00000000000E+00  0.14753162318E+04  0.14753162318E+04  0.25500000000E-02 0.  1.
         -2   -1    0    0    0  501 -0.00000000000E+00 -0.00000000000E+00 -0.19018657394E+02  0.19018657565E+02  0.25500000000E-02 0. -1.
    5000001    1    1    2    0    0 -0.34492675044E+02  0.10360164204E+03  0.71678607961E+03  0.73609396736E+03  0.12700000000E+03 0.  0.
   -5000001    1    1    2    0    0  0.34492675044E+02 -0.10360164204E+03  0.73951149477E+03  0.75824092197E+03  0.12700000000E+03 0.  0.
<mgrwt>
<rscale>  0 0.33501364E+03</rscale>
<asrwt>0</asrwt>
<pdfrwt beam="1">  1        2 0.21075948E+00 0.33501364E+03</pdfrwt>
<pdfrwt beam="2">  1       -2 0.27169508E-02 0.33501364E+03</pdfrwt>
<totfact> 0.79141838E+03</totfact>
</mgrwt>
</event>
<event>
 4    1  0.1399921E-004  0.3112426E+03  0.7818608E-02  0.1079752E+00
          2   -1    0    0  501    0  0.00000000000E+00  0.00000000000E+00  0.67104347570E+03  0.67104347570E+03  0.25500000000E-02 0.  1.
         -2   -1    0    0    0  501 -0.00000000000E+00 -0.00000000000E+00 -0.36090047570E+02  0.36090047660E+02  0.25500000000E-02 0. -1.
    5000001    1    1    2    0    0 -0.77299461269E+02 -0.39243737024E+02  0.26305780074E+03  0.30470261591E+03  0.12700000000E+03 0.  0.
   -5000001    1    1    2    0    0  0.77299461269E+02  0.39243737024E+02  0.37189562739E+03  0.40243090746E+03  0.12700000000E+03 0.  0.
<mgrwt>
<rscale>  0 0.31124261E+03</rscale>
<asrwt>0</asrwt>
<pdfrwt beam="1">  1        2 0.95863348E-01 0.31124261E+03</pdfrwt>
<pdfrwt beam="2">  1       -2 0.51557214E-02 0.31124261E+03</pdfrwt>
<totfact> 0.90265369E+03</totfact>
</mgrwt>
</event>
<event>
 4    1  0.1399921E-004  0.3317456E+03  0.7818608E-02  0.1070367E+00
          2   -1    0    0  501    0  0.00000000000E+00  0.00000000000E+00  0.16777610794E+03  0.16777610796E+03  0.25500000000E-02 0.  1.
         -2   -1    0    0    0  501 -0.00000000000E+00 -0.00000000000E+00 -0.16399112188E+03  0.16399112190E+03  0.25500000000E-02 0. -1.
    5000001    1    1    2    0    0 -0.35886652291E+02 -0.86582221005E+02 -0.49105525291E+02  0.16530180102E+03  0.12700000000E+03 0.  0.
   -5000001    1    1    2    0    0  0.35886652291E+02  0.86582221005E+02  0.52890511357E+02  0.16646542884E+03  0.12700000000E+03 0.  0.
<mgrwt>
<rscale>  0 0.33174564E+03</rscale>
<asrwt>0</asrwt>
<pdfrwt beam="1">  1        2 0.23968015E-01 0.33174564E+03</pdfrwt>
<pdfrwt beam="2">  1       -2 0.23427303E-01 0.33174564E+03</pdfrwt>
<totfact> 0.36071489E+03</totfact>
</mgrwt>
</event>
<event>
 4    1  0.1399921E-004  0.5978718E+03  0.7818608E-02  0.9909831E-01
         -2   -1    0    0    0  501 -0.00000000000E+00  0.00000000000E+00  0.59207750704E+02  0.59207750759E+02  0.25500000000E-02 0. -1.
          2   -1    0    0  501    0  0.00000000000E+00 -0.00000000000E+00 -0.15093070434E+04  0.15093070434E+04  0.25500000000E-02 0.  1.
    5000001    1    1    2    0    0 -0.26289205159E+02  0.11697587606E+03 -0.13615339683E+04  0.13726901415E+04  0.12700000000E+03 0.  0.
   -5000001    1    1    2    0    0  0.26289205159E+02 -0.11697587606E+03 -0.88565324422E+02  0.19582465263E+03  0.12700000000E+03 0.  0.
<mgrwt>
<rscale>  0 0.59787181E+03</rscale>
<asrwt>0</asrwt>
<pdfrwt beam="1">  1        2 0.21561527E+00 0.59787181E+03</pdfrwt>
<pdfrwt beam="2">  1       -2 0.84582511E-02 0.59787181E+03</pdfrwt>
<totfact> 0.13196148E+03</totfact>
</mgrwt>
</event>
<event>
 4    1  0.1399921E-004  0.4172076E+03  0.7818608E-02  0.1037979E+00
          2   -1    0    0  501    0  0.00000000000E+00  0.00000000000E+00  0.21393362508E+04  0.21393362508E+04  0.25500000000E-02 0.  1.
         -2   -1    0    0    0  501 -0.00000000000E+00 -0.00000000000E+00 -0.20340679878E+02  0.20340680038E+02  0.25500000000E-02 0. -1.
    5000001    1    1    2    0    0  0.68946664430E+01  0.15304701203E+03  0.13834174704E+04  0.13976565464E+04  0.12700000000E+03 0.  0.
   -5000001    1    1    2    0    0 -0.68946664430E+01 -0.15304701203E+03  0.73557810051E+03  0.76202038442E+03  0.12700000000E+03 0.  0.
<mgrwt>
<rscale>  0 0.41720764E+03</rscale>
<asrwt>0</asrwt>
<pdfrwt beam="1">  1        2 0.30561928E+00 0.41720764E+03</pdfrwt>
<pdfrwt beam="2">  1       -2 0.29058132E-02 0.41720764E+03</pdfrwt>
<totfact> 0.33400714E+03</totfact>
</mgrwt>
</event>
<event>
 4    1  0.1399921E-004  0.4086462E+03  0.7818608E-02  0.1040826E+00
          2   -1    0    0  501    0  0.00000000000E+00  0.00000000000E+00  0.30179535700E+03  0.30179535701E+03  0.25500000000E-02 0.  1.
         -2   -1    0    0    0  501 -0.00000000000E+00 -0.00000000000E+00 -0.13833194091E+03  0.13833194093E+03  0.25500000000E-02 0. -1.
    5000001    1    1    2    0    0  0.63003834942E+02  0.14706746070E+03  0.86622013885E+02  0.22187991009E+03  0.12700000000E+03 0.  0.
   -5000001    1    1    2    0    0 -0.63003834942E+02 -0.14706746070E+03  0.76841402206E+02  0.21824738786E+03  0.12700000000E+03 0.  0.
<mgrwt>
<rscale>  0 0.40864624E+03</rscale>
<asrwt>0</asrwt>
<pdfrwt beam="1">  1        2 0.43113622E-01 0.40864624E+03</pdfrwt>
<pdfrwt beam="2">  1       -2 0.19761706E-01 0.40864624E+03</pdfrwt>
<totfact> 0.25458906E+03</totfact>
</mgrwt>
</event>
<event>
 4    1  0.1399921E-004  0.7226356E+03  0.7818608E-02  0.9679287E-01
         -2   -1    0    0    0  501 -0.00000000000E+00  0.00000000000E+00  0.22005856050E+03  0.22005856052E+03  0.25500000000E-02 0. -1.
          2   -1    0    0  501    0  0.00000000000E+00 -0.00000000000E+00 -0.59325362735E+03  0.59325362736E+03  0.25500000000E-02 0.  1.
    5000001    1    1    2    0    0 -0.28983235072E+03 -0.16713526576E+03 -0.24269740653E+03  0.43239798765E+03  0.12700000000E+03 0.  0.
   -5000001    1    1    2    0    0  0.28983235072E+03  0.16713526576E+03 -0.13049766032E+03  0.38091420023E+03  0.12700000000E+03 0.  0.
<mgrwt>
<rscale>  0 0.72263556E+03</rscale>
<asrwt>0</asrwt>
<pdfrwt beam="1">  1        2 0.84750517E-01 0.72263556E+03</pdfrwt>
<pdfrwt beam="2">  1       -2 0.31436938E-01 0.72263556E+03</pdfrwt>
<totfact> 0.51881128E+02</totfact>
</mgrwt>
</event>
<event>
 4    1  0.1399921E-004  0.3727314E+03  0.7818608E-02  0.1053653E+00
         -2   -1    0    0    0  501 -0.00000000000E+00  0.00000000000E+00  0.13451666357E+02  0.13451666599E+02  0.25500000000E-02 0. -1.
          2   -1    0    0  501    0  0.00000000000E+00 -0.00000000000E+00 -0.25819973408E+04  0.25819973408E+04  0.25500000000E-02 0.  1.
    5000001    1    1    2    0    0  0.84750074358E+02 -0.26631967798E+02 -0.20049458669E+04  0.20109273399E+04  0.12700000000E+03 0.  0.
   -5000001    1    1    2    0    0 -0.84750074358E+02  0.26631967798E+02 -0.56359980748E+03  0.58452166752E+03  0.12700000000E+03 0.  0.
<mgrwt>
<rscale>  0 0.37273136E+03</rscale>
<asrwt>0</asrwt>
<pdfrwt beam="1">  1        2 0.36885645E+00 0.37273136E+03</pdfrwt>
<pdfrwt beam="2">  1       -2 0.19216683E-02 0.37273136E+03</pdfrwt>
<totfact> 0.37232323E+03</totfact>
</mgrwt>
</event>
<event>
 4    1  0.1399921E-004  0.3930164E+03  0.7818608E-02  0.1046225E+00
         -2   -1    0    0    0  501 -0.00000000000E+00  0.00000000000E+00  0.24822006194E+02  0.24822006325E+02  0.25500000000E-02 0. -1.
          2   -1    0    0  501    0  0.00000000000E+00 -0.00000000000E+00 -0.15556948205E+04  0.15556948205E+04  0.25500000000E-02 0.  1.
    5000001    1    1    2    0    0  0.54243427014E+02  0.59672669893E+02 -0.12738551706E+04  0.12827077503E+04  0.12700000000E+03 0.  0.
   -5000001    1    1    2    0    0 -0.54243427014E+02 -0.59672669893E+02 -0.25701764365E+03  0.29780907651E+03  0.12700000000E+03 0.  0.
<mgrwt>
<rscale>  0 0.39301637E+03</rscale>
<asrwt>0</asrwt>
<pdfrwt beam="1">  1        2 0.22224206E+00 0.39301637E+03</pdfrwt>
<pdfrwt beam="2">  1       -2 0.35460019E-02 0.39301637E+03</pdfrwt>
<totfact> 0.48343647E+03</totfact>
</mgrwt>
</event>
<event>
 4    1  0.1399921E-004  0.5400188E+03  0.7818608E-02  0.1003831E+00
         -2   -1    0    0    0  501 -0.00000000000E+00  0.00000000000E+00  0.30407767862E+03  0.30407767863E+03  0.25500000000E-02 0. -1.
          2   -1    0    0  501    0  0.00000000000E+00 -0.00000000000E+00 -0.23975805660E+03  0.23975805661E+03  0.25500000000E-02 0.  1.
    5000001    1    1    2    0    0 -0.73918536914E+02  0.20737789210E+03 -0.59624567021E+02  0.26106250061E+03  0.12700000000E+03 0.  0.
   -5000001    1    1    2    0    0  0.73918536914E+02 -0.20737789210E+03  0.12394418905E+03  0.28277323464E+03  0.12700000000E+03 0.  0.
<mgrwt>
<rscale>  0 0.54001879E+03</rscale>
<asrwt>0</asrwt>
<pdfrwt beam="1">  1        2 0.34251151E-01 0.54001879E+03</pdfrwt>
<pdfrwt beam="2">  1       -2 0.43439669E-01 0.54001879E+03</pdfrwt>
<totfact> 0.77364044E+02</totfact>
</mgrwt>
</event>
<event>
 4    1  0.1399921E-004  0.3213755E+03  0.7818608E-02  0.1075018E+00
         -2   -1    0    0    0  501 -0.00000000000E+00  0.00000000000E+00  0.21842617765E+02  0.21842617914E+02  0.25500000000E-02 0. -1.
          2   -1    0    0  501    0  0.00000000000E+00 -0.00000000000E+00 -0.11821183468E+04  0.11821183468E+04  0.25500000000E-02 0.  1.
    5000001    1    1    2    0    0  0.94920431000E+02 -0.21332782579E+02 -0.52374635891E+03  0.54763511968E+03  0.12700000000E+03 0.  0.
   -5000001    1    1    2    0    0 -0.94920431000E+02  0.21332782579E+02 -0.63652937011E+03  0.65632584503E+03  0.12700000000E+03 0.  0.
<mgrwt>
<rscale>  0 0.32137554E+03</rscale>
<asrwt>0</asrwt>
<pdfrwt beam="1">  1        2 0.16887401E+00 0.32137554E+03</pdfrwt>
<pdfrwt beam="2">  1       -2 0.31203747E-02 0.32137554E+03</pdfrwt>
<totfact> 0.91837210E+03</totfact>
</mgrwt>
</event>
<event>
 4    1  0.1399921E-004  0.4798339E+03  0.7818608E-02  0.1019181E+00
         -2   -1    0    0    0  501 -0.00000000000E+00  0.00000000000E+00  0.19274452099E+03  0.19274452101E+03  0.25500000000E-02 0. -1.
          2   -1    0    0  501    0  0.00000000000E+00 -0.00000000000E+00 -0.29863442954E+03  0.29863442955E+03  0.25500000000E-02 0.  1.
    5000001    1    1    2    0    0  0.22872797001E+02  0.17684796247E+03 -0.15345315343E+03  0.26734853089E+03  0.12700000000E+03 0.  0.
   -5000001    1    1    2    0    0 -0.22872797001E+02 -0.17684796247E+03  0.47563244878E+02  0.22403041967E+03  0.12700000000E+03 0.  0.
<mgrwt>
<rscale>  0 0.47983393E+03</rscale>
<asrwt>0</asrwt>
<pdfrwt beam="1">  1        2 0.42662061E-01 0.47983393E+03</pdfrwt>
<pdfrwt beam="2">  1       -2 0.27534932E-01 0.47983393E+03</pdfrwt>
<totfact> 0.14353949E+03</totfact>
</mgrwt>
</event>
<event>
 4    1  0.1399921E-004  0.4516182E+03  0.7818608E-02  0.1027241E+00
          2   -1    0    0  501    0  0.00000000000E+00  0.00000000000E+00  0.11790268742E+04  0.11790268742E+04  0.25500000000E-02 0.  1.
         -2   -1    0    0    0  501 -0.00000000000E+00 -0.00000000000E+00 -0.43247314316E+02  0.43247314391E+02  0.25500000000E-02 0. -1.
    5000001    1    1    2    0    0  0.75997270189E+02  0.14992447636E+03  0.34788806504E+03  0.40670387199E+03  0.12700000000E+03 0.  0.
   -5000001    1    1    2    0    0 -0.75997270189E+02 -0.14992447636E+03  0.78789149484E+03  0.81557031660E+03  0.12700000000E+03 0.  0.
<mgrwt>
<rscale>  0 0.45161818E+03</rscale>
<asrwt>0</asrwt>
<pdfrwt beam="1">  1        2 0.16843239E+00 0.45161818E+03</pdfrwt>
<pdfrwt beam="2">  1       -2 0.61781885E-02 0.45161818E+03</pdfrwt>
<totfact> 0.32667596E+03</totfact>
</mgrwt>
</event>
<event>
 4    1  0.1399921E-004  0.6155319E+03  0.7818608E-02  0.9873696E-01
          2   -1    0    0  501    0  0.00000000000E+00  0.00000000000E+00  0.76450424847E+03  0.76450424848E+03  0.25500000000E-02 0.  1.
         -2   -1    0    0    0  501 -0.00000000000E+00 -0.00000000000E+00 -0.12389713716E+03  0.12389713719E+03  0.25500000000E-02 0. -1.
    5000001    1    1    2    0    0  0.21175135007E+03 -0.18313802469E+03  0.34135394607E+03  0.45937967613E+03  0.12700000000E+03 0.  0.
   -5000001    1    1    2    0    0 -0.21175135007E+03  0.18313802469E+03  0.29925316524E+03  0.42902170953E+03  0.12700000000E+03 0.  0.
<mgrwt>
<rscale>  0 0.61553193E+03</rscale>
<asrwt>0</asrwt>
<pdfrwt beam="1">  1        2 0.10921489E+00 0.61553193E+03</pdfrwt>
<pdfrwt beam="2">  1       -2 0.17699591E-01 0.61553193E+03</pdfrwt>
<totfact> 0.10662831E+03</totfact>
</mgrwt>
</event>
<event>
 4    1  0.1399921E-004  0.5599197E+03  0.7818608E-02  0.9992236E-01
          2   -1    0    0  501    0  0.00000000000E+00  0.00000000000E+00  0.29426871620E+03  0.29426871621E+03  0.25500000000E-02 0.  1.
         -2   -1    0    0    0  501 -0.00000000000E+00 -0.00000000000E+00 -0.26634678221E+03  0.26634678222E+03  0.25500000000E-02 0. -1.
    5000001    1    1    2    0    0  0.86780909890E+02  0.20839016416E+03  0.12035277846E+03  0.28560668431E+03  0.12700000000E+03 0.  0.
   -5000001    1    1    2    0    0 -0.86780909890E+02 -0.20839016416E+03 -0.92430844463E+02  0.27500881413E+03  0.12700000000E+03 0.  0.
<mgrwt>
<rscale>  0 0.55991973E+03</rscale>
<asrwt>0</asrwt>
<pdfrwt beam="1">  1        2 0.42038388E-01 0.55991973E+03</pdfrwt>
<pdfrwt beam="2">  1       -2 0.38049540E-01 0.55991973E+03</pdfrwt>
<totfact> 0.79787807E+02</totfact>
</mgrwt>
</event>
<event>
 4    1  0.1399921E-004  0.5194666E+03  0.7818608E-02  0.1008819E+00
          2   -1    0    0  501    0  0.00000000000E+00  0.00000000000E+00  0.62952778717E+03  0.62952778718E+03  0.25500000000E-02 0.  1.
         -2   -1    0    0    0  501 -0.00000000000E+00 -0.00000000000E+00 -0.10716187139E+03  0.10716187142E+03  0.25500000000E-02 0. -1.
    5000001    1    1    2    0    0  0.18265547603E+03 -0.33289345739E+02  0.44533259368E+03  0.49892015640E+03  0.12700000000E+03 0.  0.
   -5000001    1    1    2    0    0 -0.18265547603E+03  0.33289345739E+02  0.77033322106E+02  0.23776950220E+03  0.12700000000E+03 0.  0.
<mgrwt>
<rscale>  0 0.51946656E+03</rscale>
<asrwt>0</asrwt>
<pdfrwt beam="1">  1        2 0.89932540E-01 0.51946656E+03</pdfrwt>
<pdfrwt beam="2">  1       -2 0.15308839E-01 0.51946656E+03</pdfrwt>
<totfact> 0.17303256E+03</totfact>
</mgrwt>
</event>
<event>
 4    1  0.1399921E-004  0.4098203E+03  0.7818608E-02  0.1040431E+00
          2   -1    0    0  501    0  0.00000000000E+00  0.00000000000E+00  0.36532611670E+03  0.36532611671E+03  0.25500000000E-02 0.  1.
         -2   -1    0    0    0  501 -0.00000000000E+00 -0.00000000000E+00 -0.11493337301E+03  0.11493337304E+03  0.25500000000E-02 0. -1.
    5000001    1    1    2    0    0 -0.23686006070E+02 -0.15692542722E+03  0.15558727480E+03  0.25597464068E+03  0.12700000000E+03 0.  0.
   -5000001    1    1    2    0    0  0.23686006070E+02  0.15692542722E+03  0.94805468891E+02  0.22428484907E+03  0.12700000000E+03 0.  0.
<mgrwt>
<rscale>  0 0.40982027E+03</rscale>
<asrwt>0</asrwt>
<pdfrwt beam="1">  1        2 0.52189446E-01 0.40982027E+03</pdfrwt>
<pdfrwt beam="2">  1       -2 0.16419053E-01 0.40982027E+03</pdfrwt>
<totfact> 0.28343823E+03</totfact>
</mgrwt>
</event>
<event>
 4    1  0.1399921E-004  0.4359166E+03  0.7818608E-02  0.1032007E+00
         -2   -1    0    0    0  501 -0.00000000000E+00  0.00000000000E+00  0.56395472743E+02  0.56395472801E+02  0.25500000000E-02 0. -1.
          2   -1    0    0  501    0  0.00000000000E+00 -0.00000000000E+00 -0.84236956905E+03  0.84236956905E+03  0.25500000000E-02 0.  1.
    5000001    1    1    2    0    0 -0.13216494662E+02 -0.15257325735E+03 -0.57651523455E+03  0.60987875045E+03  0.12700000000E+03 0.  0.
   -5000001    1    1    2    0    0  0.13216494662E+02  0.15257325735E+03 -0.20945886176E+03  0.28888629140E+03  0.12700000000E+03 0.  0.
<mgrwt>
<rscale>  0 0.43591664E+03</rscale>
<asrwt>0</asrwt>
<pdfrwt beam="1">  1        2 0.12033850E+00 0.43591664E+03</pdfrwt>
<pdfrwt beam="2">  1       -2 0.80564966E-02 0.43591664E+03</pdfrwt>
<totfact> 0.34359310E+03</totfact>
</mgrwt>
</event>
<event>
 4    1  0.1399921E-004  0.2890531E+03  0.7818608E-02  0.1090845E+00
         -2   -1    0    0    0  501 -0.00000000000E+00  0.00000000000E+00  0.10446543902E+03  0.10446543905E+03  0.25500000000E-02 0. -1.
          2   -1    0    0  501    0  0.00000000000E+00 -0.00000000000E+00 -0.19995059101E+03  0.19995059103E+03  0.25500000000E-02 0.  1.
    5000001    1    1    2    0    0 -0.57213019562E+02 -0.28653193651E+01 -0.72629082077E+01  0.13951089383E+03  0.12700000000E+03 0.  0.
   -5000001    1    1    2    0    0  0.57213019562E+02  0.28653193651E+01 -0.88222243783E+02  0.16490513625E+03  0.12700000000E+03 0.  0.
<mgrwt>
<rscale>  0 0.28905312E+03</rscale>
<asrwt>0</asrwt>
<pdfrwt beam="1">  1        2 0.28564370E-01 0.28905312E+03</pdfrwt>
<pdfrwt beam="2">  1       -2 0.14923634E-01 0.28905312E+03</pdfrwt>
<totfact> 0.63608221E+03</totfact>
</mgrwt>
</event>
<event>
 4    1  0.1399921E-004  0.2945173E+03  0.7818608E-02  0.1088014E+00
          2   -1    0    0  501    0  0.00000000000E+00  0.00000000000E+00  0.76721890995E+03  0.76721890995E+03  0.25500000000E-02 0.  1.
         -2   -1    0    0    0  501 -0.00000000000E+00 -0.00000000000E+00 -0.28264566454E+02  0.28264566569E+02  0.25500000000E-02 0. -1.
    5000001    1    1    2    0    0  0.69670455191E+02  0.21963407851E+02  0.40951597987E+03  0.43493528413E+03  0.12700000000E+03 0.  0.
   -5000001    1    1    2    0    0 -0.69670455191E+02 -0.21963407851E+02  0.32943836362E+03  0.36054819239E+03  0.12700000000E+03 0.  0.
<mgrwt>
<rscale>  0 0.29451730E+03</rscale>
<asrwt>0</asrwt>
<pdfrwt beam="1">  1        2 0.10960269E+00 0.29451730E+03</pdfrwt>
<pdfrwt beam="2">  1       -2 0.40377956E-02 0.29451730E+03</pdfrwt>
<totfact> 0.11114868E+04</totfact>
</mgrwt>
</event>
<event>
 4    1  0.1399921E-004  0.4024502E+03  0.7818608E-02  0.1042935E+00
         -2   -1    0    0    0  501 -0.00000000000E+00  0.00000000000E+00  0.21358448449E+02  0.21358448601E+02  0.25500000000E-02 0. -1.
          2   -1    0    0  501    0  0.00000000000E+00 -0.00000000000E+00 -0.18958088477E+04  0.18958088477E+04  0.25500000000E-02 0.  1.
    5000001    1    1    2    0    0 -0.11932875388E+03 -0.28704132151E+02 -0.47784526981E+03  0.50943928057E+03  0.12700000000E+03 0.  0.
   -5000001    1    1    2    0    0  0.11932875388E+03  0.28704132151E+02 -0.13966051295E+04  0.14077280157E+04  0.12700000000E+03 0.  0.
<mgrwt>
<rscale>  0 0.40245017E+03</rscale>
<asrwt>0</asrwt>
<pdfrwt beam="1">  1        2 0.27082973E+00 0.40245017E+03</pdfrwt>
<pdfrwt beam="2">  1       -2 0.30512081E-02 0.40245017E+03</pdfrwt>
<totfact> 0.40984957E+03</totfact>
</mgrwt>
</event>
<event>
 4    1  0.1399921E-004  0.4223236E+03  0.7818608E-02  0.1036313E+00
         -2   -1    0    0    0  501 -0.00000000000E+00  0.00000000000E+00  0.31492222008E+02  0.31492222111E+02  0.25500000000E-02 0. -1.
          2   -1    0    0  501    0  0.00000000000E+00 -0.00000000000E+00 -0.14158832797E+04  0.14158832797E+04  0.25500000000E-02 0.  1.
    5000001    1    1    2    0    0  0.65641802277E+02 -0.15119558248E+03 -0.56903839976E+03  0.60588996589E+03  0.12700000000E+03 0.  0.
   -5000001    1    1    2    0    0 -0.65641802277E+02  0.15119558248E+03 -0.81535265795E+03  0.84148553594E+03  0.12700000000E+03 0.  0.
<mgrwt>
<rscale>  0 0.42232362E+03</rscale>
<asrwt>0</asrwt>
<pdfrwt beam="1">  1        2 0.20226900E+00 0.42232362E+03</pdfrwt>
<pdfrwt beam="2">  1       -2 0.44988898E-02 0.42232362E+03</pdfrwt>
<totfact> 0.39734202E+03</totfact>
</mgrwt>
</event>
<event>
 4    1  0.1399921E-004  0.3819359E+03  0.7818608E-02  0.1050221E+00
         -2   -1    0    0    0  501 -0.00000000000E+00  0.00000000000E+00  0.46636409949E+02  0.46636410019E+02  0.25500000000E-02 0. -1.
          2   -1    0    0  501    0  0.00000000000E+00 -0.00000000000E+00 -0.78198020189E+03  0.78198020189E+03  0.25500000000E-02 0.  1.
    5000001    1    1    2    0    0  0.70220622255E+02 -0.12402501688E+03 -0.35648073849E+03  0.40437687560E+03  0.12700000000E+03 0.  0.
   -5000001    1    1    2    0    0 -0.70220622255E+02  0.12402501688E+03 -0.37886305345E+03  0.42423973631E+03  0.12700000000E+03 0.  0.
<mgrwt>
<rscale>  0 0.38193585E+03</rscale>
<asrwt>0</asrwt>
<pdfrwt beam="1">  1        2 0.11171145E+00 0.38193585E+03</pdfrwt>
<pdfrwt beam="2">  1       -2 0.66623447E-02 0.38193585E+03</pdfrwt>
<totfact> 0.50777453E+03</totfact>
</mgrwt>
</event>
<event>
 4    1  0.1399921E-004  0.3843946E+03  0.7818608E-02  0.1049321E+00
         -2   -1    0    0    0  501 -0.00000000000E+00  0.00000000000E+00  0.64146501602E+02  0.64146501653E+02  0.25500000000E-02 0. -1.
          2   -1    0    0  501    0  0.00000000000E+00 -0.00000000000E+00 -0.57586628158E+03  0.57586628158E+03  0.25500000000E-02 0.  1.
    5000001    1    1    2    0    0  0.12824861549E+03 -0.42326381118E+02 -0.17142709916E+03  0.25249847572E+03  0.12700000000E+03 0.  0.
   -5000001    1    1    2    0    0 -0.12824861549E+03  0.42326381118E+02 -0.34029268082E+03  0.38751430752E+03  0.12700000000E+03 0.  0.
<mgrwt>
<rscale>  0 0.38439463E+03</rscale>
<asrwt>0</asrwt>
<pdfrwt beam="1">  1        2 0.82266608E-01 0.38439463E+03</pdfrwt>
<pdfrwt beam="2">  1       -2 0.91637863E-02 0.38439463E+03</pdfrwt>
<totfact> 0.44270948E+03</totfact>
</mgrwt>
</event>
<event>
 4    1  0.1399921E-004  0.3850352E+03  0.7818608E-02  0.1049088E+00
          2   -1    0    0  501    0  0.00000000000E+00  0.00000000000E+00  0.21877320152E+04  0.21877320152E+04  0.25500000000E-02 0.  1.
         -2   -1    0    0    0  501 -0.00000000000E+00 -0.00000000000E+00 -0.16941297873E+02  0.16941298065E+02  0.25500000000E-02 0. -1.
    5000001    1    1    2    0    0  0.13285727087E+03  0.33596802938E+02  0.13511549276E+04  0.13640118907E+04  0.12700000000E+03 0.  0.
   -5000001    1    1    2    0    0 -0.13285727087E+03 -0.33596802938E+02  0.81963578977E+03  0.84066142261E+03  0.12700000000E+03 0.  0.
<mgrwt>
<rscale>  0 0.38503517E+03</rscale>
<asrwt>0</asrwt>
<pdfrwt beam="1">  1        2 0.31253310E+00 0.38503517E+03</pdfrwt>
<pdfrwt beam="2">  1       -2 0.24201857E-02 0.38503517E+03</pdfrwt>
<totfact> 0.41609693E+03</totfact>
</mgrwt>
</event>
<event>
 4    1  0.1399921E-004  0.3483917E+03  0.7818608E-02  0.1063277E+00
          2   -1    0    0  501    0  0.00000000000E+00  0.00000000000E+00  0.12636467858E+03  0.12636467860E+03  0.25500000000E-02 0.  1.
         -2   -1    0    0    0  501 -0.00000000000E+00 -0.00000000000E+00 -0.24013194900E+03  0.24013194901E+03  0.25500000000E-02 0. -1.
    5000001    1    1    2    0    0  0.36182748232E+02 -0.11348249239E+03 -0.51344130875E+02  0.18152875013E+03  0.12700000000E+03 0.  0.
   -5000001    1    1    2    0    0 -0.36182748232E+02  0.11348249239E+03 -0.62423139547E+02  0.18496787748E+03  0.12700000000E+03 0.  0.
<mgrwt>
<rscale>  0 0.34839171E+03</rscale>
<asrwt>0</asrwt>
<pdfrwt beam="1">  1        2 0.18052097E-01 0.34839171E+03</pdfrwt>
<pdfrwt beam="2">  1       -2 0.34304564E-01 0.34839171E+03</pdfrwt>
<totfact> 0.25076937E+03</totfact>
</mgrwt>
</event>
<event>
 4    1  0.1399921E-004  0.3251758E+03  0.7818608E-02  0.1073292E+00
         -2   -1    0    0    0  501 -0.00000000000E+00  0.00000000000E+00  0.11090344916E+02  0.11090345209E+02  0.25500000000E-02 0. -1.
          2   -1    0    0  501    0  0.00000000000E+00 -0.00000000000E+00 -0.23835897469E+04  0.23835897469E+04  0.25500000000E-02 0.  1.
    5000001    1    1    2    0    0  0.28108381759E+02  0.60336285214E+02 -0.62177605661E+03  0.63809483074E+03  0.12700000000E+03 0.  0.
   -5000001    1    1    2    0    0 -0.28108381759E+02 -0.60336285214E+02 -0.17507233454E+04  0.17565852614E+04  0.12700000000E+03 0.  0.
<mgrwt>
<rscale>  0 0.32517585E+03</rscale>
<asrwt>0</asrwt>
<pdfrwt beam="1">  1        2 0.34051249E+00 0.32517585E+03</pdfrwt>
<pdfrwt beam="2">  1       -2 0.15843365E-02 0.32517585E+03</pdfrwt>
<totfact> 0.62388511E+03</totfact>
</mgrwt>
</event>
<event>
 4    1  0.1399921E-004  0.4250942E+03  0.7818608E-02  0.1035421E+00
          2   -1    0    0  501    0  0.00000000000E+00  0.00000000000E+00  0.13039184453E+04  0.13039184453E+04  0.25500000000E-02 0.  1.
         -2   -1    0    0    0  501 -0.00000000000E+00 -0.00000000000E+00 -0.34646537672E+02  0.34646537766E+02  0.25500000000E-02 0. -1.
    5000001    1    1    2    0    0 -0.13172124808E+03  0.96272379427E+02  0.47946352321E+03  0.52214282369E+03  0.12700000000E+03 0.  0.
   -5000001    1    1    2    0    0  0.13172124808E+03 -0.96272379427E+02  0.78980838443E+03  0.81642215940E+03  0.12700000000E+03 0.  0.
<mgrwt>
<rscale>  0 0.42509415E+03</rscale>
<asrwt>0</asrwt>
<pdfrwt beam="1">  1        2 0.18627406E+00 0.42509415E+03</pdfrwt>
<pdfrwt beam="2">  1       -2 0.49495054E-02 0.42509415E+03</pdfrwt>
<totfact> 0.39335053E+03</totfact>
</mgrwt>
</event>
<event>
 4    1  0.1399921E-004  0.5688737E+03  0.7818608E-02  0.9972174E-01
         -2   -1    0    0    0  501 -0.00000000000E+00  0.00000000000E+00  0.12744741237E+03  0.12744741239E+03  0.25500000000E-02 0. -1.
          2   -1    0    0  501    0  0.00000000000E+00 -0.00000000000E+00 -0.63480543812E+03  0.63480543813E+03  0.25500000000E-02 0.  1.
    5000001    1    1    2    0    0 -0.16687174940E+03 -0.17989324940E+03 -0.16312143118E+03  0.32085099850E+03  0.12700000000E+03 0.  0.
   -5000001    1    1    2    0    0  0.16687174940E+03  0.17989324940E+03 -0.34423659457E+03  0.44140185202E+03  0.12700000000E+03 0.  0.
<mgrwt>
<rscale>  0 0.56887366E+03</rscale>
<asrwt>0</asrwt>
<pdfrwt beam="1">  1        2 0.90686489E-01 0.56887366E+03</pdfrwt>
<pdfrwt beam="2">  1       -2 0.18206774E-01 0.56887366E+03</pdfrwt>
<totfact> 0.12757636E+03</totfact>
</mgrwt>
</event>
<event>
 4    1  0.1399921E-004  0.3146068E+03  0.7818608E-02  0.1078159E+00
          2   -1    0    0  501    0  0.00000000000E+00  0.00000000000E+00  0.15158546615E+03  0.15158546618E+03  0.25500000000E-02 0.  1.
         -2   -1    0    0    0  501 -0.00000000000E+00 -0.00000000000E+00 -0.16323706463E+03  0.16323706465E+03  0.25500000000E-02 0. -1.
    5000001    1    1    2    0    0  0.48071154709E+02  0.18494151380E+02 -0.83095944103E+02  0.16027103755E+03  0.12700000000E+03 0.  0.
   -5000001    1    1    2    0    0 -0.48071154709E+02 -0.18494151380E+02  0.71444345632E+02  0.15455149327E+03  0.12700000000E+03 0.  0.
<mgrwt>
<rscale>  0 0.31460684E+03</rscale>
<asrwt>0</asrwt>
<pdfrwt beam="1">  1        2 0.21655067E-01 0.31460684E+03</pdfrwt>
<pdfrwt beam="2">  1       -2 0.23319581E-01 0.31460684E+03</pdfrwt>
<totfact> 0.40739478E+03</totfact>
</mgrwt>
</event>
<event>
 4    1  0.1399921E-004  0.1207379E+04  0.7818608E-02  0.9106422E-01
          2   -1    0    0  501    0  0.00000000000E+00  0.00000000000E+00  0.40020908059E+03  0.40020908060E+03  0.25500000000E-02 0.  1.
         -2   -1    0    0    0  501 -0.00000000000E+00 -0.00000000000E+00 -0.91062658455E+03  0.91062658456E+03  0.25500000000E-02 0. -1.
    5000001    1    1    2    0    0 -0.26470013817E+03 -0.25832911832E+03 -0.75452081407E+03  0.84984160605E+03  0.12700000000E+03 0.  0.
   -5000001    1    1    2    0    0  0.26470013817E+03  0.25832911832E+03  0.24410331011E+03  0.46099405910E+03  0.12700000000E+03 0.  0.
<mgrwt>
<rscale>  0 0.12073790E+04</rscale>
<asrwt>0</asrwt>
<pdfrwt beam="1">  1        2 0.57172726E-01 0.12073790E+04</pdfrwt>
<pdfrwt beam="2">  1       -2 0.13008951E+00 0.12073790E+04</pdfrwt>
<totfact> 0.36974846E+01</totfact>
</mgrwt>
</event>
<event>
 4    1  0.1399921E-004  0.2924365E+03  0.7818608E-02  0.1089084E+00
         -2   -1    0    0    0  501 -0.00000000000E+00  0.00000000000E+00  0.33826636895E+02  0.33826636991E+02  0.25500000000E-02 0. -1.
          2   -1    0    0  501    0  0.00000000000E+00 -0.00000000000E+00 -0.63203967597E+03  0.63203967597E+03  0.25500000000E-02 0.  1.
    5000001    1    1    2    0    0 -0.57855344839E+02 -0.36918123511E+02 -0.24616594857E+03  0.28537144742E+03  0.12700000000E+03 0.  0.
   -5000001    1    1    2    0    0  0.57855344839E+02  0.36918123511E+02 -0.35204709050E+03  0.38049486554E+03  0.12700000000E+03 0.  0.
<mgrwt>
<rscale>  0 0.29243650E+03</rscale>
<asrwt>0</asrwt>
<pdfrwt beam="1">  1        2 0.90291375E-01 0.29243650E+03</pdfrwt>
<pdfrwt beam="2">  1       -2 0.48323771E-02 0.29243650E+03</pdfrwt>
<totfact> 0.10661292E+04</totfact>
</mgrwt>
</event>
<event>
 4    1  0.1399921E-004  0.9975758E+03  0.7818608E-02  0.9311208E-01
          2   -1    0    0  501    0  0.00000000000E+00  0.00000000000E+00  0.12863118904E+04  0.12863118904E+04  0.25500000000E-02 0.  1.
         -2   -1    0    0    0  501 -0.00000000000E+00 -0.00000000000E+00 -0.19341293325E+03  0.19341293327E+03  0.25500000000E-02 0. -1.
    5000001    1    1    2    0    0 -0.34370930508E+03  0.84868391634E+02  0.10323850451E+04  0.10987659494E+04  0.12700000000E+03 0.  0.
   -5000001    1    1    2    0    0  0.34370930508E+03 -0.84868391634E+02  0.60513912049E+02  0.38095887423E+03  0.12700000000E+03 0.  0.
<mgrwt>
<rscale>  0 0.99757577E+03</rscale>
<asrwt>0</asrwt>
<pdfrwt beam="1">  1        2 0.18375884E+00 0.99757577E+03</pdfrwt>
<pdfrwt beam="2">  1       -2 0.27630419E-01 0.99757577E+03</pdfrwt>
<totfact> 0.22723857E+02</totfact>
</mgrwt>
</event>
<event>
 4    1  0.1399921E-004  0.4915577E+03  0.7818608E-02  0.1016006E+00
         -2   -1    0    0    0  501 -0.00000000000E+00  0.00000000000E+00  0.96067533274E+02  0.96067533308E+02  0.25500000000E-02 0. -1.
          2   -1    0    0  501    0  0.00000000000E+00 -0.00000000000E+00 -0.62879986532E+03  0.62879986532E+03  0.25500000000E-02 0.  1.
    5000001    1    1    2    0    0 -0.98076026924E+02 -0.18318073676E+03 -0.21736566140E+03  0.32642138431E+03  0.12700000000E+03 0.  0.
   -5000001    1    1    2    0    0  0.98076026924E+02  0.18318073676E+03 -0.31536667064E+03  0.39844601432E+03  0.12700000000E+03 0.  0.
<mgrwt>
<rscale>  0 0.49155774E+03</rscale>
<asrwt>0</asrwt>
<pdfrwt beam="1">  1        2 0.89828550E-01 0.49155774E+03</pdfrwt>
<pdfrwt beam="2">  1       -2 0.13723934E-01 0.49155774E+03</pdfrwt>
<totfact> 0.20796209E+03</totfact>
</mgrwt>
</event>
<event>
 4    1  0.1399921E-004  0.3661967E+03  0.7818608E-02  0.1056157E+00
         -2   -1    0    0    0  501 -0.00000000000E+00  0.00000000000E+00  0.51832207119E+02  0.51832207182E+02  0.25500000000E-02 0. -1.
          2   -1    0    0  501    0  0.00000000000E+00 -0.00000000000E+00 -0.64679884939E+03  0.64679884940E+03  0.25500000000E-02 0.  1.
    5000001    1    1    2    0    0  0.76381552907E+02 -0.46793339712E+01 -0.50242761898E+03  0.52384974000E+03  0.12700000000E+03 0.  0.
   -5000001    1    1    2    0    0 -0.76381552907E+02  0.46793339712E+01 -0.92539023293E+02  0.17478131657E+03  0.12700000000E+03 0.  0.
<mgrwt>
<rscale>  0 0.36619673E+03</rscale>
<asrwt>0</asrwt>
<pdfrwt beam="1">  1        2 0.92399831E-01 0.36619673E+03</pdfrwt>
<pdfrwt beam="2">  1       -2 0.74046014E-02 0.36619673E+03</pdfrwt>
<totfact> 0.54107418E+03</totfact>
</mgrwt>
</event>
<event>
 4    1  0.1399921E-004  0.5217171E+03  0.7818608E-02  0.1008261E+00
          2   -1    0    0  501    0  0.00000000000E+00  0.00000000000E+00  0.24826765590E+03  0.24826765591E+03  0.25500000000E-02 0.  1.
         -2   -1    0    0    0  501 -0.00000000000E+00 -0.00000000000E+00 -0.27408804344E+03  0.27408804345E+03  0.25500000000E-02 0. -1.
    5000001    1    1    2    0    0 -0.12642741067E+03  0.18948658987E+03 -0.18314777144E+02  0.26144500181E+03  0.12700000000E+03 0.  0.
   -5000001    1    1    2    0    0  0.12642741067E+03 -0.18948658987E+03 -0.75056103937E+01  0.26091069755E+03  0.12700000000E+03 0.  0.
<mgrwt>
<rscale>  0 0.52171715E+03</rscale>
<asrwt>0</asrwt>
<pdfrwt beam="1">  1        2 0.35466808E-01 0.52171715E+03</pdfrwt>
<pdfrwt beam="2">  1       -2 0.39155435E-01 0.52171715E+03</pdfrwt>
<totfact> 0.91118590E+02</totfact>
</mgrwt>
</event>
<event>
 4    1  0.1399921E-004  0.4815814E+03  0.7818608E-02  0.1018701E+00
         -2   -1    0    0    0  501 -0.00000000000E+00  0.00000000000E+00  0.75690178251E+02  0.75690178294E+02  0.25500000000E-02 0. -1.
          2   -1    0    0  501    0  0.00000000000E+00 -0.00000000000E+00 -0.76601974505E+03  0.76601974506E+03  0.25500000000E-02 0.  1.
    5000001    1    1    2    0    0  0.99217979078E+02 -0.17532283283E+03 -0.28290595766E+03  0.36979329897E+03  0.12700000000E+03 0.  0.
   -5000001    1    1    2    0    0 -0.99217979078E+02  0.17532283283E+03 -0.40742360914E+03  0.47191662438E+03  0.12700000000E+03 0.  0.
<mgrwt>
<rscale>  0 0.48158144E+03</rscale>
<asrwt>0</asrwt>
<pdfrwt beam="1">  1        2 0.10943139E+00 0.48158144E+03</pdfrwt>
<pdfrwt beam="2">  1       -2 0.10812883E-01 0.48158144E+03</pdfrwt>
<totfact> 0.24204161E+03</totfact>
</mgrwt>
</event>
<event>
 4    1  0.1399921E-004  0.3106849E+03  0.7818608E-02  0.1080018E+00
         -2   -1    0    0    0  501 -0.00000000000E+00  0.00000000000E+00  0.11891252290E+03  0.11891252293E+03  0.25500000000E-02 0. -1.
          2   -1    0    0  501    0  0.00000000000E+00 -0.00000000000E+00 -0.20293298432E+03  0.20293298434E+03  0.25500000000E-02 0.  1.
    5000001    1    1    2    0    0 -0.58607414662E+02 -0.61486957079E+02 -0.71067782393E+02  0.16850847052E+03  0.12700000000E+03 0.  0.
   -5000001    1    1    2    0    0  0.58607414662E+02  0.61486957079E+02 -0.12952679024E+02  0.15333703675E+03  0.12700000000E+03 0.  0.
<mgrwt>
<rscale>  0 0.31068488E+03</rscale>
<asrwt>0</asrwt>
<pdfrwt beam="1">  1        2 0.28990426E-01 0.31068488E+03</pdfrwt>
<pdfrwt beam="2">  1       -2 0.16987503E-01 0.31068488E+03</pdfrwt>
<totfact> 0.50547764E+03</totfact>
</mgrwt>
</event>
<event>
 4    1  0.1399921E-004  0.6282776E+03  0.7818608E-02  0.9848416E-01
         -2   -1    0    0    0  501 -0.00000000000E+00  0.00000000000E+00  0.17182192135E+04  0.17182192135E+04  0.25500000000E-02 0. -1.
          2   -1    0    0  501    0  0.00000000000E+00 -0.00000000000E+00 -0.57433411045E+02  0.57433411101E+02  0.25500000000E-02 0.  1.
    5000001    1    1    2    0    0  0.24068776549E+03 -0.72741459365E+02  0.12233524510E+04  0.12553653411E+04  0.12700000000E+03 0.  0.
   -5000001    1    1    2    0    0 -0.24068776549E+03  0.72741459365E+02  0.43743335144E+03  0.52028728345E+03  0.12700000000E+03 0.  0.
<mgrwt>
<rscale>  0 0.62827762E+03</rscale>
<asrwt>0</asrwt>
<pdfrwt beam="1">  1        2 0.82047727E-02 0.62827762E+03</pdfrwt>
<pdfrwt beam="2">  1       -2 0.24545990E+00 0.62827762E+03</pdfrwt>
<totfact> 0.60888721E+01</totfact>
</mgrwt>
</event>
<event>
 4    1  0.1399921E-004  0.6664072E+03  0.7818608E-02  0.9776470E-01
          2   -1    0    0  501    0  0.00000000000E+00  0.00000000000E+00  0.17195586015E+04  0.17195586015E+04  0.25500000000E-02 0.  1.
         -2   -1    0    0    0  501 -0.00000000000E+00 -0.00000000000E+00 -0.64565773228E+02  0.64565773278E+02  0.25500000000E-02 0. -1.
    5000001    1    1    2    0    0 -0.28682488624E+03 -0.10106861814E+03  0.95898758856E+03  0.10140362794E+04  0.12700000000E+03 0.  0.
   -5000001    1    1    2    0    0  0.28682488624E+03  0.10106861814E+03  0.69600523976E+03  0.77008809543E+03  0.12700000000E+03 0.  0.
<mgrwt>
<rscale>  0 0.66640718E+03</rscale>
<asrwt>0</asrwt>
<pdfrwt beam="1">  1        2 0.24565128E+00 0.66640718E+03</pdfrwt>
<pdfrwt beam="2">  1       -2 0.92236801E-02 0.66640718E+03</pdfrwt>
<totfact> 0.89239693E+02</totfact>
</mgrwt>
</event>
<event>
 4    1  0.1399921E-004  0.7518242E+03  0.7818608E-02  0.9632493E-01
         -2   -1    0    0    0  501 -0.00000000000E+00  0.00000000000E+00  0.70650620999E+02  0.70650621045E+02  0.25500000000E-02 0. -1.
          2   -1    0    0  501    0  0.00000000000E+00 -0.00000000000E+00 -0.20001227079E+04  0.20001227079E+04  0.25500000000E-02 0.  1.
    5000001    1    1    2    0    0 -0.33493130246E+03 -0.11401432492E+03 -0.96023729898E+03  0.10311948962E+04  0.12700000000E+03 0.  0.
   -5000001    1    1    2    0    0  0.33493130246E+03  0.11401432492E+03 -0.96923478797E+03  0.10395784328E+04  0.12700000000E+03 0.  0.
<mgrwt>
<rscale>  0 0.75182421E+03</rscale>
<asrwt>0</asrwt>
<pdfrwt beam="1">  1        2 0.28573178E+00 0.75182421E+03</pdfrwt>
<pdfrwt beam="2">  1       -2 0.10092947E-01 0.75182421E+03</pdfrwt>
<totfact> 0.55308575E+02</totfact>
</mgrwt>
</event>
<event>
 4    1  0.1399921E-004  0.3878536E+03  0.7818608E-02  0.1048069E+00
         -2   -1    0    0    0  501 -0.00000000000E+00  0.00000000000E+00  0.44340335219E+02  0.44340335292E+02  0.25500000000E-02 0. -1.
          2   -1    0    0  501    0  0.00000000000E+00 -0.00000000000E+00 -0.84815797081E+03  0.84815797081E+03  0.25500000000E-02 0.  1.
    5000001    1    1    2    0    0 -0.50340650763E+02  0.10138545035E+03 -0.61611613700E+03  0.63917234369E+03  0.12700000000E+03 0.  0.
   -5000001    1    1    2    0    0  0.50340650763E+02 -0.10138545035E+03 -0.18770149859E+03  0.25332596242E+03  0.12700000000E+03 0.  0.
<mgrwt>
<rscale>  0 0.38785363E+03</rscale>
<asrwt>0</asrwt>
<pdfrwt beam="1">  1        2 0.12116541E+00 0.38785363E+03</pdfrwt>
<pdfrwt beam="2">  1       -2 0.63343341E-02 0.38785363E+03</pdfrwt>
<totfact> 0.49579380E+03</totfact>
</mgrwt>
</event>
<event>
 4    1  0.1399921E-004  0.4616797E+03  0.7818608E-02  0.1024295E+00
          2   -1    0    0  501    0  0.00000000000E+00  0.00000000000E+00  0.13588966877E+04  0.13588966877E+04  0.25500000000E-02 0.  1.
         -2   -1    0    0    0  501 -0.00000000000E+00 -0.00000000000E+00 -0.39213448151E+02  0.39213448233E+02  0.25500000000E-02 0. -1.
    5000001    1    1    2    0    0 -0.15007297278E+03 -0.11966303005E+03  0.71374957092E+03  0.74993905613E+03  0.12700000000E+03 0.  0.
   -5000001    1    1    2    0    0  0.15007297278E+03  0.11966303005E+03  0.60593366866E+03  0.64817107983E+03  0.12700000000E+03 0.  0.
<mgrwt>
<rscale>  0 0.46167965E+03</rscale>
<asrwt>0</asrwt>
<pdfrwt beam="1">  1        2 0.19412813E+00 0.46167965E+03</pdfrwt>
<pdfrwt beam="2">  1       -2 0.56019201E-02 0.46167965E+03</pdfrwt>
<totfact> 0.30371364E+03</totfact>
</mgrwt>
</event>
<event>
 4    1  0.1399921E-004  0.3153008E+03  0.7818608E-02  0.1077833E+00
          2   -1    0    0  501    0  0.00000000000E+00  0.00000000000E+00  0.70461003574E+03  0.70461003575E+03  0.25500000000E-02 0.  1.
         -2   -1    0    0    0  501 -0.00000000000E+00 -0.00000000000E+00 -0.35272921466E+02  0.35272921558E+02  0.25500000000E-02 0. -1.
    5000001    1    1    2    0    0  0.23763964559E+02  0.76530472112E+02  0.22205613152E+03  0.26806634388E+03  0.12700000000E+03 0.  0.
   -5000001    1    1    2    0    0 -0.23763964559E+02 -0.76530472112E+02  0.44728098275E+03  0.47181661343E+03  0.12700000000E+03 0.  0.
<mgrwt>
<rscale>  0 0.31530084E+03</rscale>
<asrwt>0</asrwt>
<pdfrwt beam="1">  1        2 0.10065858E+00 0.31530084E+03</pdfrwt>
<pdfrwt beam="2">  1       -2 0.50389887E-02 0.31530084E+03</pdfrwt>
<totfact> 0.88250927E+03</totfact>
</mgrwt>
</event>
<event>
 4    1  0.1399921E-004  0.3466214E+03  0.7818608E-02  0.1064010E+00
          2   -1    0    0  501    0  0.00000000000E+00  0.00000000000E+00  0.71709806712E+02  0.71709806758E+02  0.25500000000E-02 0.  1.
         -2   -1    0    0    0  501 -0.00000000000E+00 -0.00000000000E+00 -0.41886310625E+03  0.41886310625E+03  0.25500000000E-02 0. -1.
    5000001    1    1    2    0    0  0.99143977230E+02 -0.13916236892E+02 -0.26178513271E+03  0.30770707756E+03  0.12700000000E+03 0.  0.
   -5000001    1    1    2    0    0 -0.99143977230E+02  0.13916236892E+02 -0.85368166825E+02  0.18286583546E+03  0.12700000000E+03 0.  0.
<mgrwt>
<rscale>  0 0.34662136E+03</rscale>
<asrwt>0</asrwt>
<pdfrwt beam="1">  1        2 0.10244258E-01 0.34662136E+03</pdfrwt>
<pdfrwt beam="2">  1       -2 0.59837586E-01 0.34662136E+03</pdfrwt>
<totfact> 0.16626391E+03</totfact>
</mgrwt>
</event>
<event>
 4    1  0.1399921E-004  0.8524399E+03  0.7818608E-02  0.9487068E-01
         -2   -1    0    0    0  501 -0.00000000000E+00  0.00000000000E+00  0.79817927656E+02  0.79817927696E+02  0.25500000000E-02 0.  1.
          2   -1    0    0  501    0  0.00000000000E+00 -0.00000000000E+00 -0.22759728332E+04  0.22759728332E+04  0.25500000000E-02 0. -1.
    5000001    1    1    2    0    0  0.30167703303E+03  0.27232739436E+03 -0.10454100737E+04  0.11287969101E+04  0.12700000000E+03 0.  0.
   -5000001    1    1    2    0    0 -0.30167703303E+03 -0.27232739436E+03 -0.11507448318E+04  0.12269938508E+04  0.12700000000E+03 0.  0.
<mgrwt>
<rscale>  0 0.85243987E+03</rscale>
<asrwt>0</asrwt>
<pdfrwt beam="1">  1        2 0.32513893E+00 0.85243987E+03</pdfrwt>
<pdfrwt beam="2">  1       -2 0.11402563E-01 0.85243987E+03</pdfrwt>
<totfact> 0.32571689E+02</totfact>
</mgrwt>
</event>
<event>
 4    1  0.1399921E-004  0.3567158E+03  0.7818608E-02  0.1059892E+00
          2   -1    0    0  501    0  0.00000000000E+00  0.00000000000E+00  0.10432952746E+04  0.10432952746E+04  0.25500000000E-02 0.  1.
         -2   -1    0    0    0  501 -0.00000000000E+00 -0.00000000000E+00 -0.30491404141E+02  0.30491404248E+02  0.25500000000E-02 0. -1.
    5000001    1    1    2    0    0  0.32366552646E+02  0.77621462814E+02  0.22708739507E+03  0.27344171266E+03  0.12700000000E+03 0.  0.
   -5000001    1    1    2    0    0 -0.32366552646E+02 -0.77621462814E+02  0.78571647536E+03  0.80034496617E+03  0.12700000000E+03 0.  0.
<mgrwt>
<rscale>  0 0.35671579E+03</rscale>
<asrwt>0</asrwt>
<pdfrwt beam="1">  1        2 0.14904214E+00 0.35671579E+03</pdfrwt>
<pdfrwt beam="2">  1       -2 0.43559162E-02 0.35671579E+03</pdfrwt>
<totfact> 0.66683125E+03</totfact>
</mgrwt>
</event>
<event>
 4    1  0.1399921E-004  0.6865091E+03  0.7818608E-02  0.9740586E-01
          2   -1    0    0  501    0  0.00000000000E+00  0.00000000000E+00  0.61402179400E+03  0.61402179400E+03  0.25500000000E-02 0.  1.
         -2   -1    0    0    0  501 -0.00000000000E+00 -0.00000000000E+00 -0.19188845825E+03  0.19188845826E+03  0.25500000000E-02 0. -1.
    5000001    1    1    2    0    0  0.10840398783E+02 -0.28438415610E+03  0.37997662572E+03  0.49142964764E+03  0.12700000000E+03 0.  0.
   -5000001    1    1    2    0    0 -0.10840398783E+02  0.28438415610E+03  0.42156710028E+02  0.31448060463E+03  0.12700000000E+03 0.  0.
<mgrwt>
<rscale>  0 0.68650913E+03</rscale>
<asrwt>0</asrwt>
<pdfrwt beam="1">  1        2 0.87717401E-01 0.68650913E+03</pdfrwt>
<pdfrwt beam="2">  1       -2 0.27412636E-01 0.68650913E+03</pdfrwt>
<totfact> 0.64203268E+02</totfact>
</mgrwt>
</event>
<event>
 4    1  0.1399921E-004  0.3874318E+03  0.7818608E-02  0.1048221E+00
          2   -1    0    0  501    0  0.00000000000E+00  0.00000000000E+00  0.23114938875E+03  0.23114938876E+03  0.25500000000E-02 0.  1.
         -2   -1    0    0    0  501 -0.00000000000E+00 -0.00000000000E+00 -0.16234457204E+03  0.16234457206E+03  0.25500000000E-02 0. -1.
    5000001    1    1    2    0    0  0.12604827716E+03 -0.70043475543E+02  0.59334256915E+02  0.20110646605E+03  0.12700000000E+03 0.  0.
   -5000001    1    1    2    0    0 -0.12604827716E+03  0.70043475543E+02  0.94705597918E+01  0.19238749477E+03  0.12700000000E+03 0.  0.
<mgrwt>
<rscale>  0 0.38743179E+03</rscale>
<asrwt>0</asrwt>
<pdfrwt beam="1">  1        2 0.33021341E-01 0.38743179E+03</pdfrwt>
<pdfrwt beam="2">  1       -2 0.23192082E-01 0.38743179E+03</pdfrwt>
<totfact> 0.25778107E+03</totfact>
</mgrwt>
</event>
<event>
 4    1  0.1399921E-004  0.5939087E+03  0.7818608E-02  0.9918125E-01
          2   -1    0    0  501    0  0.00000000000E+00  0.00000000000E+00  0.10179826836E+04  0.10179826836E+04  0.25500000000E-02 0.  1.
         -2   -1    0    0    0  501 -0.00000000000E+00 -0.00000000000E+00 -0.86624144386E+02  0.86624144423E+02  0.25500000000E-02 0. -1.
    5000001    1    1    2    0    0 -0.19974053584E+03  0.15923912485E+03  0.31231418697E+03  0.42299235445E+03  0.12700000000E+03 0.  0.
   -5000001    1    1    2    0    0  0.19974053584E+03 -0.15923912485E+03  0.61904435221E+03  0.68161447354E+03  0.12700000000E+03 0.  0.
<mgrwt>
<rscale>  0 0.59390868E+03</rscale>
<asrwt>0</asrwt>
<pdfrwt beam="1">  1        2 0.14542609E+00 0.59390868E+03</pdfrwt>
<pdfrwt beam="2">  1       -2 0.12374878E-01 0.59390868E+03</pdfrwt>
<totfact> 0.13305213E+03</totfact>
</mgrwt>
</event>
<event>
 4    1  0.1399921E-004  0.3608358E+03  0.7818608E-02  0.1058253E+00
         -2   -1    0    0    0  501 -0.00000000000E+00  0.00000000000E+00  0.56217597079E+02  0.56217597137E+02  0.25500000000E-02 0. -1.
          2   -1    0    0  501    0  0.00000000000E+00 -0.00000000000E+00 -0.57901109608E+03  0.57901109608E+03  0.25500000000E-02 0.  1.
    5000001    1    1    2    0    0 -0.46279420905E+02 -0.11735727064E+03 -0.30103977572E+03  0.35024057494E+03  0.12700000000E+03 0.  0.
   -5000001    1    1    2    0    0  0.46279420905E+02  0.11735727064E+03 -0.22175372328E+03  0.28498811828E+03  0.12700000000E+03 0.  0.
<mgrwt>
<rscale>  0 0.36083577E+03</rscale>
<asrwt>0</asrwt>
<pdfrwt beam="1">  1        2 0.82715867E-01 0.36083577E+03</pdfrwt>
<pdfrwt beam="2">  1       -2 0.80310857E-02 0.36083577E+03</pdfrwt>
<totfact> 0.54138889E+03</totfact>
</mgrwt>
</event>
<event>
 4    1  0.1399921E-004  0.8523864E+03  0.7818608E-02  0.9487140E-01
          2   -1    0    0  501    0  0.00000000000E+00  0.00000000000E+00  0.19305274144E+04  0.19305274144E+04  0.25500000000E-02 0.  1.
         -2   -1    0    0    0  501 -0.00000000000E+00 -0.00000000000E+00 -0.94088608396E+02  0.94088608431E+02  0.25500000000E-02 0. -1.
    5000001    1    1    2    0    0 -0.32160577772E+03 -0.23139872250E+03  0.69877061481E+03  0.81325581287E+03  0.12700000000E+03 0.  0.
   -5000001    1    1    2    0    0  0.32160577772E+03  0.23139872250E+03  0.11376681911E+04  0.12113602099E+04  0.12700000000E+03 0.  0.
<mgrwt>
<rscale>  0 0.85238639E+03</rscale>
<asrwt>0</asrwt>
<pdfrwt beam="1">  1        2 0.27578963E+00 0.85238639E+03</pdfrwt>
<pdfrwt beam="2">  1       -2 0.13441230E-01 0.85238639E+03</pdfrwt>
<totfact> 0.37141152E+02</totfact>
</mgrwt>
</event>
<event>
 4    1  0.1399921E-004  0.3968913E+03  0.7818608E-02  0.1044861E+00
          2   -1    0    0  501    0  0.00000000000E+00  0.00000000000E+00  0.11512391666E+04  0.11512391666E+04  0.25500000000E-02 0.  1.
         -2   -1    0    0    0  501 -0.00000000000E+00 -0.00000000000E+00 -0.34207212563E+02  0.34207212658E+02  0.25500000000E-02 0. -1.
    5000001    1    1    2    0    0  0.28414797030E+02  0.12100914706E+03  0.82232360255E+03  0.84130596199E+03  0.12700000000E+03 0.  0.
   -5000001    1    1    2    0    0 -0.28414797030E+02 -0.12100914706E+03  0.29470835144E+03  0.34414041723E+03  0.12700000000E+03 0.  0.
<mgrwt>
<rscale>  0 0.39689133E+03</rscale>
<asrwt>0</asrwt>
<pdfrwt beam="1">  1        2 0.16446272E+00 0.39689133E+03</pdfrwt>
<pdfrwt beam="2">  1       -2 0.48867451E-02 0.39689133E+03</pdfrwt>
<totfact> 0.48606080E+03</totfact>
</mgrwt>
</event>
<event>
 4    1  0.1399921E-004  0.3828968E+03  0.7818608E-02  0.1049868E+00
          2   -1    0    0  501    0  0.00000000000E+00  0.00000000000E+00  0.12467009941E+04  0.12467009941E+04  0.25500000000E-02 0.  1.
         -2   -1    0    0    0  501 -0.00000000000E+00 -0.00000000000E+00 -0.29399580798E+02  0.29399580909E+02  0.25500000000E-02 0. -1.
    5000001    1    1    2    0    0  0.23916197742E+02  0.13736585817E+03  0.49901764685E+03  0.53346881387E+03  0.12700000000E+03 0.  0.
   -5000001    1    1    2    0    0 -0.23916197742E+02 -0.13736585817E+03  0.71828376646E+03  0.74263176114E+03  0.12700000000E+03 0.  0.
<mgrwt>
<rscale>  0 0.38289678E+03</rscale>
<asrwt>0</asrwt>
<pdfrwt beam="1">  1        2 0.17810012E+00 0.38289678E+03</pdfrwt>
<pdfrwt beam="2">  1       -2 0.41999407E-02 0.38289678E+03</pdfrwt>
<totfact> 0.54246532E+03</totfact>
</mgrwt>
</event>
<event>
 4    1  0.1399921E-004  0.3059833E+03  0.7818608E-02  0.1082287E+00
         -2   -1    0    0    0  501 -0.00000000000E+00  0.00000000000E+00  0.46788890849E+03  0.46788890849E+03  0.25500000000E-02 0. -1.
          2   -1    0    0  501    0  0.00000000000E+00 -0.00000000000E+00 -0.50025659099E+02  0.50025659164E+02  0.25500000000E-02 0.  1.
    5000001    1    1    2    0    0 -0.49551638661E+02 -0.68762866128E+02  0.19254248441E+03  0.24573421609E+03  0.12700000000E+03 0.  0.
   -5000001    1    1    2    0    0  0.49551638661E+02  0.68762866128E+02  0.22532076497E+03  0.27218035157E+03  0.12700000000E+03 0.  0.
<mgrwt>
<rscale>  0 0.30598334E+03</rscale>
<asrwt>0</asrwt>
<pdfrwt beam="1">  1        2 0.71465225E-02 0.30598334E+03</pdfrwt>
<pdfrwt beam="2">  1       -2 0.66841275E-01 0.30598334E+03</pdfrwt>
<totfact> 0.20750885E+03</totfact>
</mgrwt>
</event>
<event>
 4    1  0.1399921E-004  0.3833336E+03  0.7818608E-02  0.1049708E+00
         -2   -1    0    0    0  501 -0.00000000000E+00  0.00000000000E+00  0.46330081116E+02  0.46330081186E+02  0.25500000000E-02 0. -1.
          2   -1    0    0  501    0  0.00000000000E+00 -0.00000000000E+00 -0.79292253051E+03  0.79292253051E+03  0.25500000000E-02 0.  1.
    5000001    1    1    2    0    0  0.13261101466E+02 -0.13871686186E+03 -0.44878734618E+03  0.48678260720E+03  0.12700000000E+03 0.  0.
   -5000001    1    1    2    0    0 -0.13261101466E+02  0.13871686186E+03 -0.29780510321E+03  0.35247000450E+03  0.12700000000E+03 0.  0.
<mgrwt>
<rscale>  0 0.38333362E+03</rscale>
<asrwt>0</asrwt>
<pdfrwt beam="1">  1        2 0.11327464E+00 0.38333362E+03</pdfrwt>
<pdfrwt beam="2">  1       -2 0.66185835E-02 0.38333362E+03</pdfrwt>
<totfact> 0.50422346E+03</totfact>
</mgrwt>
</event>
<event>
 4    1  0.1399921E-004  0.6430415E+03  0.7818608E-02  0.9819925E-01
          2   -1    0    0  501    0  0.00000000000E+00  0.00000000000E+00  0.52901308240E+03  0.52901308240E+03  0.25500000000E-02 0. -1.
         -2   -1    0    0    0  501 -0.00000000000E+00 -0.00000000000E+00 -0.19541218029E+03  0.19541218031E+03  0.25500000000E-02 0.  1.
    5000001    1    1    2    0    0  0.20725954713E+03  0.19207400239E+03  0.69905380722E+02  0.31759204103E+03  0.12700000000E+03 0.  0.
   -5000001    1    1    2    0    0 -0.20725954713E+03 -0.19207400239E+03  0.26369552138E+03  0.40683322169E+03  0.12700000000E+03 0.  0.
<mgrwt>
<rscale>  0 0.64304152E+03</rscale>
<asrwt>0</asrwt>
<pdfrwt beam="1">  1        2 0.75573297E-01 0.64304152E+03</pdfrwt>
<pdfrwt beam="2">  1       -2 0.27916026E-01 0.64304152E+03</pdfrwt>
<totfact> 0.73983426E+02</totfact>
</mgrwt>
</event>
<event>
 4    1  0.1399921E-004  0.5046346E+03  0.7818608E-02  0.1012576E+00
         -2   -1    0    0    0  501 -0.00000000000E+00  0.00000000000E+00  0.26982013179E+03  0.26982013180E+03  0.25500000000E-02 0. -1.
          2   -1    0    0  501    0  0.00000000000E+00 -0.00000000000E+00 -0.23594987730E+03  0.23594987732E+03  0.25500000000E-02 0.  1.
    5000001    1    1    2    0    0 -0.48401701932E+02 -0.19104534123E+03  0.11038642548E+03  0.25914322311E+03  0.12700000000E+03 0.  0.
   -5000001    1    1    2    0    0  0.48401701932E+02  0.19104534123E+03 -0.76516170988E+02  0.24662678601E+03  0.12700000000E+03 0.  0.
<mgrwt>
<rscale>  0 0.50463463E+03</rscale>
<asrwt>0</asrwt>
<pdfrwt beam="1">  1        2 0.33707125E-01 0.50463463E+03</pdfrwt>
<pdfrwt beam="2">  1       -2 0.38545733E-01 0.50463463E+03</pdfrwt>
<totfact> 0.99365917E+02</totfact>
</mgrwt>
</event>
<event>
 4    1  0.1399921E-004  0.4177168E+03  0.7818608E-02  0.1037812E+00
         -2   -1    0    0    0  501 -0.00000000000E+00  0.00000000000E+00  0.25558845050E+03  0.25558845052E+03  0.25500000000E-02 0. -1.
          2   -1    0    0  501    0  0.00000000000E+00 -0.00000000000E+00 -0.17067214673E+03  0.17067214675E+03  0.25500000000E-02 0.  1.
    5000001    1    1    2    0    0  0.41475714336E+02 -0.13930444547E+03 -0.38966538223E+02  0.19690950843E+03  0.12700000000E+03 0.  0.
   -5000001    1    1    2    0    0 -0.41475714336E+02  0.13930444547E+03  0.12388284200E+03  0.22935108884E+03  0.12700000000E+03 0.  0.
<mgrwt>
<rscale>  0 0.41771679E+03</rscale>
<asrwt>0</asrwt>
<pdfrwt beam="1">  1        2 0.24381735E-01 0.41771679E+03</pdfrwt>
<pdfrwt beam="2">  1       -2 0.36512636E-01 0.41771679E+03</pdfrwt>
<totfact> 0.15824629E+03</totfact>
</mgrwt>
</event>
<event>
 4    1  0.1399921E-004  0.7250233E+03  0.7818608E-02  0.9675371E-01
          2   -1    0    0  501    0  0.00000000000E+00  0.00000000000E+00  0.72965719037E+03  0.72965719037E+03  0.25500000000E-02 0.  1.
         -2   -1    0    0    0  501 -0.00000000000E+00 -0.00000000000E+00 -0.18010470709E+03  0.18010470711E+03  0.25500000000E-02 0. -1.
    5000001    1    1    2    0    0  0.33764789709E+03  0.48972192971E+01  0.31923968181E+03  0.48173961805E+03  0.12700000000E+03 0.  0.
   -5000001    1    1    2    0    0 -0.33764789709E+03 -0.48972192971E+01  0.23031280147E+03  0.42802227942E+03  0.12700000000E+03 0.  0.
<mgrwt>
<rscale>  0 0.72502329E+03</rscale>
<asrwt>0</asrwt>
<pdfrwt beam="1">  1        2 0.10423674E+00 0.72502329E+03</pdfrwt>
<pdfrwt beam="2">  1       -2 0.25729244E-01 0.72502329E+03</pdfrwt>
<totfact> 0.58348397E+02</totfact>
</mgrwt>
</event>
<event>
 4    1  0.1399921E-004  0.3338565E+03  0.7818608E-02  0.1069443E+00
         -2   -1    0    0    0  501 -0.00000000000E+00  0.00000000000E+00  0.17043565033E+02  0.17043565224E+02  0.25500000000E-02 0. -1.
          2   -1    0    0  501    0  0.00000000000E+00 -0.00000000000E+00 -0.16349299757E+04  0.16349299757E+04  0.25500000000E-02 0.  1.
    5000001    1    1    2    0    0  0.45967459006E+02  0.96774173181E+02 -0.88838962649E+03  0.90379387934E+03  0.12700000000E+03 0.  0.
   -5000001    1    1    2    0    0 -0.45967459006E+02 -0.96774173181E+02 -0.72949678417E+03  0.74817966157E+03  0.12700000000E+03 0.  0.
<mgrwt>
<rscale>  0 0.33385647E+03</rscale>
<asrwt>0</asrwt>
<pdfrwt beam="1">  1        2 0.23356133E+00 0.33385647E+03</pdfrwt>
<pdfrwt beam="2">  1       -2 0.24347961E-02 0.33385647E+03</pdfrwt>
<totfact> 0.77386957E+03</totfact>
</mgrwt>
</event>
<event>
 4    1  0.1399921E-004  0.5597949E+03  0.7818608E-02  0.9992519E-01
         -2   -1    0    0    0  501 -0.00000000000E+00  0.00000000000E+00  0.27822974871E+03  0.27822974872E+03  0.25500000000E-02 0. -1.
          2   -1    0    0  501    0  0.00000000000E+00 -0.00000000000E+00 -0.28157511699E+03  0.28157511700E+03  0.25500000000E-02 0.  1.
    5000001    1    1    2    0    0 -0.65961776057E+02 -0.22763538633E+03 -0.79422056610E+02  0.28036705956E+03  0.12700000000E+03 0.  0.
   -5000001    1    1    2    0    0  0.65961776057E+02  0.22763538633E+03  0.76076688328E+02  0.27943780617E+03  0.12700000000E+03 0.  0.
<mgrwt>
<rscale>  0 0.55979487E+03</rscale>
<asrwt>0</asrwt>
<pdfrwt beam="1">  1        2 0.40225017E-01 0.55979487E+03</pdfrwt>
<pdfrwt beam="2">  1       -2 0.39747107E-01 0.55979487E+03</pdfrwt>
<totfact> 0.76999514E+02</totfact>
</mgrwt>
</event>
<event>
 4    1  0.1399921E-004  0.2870579E+03  0.7818608E-02  0.1091895E+00
          2   -1    0    0  501    0  0.00000000000E+00  0.00000000000E+00  0.22783269175E+02  0.22783269317E+02  0.25500000000E-02 0.  1.
         -2   -1    0    0    0  501 -0.00000000000E+00 -0.00000000000E+00 -0.90419692458E+03  0.90419692458E+03  0.25500000000E-02 0. -1.
    5000001    1    1    2    0    0 -0.41911329294E+02  0.50407535811E+02 -0.48331362145E+03  0.50400251574E+03  0.12700000000E+03 0.  0.
   -5000001    1    1    2    0    0  0.41911329294E+02 -0.50407535811E+02 -0.39810003395E+03  0.42297767816E+03  0.12700000000E+03 0.  0.
<mgrwt>
<rscale>  0 0.28705792E+03</rscale>
<asrwt>0</asrwt>
<pdfrwt beam="1">  1        2 0.32547533E-02 0.28705792E+03</pdfrwt>
<pdfrwt beam="2">  1       -2 0.12917097E+00 0.28705792E+03</pdfrwt>
<totfact> 0.13009991E+03</totfact>
</mgrwt>
</event>
<event>
 4    1  0.1399921E-004  0.3628549E+03  0.7818608E-02  0.1057459E+00
          2   -1    0    0  501    0  0.00000000000E+00  0.00000000000E+00  0.48639107198E+03  0.48639107199E+03  0.25500000000E-02 0.  1.
         -2   -1    0    0    0  501 -0.00000000000E+00 -0.00000000000E+00 -0.67673758379E+02  0.67673758427E+02  0.25500000000E-02 0. -1.
    5000001    1    1    2    0    0  0.74033620144E+02 -0.71985875533E+02  0.32885211340E+03  0.36733588945E+03  0.12700000000E+03 0.  0.
   -5000001    1    1    2    0    0 -0.74033620144E+02  0.71985875533E+02  0.89865200202E+02  0.18672894097E+03  0.12700000000E+03 0.  0.
<mgrwt>
<rscale>  0 0.36285486E+03</rscale>
<asrwt>0</asrwt>
<pdfrwt beam="1">  1        2 0.69484440E-01 0.36285486E+03</pdfrwt>
<pdfrwt beam="2">  1       -2 0.96676796E-02 0.36285486E+03</pdfrwt>
<totfact> 0.49129994E+03</totfact>
</mgrwt>
</event>
<event>
 4    1  0.1399921E-004  0.2952763E+03  0.7818608E-02  0.1087626E+00
          2   -1    0    0  501    0  0.00000000000E+00  0.00000000000E+00  0.21050937495E+04  0.21050937495E+04  0.25500000000E-02 0.  1.
         -2   -1    0    0    0  501 -0.00000000000E+00 -0.00000000000E+00 -0.10354420437E+02  0.10354420751E+02  0.25500000000E-02 0. -1.
    5000001    1    1    2    0    0  0.38752400660E+02  0.37168151082E+02  0.66930050685E+03  0.68335597494E+03  0.12700000000E+03 0.  0.
   -5000001    1    1    2    0    0 -0.38752400660E+02 -0.37168151082E+02  0.14254388222E+04  0.14320921953E+04  0.12700000000E+03 0.  0.
<mgrwt>
<rscale>  0 0.29527632E+03</rscale>
<asrwt>0</asrwt>
<pdfrwt beam="1">  1        2 0.30072770E+00 0.29527632E+03</pdfrwt>
<pdfrwt beam="2">  1       -2 0.14792028E-02 0.29527632E+03</pdfrwt>
<totfact> 0.94622862E+03</totfact>
</mgrwt>
</event>
<event>
 4    1  0.1399921E-004  0.3388361E+03  0.7818608E-02  0.1067293E+00
         -2   -1    0    0    0  501 -0.00000000000E+00  0.00000000000E+00  0.65914451678E+02  0.65914451727E+02  0.25500000000E-02 0. -1.
          2   -1    0    0  501    0  0.00000000000E+00 -0.00000000000E+00 -0.43545031320E+03  0.43545031321E+03  0.25500000000E-02 0.  1.
    5000001    1    1    2    0    0  0.50421511306E+02  0.32833664816E+02 -0.44760634056E+02  0.14748861891E+03  0.12700000000E+03 0.  0.
   -5000001    1    1    2    0    0 -0.50421511306E+02 -0.32833664816E+02 -0.32477522746E+03  0.35387614602E+03  0.12700000000E+03 0.  0.
<mgrwt>
<rscale>  0 0.33883606E+03</rscale>
<asrwt>0</asrwt>
<pdfrwt beam="1">  1        2 0.62207186E-01 0.33883606E+03</pdfrwt>
<pdfrwt beam="2">  1       -2 0.94163505E-02 0.33883606E+03</pdfrwt>
<totfact> 0.57796617E+03</totfact>
</mgrwt>
</event>
<event>
 4    1  0.1399921E-004  0.3862107E+03  0.7818608E-02  0.1048662E+00
          2   -1    0    0  501    0  0.00000000000E+00  0.00000000000E+00  0.33523306719E+02  0.33523306816E+02  0.25500000000E-02 0.  1.
         -2   -1    0    0    0  501 -0.00000000000E+00 -0.00000000000E+00 -0.11123508196E+04  0.11123508196E+04  0.25500000000E-02 0. -1.
    5000001    1    1    2    0    0 -0.82562006422E+02 -0.11603520377E+03 -0.62742941542E+03  0.65580280935E+03  0.12700000000E+03 0.  0.
   -5000001    1    1    2    0    0  0.82562006422E+02  0.11603520377E+03 -0.45139809743E+03  0.49007131704E+03  0.12700000000E+03 0.  0.
<mgrwt>
<rscale>  0 0.38621071E+03</rscale>
<asrwt>0</asrwt>
<pdfrwt beam="1">  1        2 0.47890445E-02 0.38621071E+03</pdfrwt>
<pdfrwt beam="2">  1       -2 0.15890724E+00 0.38621071E+03</pdfrwt>
<totfact> 0.45614529E+02</totfact>
</mgrwt>
</event>
<event>
 4    1  0.1399921E-004  0.4673620E+03  0.7818608E-02  0.1022667E+00
         -2   -1    0    0    0  501 -0.00000000000E+00  0.00000000000E+00  0.18501910465E+02  0.18501910641E+02  0.25500000000E-02 0. -1.
          2   -1    0    0  501    0  0.00000000000E+00 -0.00000000000E+00 -0.29514140430E+04  0.29514140430E+04  0.25500000000E-02 0.  1.
    5000001    1    1    2    0    0 -0.15218655102E+03  0.15673761806E+02 -0.68632531945E+03  0.71454730930E+03  0.12700000000E+03 0.  0.
   -5000001    1    1    2    0    0  0.15218655102E+03 -0.15673761806E+02 -0.22465868130E+04  0.22553686443E+04  0.12700000000E+03 0.  0.
<mgrwt>
<rscale>  0 0.46736195E+03</rscale>
<asrwt>0</asrwt>
<pdfrwt beam="1">  1        2 0.42163028E+00 0.46736195E+03</pdfrwt>
<pdfrwt beam="2">  1       -2 0.26431320E-02 0.46736195E+03</pdfrwt>
<totfact> 0.14743786E+03</totfact>
</mgrwt>
</event>
<event>
 4    1  0.1399921E-004  0.9132995E+03  0.7818608E-02  0.9409107E-01
         -2   -1    0    0    0  501 -0.00000000000E+00  0.00000000000E+00  0.16974840565E+03  0.16974840567E+03  0.25500000000E-02 0. -1.
          2   -1    0    0  501    0  0.00000000000E+00 -0.00000000000E+00 -0.12284592407E+04  0.12284592407E+04  0.25500000000E-02 0.  1.
    5000001    1    1    2    0    0 -0.26951793455E+03 -0.25141181619E+02 -0.10577585426E+04  0.10992061365E+04  0.12700000000E+03 0.  0.
   -5000001    1    1    2    0    0  0.26951793455E+03  0.25141181619E+02 -0.95229245359E+00  0.29900150989E+03  0.12700000000E+03 0.  0.
<mgrwt>
<rscale>  0 0.91329951E+03</rscale>
<asrwt>0</asrwt>
<pdfrwt beam="1">  1        2 0.17549417E+00 0.91329951E+03</pdfrwt>
<pdfrwt beam="2">  1       -2 0.24249773E-01 0.91329951E+03</pdfrwt>
<totfact> 0.31172106E+02</totfact>
</mgrwt>
</event>
<event>
 4    1  0.1399921E-004  0.3976770E+03  0.7818608E-02  0.1044587E+00
         -2   -1    0    0    0  501 -0.00000000000E+00  0.00000000000E+00  0.13610721714E+02  0.13610721953E+02  0.25500000000E-02 0. -1.
          2   -1    0    0  501    0  0.00000000000E+00 -0.00000000000E+00 -0.29048240711E+04  0.29048240711E+04  0.25500000000E-02 0.  1.
    5000001    1    1    2    0    0 -0.12256243392E+03  0.83676111800E+02 -0.11725406728E+04  0.11886983937E+04  0.12700000000E+03 0.  0.
   -5000001    1    1    2    0    0  0.12256243392E+03 -0.83676111800E+02 -0.17186726766E+04  0.17297363994E+04  0.12700000000E+03 0.  0.
<mgrwt>
<rscale>  0 0.39767702E+03</rscale>
<asrwt>0</asrwt>
<pdfrwt beam="1">  1        2 0.41497447E+00 0.39767702E+03</pdfrwt>
<pdfrwt beam="2">  1       -2 0.19443907E-02 0.39767702E+03</pdfrwt>
<totfact> 0.24848048E+03</totfact>
</mgrwt>
</event>
<event>
 4    1  0.1399921E-004  0.6201247E+03  0.7818608E-02  0.9864511E-01
         -2   -1    0    0    0  501 -0.00000000000E+00  0.00000000000E+00  0.55574976985E+03  0.55574976986E+03  0.25500000000E-02 0. -1.
          2   -1    0    0  501    0  0.00000000000E+00 -0.00000000000E+00 -0.17298911181E+03  0.17298911183E+03  0.25500000000E-02 0.  1.
    5000001    1    1    2    0    0  0.15517446694E+03 -0.21943923806E+03  0.87747350698E+02  0.30993756137E+03  0.12700000000E+03 0.  0.
   -5000001    1    1    2    0    0 -0.15517446694E+03  0.21943923806E+03  0.29501330735E+03  0.41880132032E+03  0.12700000000E+03 0.  0.
<mgrwt>
<rscale>  0 0.62012469E+03</rscale>
<asrwt>0</asrwt>
<pdfrwt beam="1">  1        2 0.24712730E-01 0.62012469E+03</pdfrwt>
<pdfrwt beam="2">  1       -2 0.79392826E-01 0.62012469E+03</pdfrwt>
<totfact> 0.31548409E+02</totfact>
</mgrwt>
</event>
<event>
 4    1  0.1399921E-004  0.3762245E+03  0.7818608E-02  0.1052338E+00
         -2   -1    0    0    0  501 -0.00000000000E+00  0.00000000000E+00  0.28462642865E+02  0.28462642979E+02  0.25500000000E-02 0. -1.
          2   -1    0    0  501    0  0.00000000000E+00 -0.00000000000E+00 -0.12432510717E+04  0.12432510717E+04  0.25500000000E-02 0.  1.
    5000001    1    1    2    0    0  0.23766440249E+01 -0.11386210771E+03 -0.33937651216E+03  0.37983633977E+03  0.12700000000E+03 0.  0.
   -5000001    1    1    2    0    0 -0.23766440249E+01  0.11386210771E+03 -0.87541191668E+03  0.89187737491E+03  0.12700000000E+03 0.  0.
<mgrwt>
<rscale>  0 0.37622446E+03</rscale>
<asrwt>0</asrwt>
<pdfrwt beam="1">  1        2 0.17760726E+00 0.37622446E+03</pdfrwt>
<pdfrwt beam="2">  1       -2 0.40660926E-02 0.37622446E+03</pdfrwt>
<totfact> 0.57218190E+03</totfact>
</mgrwt>
</event>
<event>
 4    1  0.1399921E-004  0.5581581E+03  0.7818608E-02  0.9996231E-01
         -2   -1    0    0    0  501 -0.00000000000E+00  0.00000000000E+00  0.20944915006E+03  0.20944915007E+03  0.25500000000E-02 0. -1.
          2   -1    0    0  501    0  0.00000000000E+00 -0.00000000000E+00 -0.37185694205E+03  0.37185694206E+03  0.25500000000E-02 0.  1.
    5000001    1    1    2    0    0 -0.27127007600E+00 -0.17087322529E+03 -0.26912652362E+03  0.34315567666E+03  0.12700000000E+03 0.  0.
   -5000001    1    1    2    0    0  0.27127007600E+00  0.17087322529E+03  0.10671873163E+03  0.23815041547E+03  0.12700000000E+03 0.  0.
<mgrwt>
<rscale>  0 0.55815812E+03</rscale>
<asrwt>0</asrwt>
<pdfrwt beam="1">  1        2 0.53122420E-01 0.55815812E+03</pdfrwt>
<pdfrwt beam="2">  1       -2 0.29921307E-01 0.55815812E+03</pdfrwt>
<totfact> 0.96886766E+02</totfact>
</mgrwt>
</event>
<event>
 4    1  0.1399921E-004  0.4326467E+03  0.7818608E-02  0.1033027E+00
          2   -1    0    0  501    0  0.00000000000E+00  0.00000000000E+00  0.39400576117E+03  0.39400576117E+03  0.25500000000E-02 0.  1.
         -2   -1    0    0    0  501 -0.00000000000E+00 -0.00000000000E+00 -0.11876929721E+03  0.11876929724E+03  0.25500000000E-02 0. -1.
    5000001    1    1    2    0    0 -0.12571048053E+03 -0.62856239075E+02  0.26142966014E+03  0.32284438807E+03  0.12700000000E+03 0.  0.
   -5000001    1    1    2    0    0  0.12571048053E+03  0.62856239075E+02  0.13806803816E+02  0.18993067034E+03  0.12700000000E+03 0.  0.
<mgrwt>
<rscale>  0 0.43264668E+03</rscale>
<asrwt>0</asrwt>
<pdfrwt beam="1">  1        2 0.56286538E-01 0.43264668E+03</pdfrwt>
<pdfrwt beam="2">  1       -2 0.16967042E-01 0.43264668E+03</pdfrwt>
<totfact> 0.24699719E+03</totfact>
</mgrwt>
</event>
<event>
 4    1  0.1399921E-004  0.2987750E+03  0.7818608E-02  0.1085855E+00
         -2   -1    0    0    0  501 -0.00000000000E+00  0.00000000000E+00  0.43573587984E+02  0.43573588059E+02  0.25500000000E-02 0. -1.
          2   -1    0    0  501    0  0.00000000000E+00 -0.00000000000E+00 -0.51215958027E+03  0.51215958028E+03  0.25500000000E-02 0.  1.
    5000001    1    1    2    0    0  0.28574298632E+02 -0.60672815646E+02 -0.31075732271E+03  0.34234017398E+03  0.12700000000E+03 0.  0.
   -5000001    1    1    2    0    0 -0.28574298632E+02  0.60672815646E+02 -0.15782866957E+03  0.21339299436E+03  0.12700000000E+03 0.  0.
<mgrwt>
<rscale>  0 0.29877504E+03</rscale>
<asrwt>0</asrwt>
<pdfrwt beam="1">  1        2 0.73165650E-01 0.29877504E+03</pdfrwt>
<pdfrwt beam="2">  1       -2 0.62247986E-02 0.29877504E+03</pdfrwt>
<totfact> 0.91939409E+03</totfact>
</mgrwt>
</event>
<event>
 4    1  0.1399921E-004  0.6118258E+03  0.7818608E-02  0.9881171E-01
          2   -1    0    0  501    0  0.00000000000E+00  0.00000000000E+00  0.48512238093E+02  0.48512238160E+02  0.25500000000E-02 0.  1.
         -2   -1    0    0    0  501 -0.00000000000E+00 -0.00000000000E+00 -0.19290534925E+04  0.19290534925E+04  0.25500000000E-02 0. -1.
    5000001    1    1    2    0    0  0.11983139903E+03  0.14563421493E+03 -0.27876821145E+03  0.35973546456E+03  0.12700000000E+03 0.  0.
   -5000001    1    1    2    0    0 -0.11983139903E+03 -0.14563421493E+03 -0.16017730429E+04  0.16178302661E+04  0.12700000000E+03 0.  0.
<mgrwt>
<rscale>  0 0.61182580E+03</rscale>
<asrwt>0</asrwt>
<pdfrwt beam="1">  1        2 0.69303209E-02 0.61182580E+03</pdfrwt>
<pdfrwt beam="2">  1       -2 0.27557902E+00 0.61182580E+03</pdfrwt>
<totfact> 0.50170836E+01</totfact>
</mgrwt>
</event>
<event>
 4    1  0.1399921E-004  0.8240571E+03  0.7818608E-02  0.9525834E-01
          2   -1    0    0  501    0  0.00000000000E+00  0.00000000000E+00  0.28370027243E+04  0.28370027243E+04  0.25500000000E-02 0.  1.
         -2   -1    0    0    0  501 -0.00000000000E+00 -0.00000000000E+00 -0.59840455516E+02  0.59840455571E+02  0.25500000000E-02 0. -1.
    5000001    1    1    2    0    0  0.49542951924E+02  0.36988082607E+03  0.18100149515E+04  0.18524441839E+04  0.12700000000E+03 0.  0.
   -5000001    1    1    2    0    0 -0.49542951924E+02 -0.36988082607E+03  0.96714731720E+03  0.10443989960E+04  0.12700000000E+03 0.  0.
<mgrwt>
<rscale>  0 0.82405712E+03</rscale>
<asrwt>0</asrwt>
<pdfrwt beam="1">  1        2 0.40528614E+00 0.82405712E+03</pdfrwt>
<pdfrwt beam="2">  1       -2 0.85486358E-02 0.82405712E+03</pdfrwt>
<totfact> 0.26598932E+02</totfact>
</mgrwt>
</event>
<event>
 4    1  0.1399921E-004  0.2989258E+03  0.7818608E-02  0.1085779E+00
          2   -1    0    0  501    0  0.00000000000E+00  0.00000000000E+00  0.19712830623E+04  0.19712830623E+04  0.25500000000E-02 0.  1.
         -2   -1    0    0    0  501 -0.00000000000E+00 -0.00000000000E+00 -0.11332291996E+02  0.11332292283E+02  0.25500000000E-02 0. -1.
    5000001    1    1    2    0    0  0.28228192071E+02 -0.50042607793E+02  0.13377022794E+04  0.13449451594E+04  0.12700000000E+03 0.  0.
   -5000001    1    1    2    0    0 -0.28228192071E+02  0.50042607793E+02  0.62224849090E+03  0.63767019520E+03  0.12700000000E+03 0.  0.
<mgrwt>
<rscale>  0 0.29892578E+03</rscale>
<asrwt>0</asrwt>
<pdfrwt beam="1">  1        2 0.28161191E+00 0.29892578E+03</pdfrwt>
<pdfrwt beam="2">  1       -2 0.16188986E-02 0.29892578E+03</pdfrwt>
<totfact> 0.96386695E+03</totfact>
</mgrwt>
</event>
<event>
 4    1  0.1399921E-004  0.6217351E+03  0.7818608E-02  0.9861311E-01
          2   -1    0    0  501    0  0.00000000000E+00  0.00000000000E+00  0.27200654675E+04  0.27200654675E+04  0.25500000000E-02 0.  1.
         -2   -1    0    0    0  501 -0.00000000000E+00 -0.00000000000E+00 -0.35528058493E+02  0.35528058585E+02  0.25500000000E-02 0. -1.
    5000001    1    1    2    0    0 -0.40468683086E+02  0.18630217600E+03  0.41085817755E+03  0.47040371720E+03  0.12700000000E+03 0.  0.
   -5000001    1    1    2    0    0  0.40468683086E+02 -0.18630217600E+03  0.22736792315E+04  0.22851898089E+04  0.12700000000E+03 0.  0.
<mgrwt>
<rscale>  0 0.62173514E+03</rscale>
<asrwt>0</asrwt>
<pdfrwt beam="1">  1        2 0.38858091E+00 0.62173514E+03</pdfrwt>
<pdfrwt beam="2">  1       -2 0.50754352E-02 0.62173514E+03</pdfrwt>
<totfact> 0.71217658E+02</totfact>
</mgrwt>
</event>
<event>
 4    1  0.1399921E-004  0.3472682E+03  0.7818608E-02  0.1063742E+00
          2   -1    0    0  501    0  0.00000000000E+00  0.00000000000E+00  0.39576315606E+03  0.39576315606E+03  0.25500000000E-02 0.  1.
         -2   -1    0    0    0  501 -0.00000000000E+00 -0.00000000000E+00 -0.76178903869E+02  0.76178903911E+02  0.25500000000E-02 0. -1.
    5000001    1    1    2    0    0 -0.98240505181E+02  0.49977884332E+02  0.10101080026E+03  0.19616617331E+03  0.12700000000E+03 0.  0.
   -5000001    1    1    2    0    0  0.98240505181E+02 -0.49977884332E+02  0.21857345193E+03  0.27577588667E+03  0.12700000000E+03 0.  0.
<mgrwt>
<rscale>  0 0.34726822E+03</rscale>
<asrwt>0</asrwt>
<pdfrwt beam="1">  1        2 0.56537593E-01 0.34726822E+03</pdfrwt>
<pdfrwt beam="2">  1       -2 0.10882701E-01 0.34726822E+03</pdfrwt>
<totfact> 0.50930033E+03</totfact>
</mgrwt>
</event>
<event>
 4    1  0.1399921E-004  0.3305285E+03  0.7818608E-02  0.1070903E+00
          2   -1    0    0  501    0  0.00000000000E+00  0.00000000000E+00  0.90088306994E+03  0.90088306994E+03  0.25500000000E-02 0.  1.
         -2   -1    0    0    0  501 -0.00000000000E+00 -0.00000000000E+00 -0.30317215358E+02  0.30317215466E+02  0.25500000000E-02 0. -1.
    5000001    1    1    2    0    0  0.47393161130E+02 -0.94157194903E+02  0.41144760390E+03  0.44331683910E+03  0.12700000000E+03 0.  0.
   -5000001    1    1    2    0    0 -0.47393161130E+02  0.94157194903E+02  0.45911825068E+03  0.48788344630E+03  0.12700000000E+03 0.  0.
<mgrwt>
<rscale>  0 0.33052846E+03</rscale>
<asrwt>0</asrwt>
<pdfrwt beam="1">  1        2 0.12869757E+00 0.33052846E+03</pdfrwt>
<pdfrwt beam="2">  1       -2 0.43310310E-02 0.33052846E+03</pdfrwt>
<totfact> 0.81901305E+03</totfact>
</mgrwt>
</event>
<event>
 4    1  0.1399921E-004  0.5494709E+03  0.7818608E-02  0.1001616E+00
          2   -1    0    0  501    0  0.00000000000E+00  0.00000000000E+00  0.19503373360E+04  0.19503373360E+04  0.25500000000E-02 0.  1.
         -2   -1    0    0    0  501 -0.00000000000E+00 -0.00000000000E+00 -0.38700774110E+02  0.38700774194E+02  0.25500000000E-02 0. -1.
    5000001    1    1    2    0    0  0.20029876753E+03 -0.82165573480E+02  0.13602097656E+04  0.13831740252E+04  0.12700000000E+03 0.  0.
   -5000001    1    1    2    0    0 -0.20029876753E+03  0.82165573480E+02  0.55142679632E+03  0.60586408496E+03  0.12700000000E+03 0.  0.
<mgrwt>
<rscale>  0 0.54947089E+03</rscale>
<asrwt>0</asrwt>
<pdfrwt beam="1">  1        2 0.27861961E+00 0.54947089E+03</pdfrwt>
<pdfrwt beam="2">  1       -2 0.55286822E-02 0.54947089E+03</pdfrwt>
<totfact> 0.15435075E+03</totfact>
</mgrwt>
</event>
<event>
 4    1  0.1399921E-004  0.3252504E+03  0.7818608E-02  0.1073258E+00
          2   -1    0    0  501    0  0.00000000000E+00  0.00000000000E+00  0.22278109589E+03  0.22278109590E+03  0.25500000000E-02 0.  1.
         -2   -1    0    0    0  501 -0.00000000000E+00 -0.00000000000E+00 -0.11871274179E+03  0.11871274181E+03  0.25500000000E-02 0. -1.
    5000001    1    1    2    0    0 -0.13483352956E+01 -0.84197375721E+02 -0.76089483155E+01  0.15257100701E+03  0.12700000000E+03 0.  0.
   -5000001    1    1    2    0    0  0.13483352956E+01  0.84197375721E+02  0.11167730242E+03  0.18892283070E+03  0.12700000000E+03 0.  0.
<mgrwt>
<rscale>  0 0.32525039E+03</rscale>
<asrwt>0</asrwt>
<pdfrwt beam="1">  1        2 0.31825871E-01 0.32525039E+03</pdfrwt>
<pdfrwt beam="2">  1       -2 0.16958963E-01 0.32525039E+03</pdfrwt>
<totfact> 0.45802374E+03</totfact>
</mgrwt>
</event>
<event>
 4    1  0.1399921E-004  0.3436794E+03  0.7818608E-02  0.1065240E+00
         -2   -1    0    0    0  501 -0.00000000000E+00  0.00000000000E+00  0.11899243241E+02  0.11899243514E+02  0.25500000000E-02 0. -1.
          2   -1    0    0  501    0  0.00000000000E+00 -0.00000000000E+00 -0.24815770717E+04  0.24815770717E+04  0.25500000000E-02 0.  1.
    5000001    1    1    2    0    0  0.83802870268E+02 -0.77353623726E+02 -0.10909389132E+04  0.11042115814E+04  0.12700000000E+03 0.  0.
   -5000001    1    1    2    0    0 -0.83802870268E+02  0.77353623726E+02 -0.13787389152E+04  0.13892647338E+04  0.12700000000E+03 0.  0.
<mgrwt>
<rscale>  0 0.34367944E+03</rscale>
<asrwt>0</asrwt>
<pdfrwt beam="1">  1        2 0.35451068E+00 0.34367944E+03</pdfrwt>
<pdfrwt beam="2">  1       -2 0.16998935E-02 0.34367944E+03</pdfrwt>
<totfact> 0.50223776E+03</totfact>
</mgrwt>
</event>
<event>
 4    1  0.1399921E-004  0.3747443E+03  0.7818608E-02  0.1052894E+00
          2   -1    0    0  501    0  0.00000000000E+00  0.00000000000E+00  0.65215900579E+03  0.65215900580E+03  0.25500000000E-02 0.  1.
         -2   -1    0    0    0  501 -0.00000000000E+00 -0.00000000000E+00 -0.53833991338E+02  0.53833991398E+02  0.25500000000E-02 0. -1.
    5000001    1    1    2    0    0  0.41696348523E+02 -0.11319985671E+03  0.42450462511E+03  0.45922322434E+03  0.12700000000E+03 0.  0.
   -5000001    1    1    2    0    0 -0.41696348523E+02  0.11319985671E+03  0.17382038935E+03  0.24676977285E+03  0.12700000000E+03 0.  0.
<mgrwt>
<rscale>  0 0.37474430E+03</rscale>
<asrwt>0</asrwt>
<pdfrwt beam="1">  1        2 0.93165575E-01 0.37474430E+03</pdfrwt>
<pdfrwt beam="2">  1       -2 0.76905700E-02 0.37474430E+03</pdfrwt>
<totfact> 0.50517090E+03</totfact>
</mgrwt>
</event>
<event>
 4    1  0.1399921E-004  0.4093314E+03  0.7818608E-02  0.1040596E+00
         -2   -1    0    0    0  501 -0.00000000000E+00  0.00000000000E+00  0.10969408132E+03  0.10969408135E+03  0.25500000000E-02 0. -1.
          2   -1    0    0  501    0  0.00000000000E+00 -0.00000000000E+00 -0.38186249618E+03  0.38186249619E+03  0.25500000000E-02 0.  1.
    5000001    1    1    2    0    0  0.11773712832E+03 -0.77002150089E+02 -0.43315467148E+02  0.19441345683E+03  0.12700000000E+03 0.  0.
   -5000001    1    1    2    0    0 -0.11773712832E+03  0.77002150089E+02 -0.22885294771E+03  0.29714312070E+03  0.12700000000E+03 0.  0.
<mgrwt>
<rscale>  0 0.40933143E+03</rscale>
<asrwt>0</asrwt>
<pdfrwt beam="1">  1        2 0.54551784E-01 0.40933143E+03</pdfrwt>
<pdfrwt beam="2">  1       -2 0.15670583E-01 0.40933143E+03</pdfrwt>
<totfact> 0.29205375E+03</totfact>
</mgrwt>
</event>
<event>
 4    1  0.1399921E-004  0.6016643E+03  0.7818608E-02  0.9901959E-01
         -2   -1    0    0    0  501 -0.00000000000E+00  0.00000000000E+00  0.50045498556E+02  0.50045498621E+02  0.25500000000E-02 0.  1.
          2   -1    0    0  501    0  0.00000000000E+00 -0.00000000000E+00 -0.18083541798E+04  0.18083541798E+04  0.25500000000E-02 0. -1.
    5000001    1    1    2    0    0  0.23353252603E+03 -0.11891888717E+03 -0.11121840897E+04  0.11496789081E+04  0.12700000000E+03 0.  0.
   -5000001    1    1    2    0    0 -0.23353252603E+03  0.11891888717E+03 -0.64612459163E+03  0.70872077037E+03  0.12700000000E+03 0.  0.
<mgrwt>
<rscale>  0 0.60166431E+03</rscale>
<asrwt>0</asrwt>
<pdfrwt beam="1">  1        2 0.25833627E+00 0.60166431E+03</pdfrwt>
<pdfrwt beam="2">  1       -2 0.71493581E-02 0.60166431E+03</pdfrwt>
<totfact> 0.12123957E+03</totfact>
</mgrwt>
</event>
<event>
 4    1  0.1399921E-004  0.1095152E+04  0.7818608E-02  0.9209930E-01
         -2   -1    0    0    0  501 -0.00000000000E+00  0.00000000000E+00  0.11452786210E+04  0.11452786210E+04  0.25500000000E-02 0.  1.
          2   -1    0    0  501    0  0.00000000000E+00 -0.00000000000E+00 -0.26180470429E+03  0.26180470430E+03  0.25500000000E-02 0. -1.
    5000001    1    1    2    0    0  0.74095961116E+02 -0.40683534063E+03  0.87307459371E+03  0.97436823225E+03  0.12700000000E+03 0.  0.
   -5000001    1    1    2    0    0 -0.74095961116E+02  0.40683534063E+03  0.10399323010E+02  0.43271509306E+03  0.12700000000E+03 0.  0.
<mgrwt>
<rscale>  0 0.10951517E+04</rscale>
<asrwt>0</asrwt>
<pdfrwt beam="1">  1        2 0.37400672E-01 0.10951517E+04</pdfrwt>
<pdfrwt beam="2">  1       -2 0.16361123E+00 0.10951517E+04</pdfrwt>
<totfact> 0.32675509E+01</totfact>
</mgrwt>
</event>
<event>
 4    1  0.1399921E-004  0.5994692E+03  0.7818608E-02  0.9906508E-01
          2   -1    0    0  501    0  0.00000000000E+00  0.00000000000E+00  0.44734723135E+03  0.44734723136E+03  0.25500000000E-02 0.  1.
         -2   -1    0    0    0  501 -0.00000000000E+00 -0.00000000000E+00 -0.20083019983E+03  0.20083019985E+03  0.25500000000E-02 0. -1.
    5000001    1    1    2    0    0 -0.15948936001E+03 -0.20281200427E+03  0.21463724605E+03  0.35884218317E+03  0.12700000000E+03 0.  0.
   -5000001    1    1    2    0    0  0.15948936001E+03  0.20281200427E+03  0.31879785465E+02  0.28933524803E+03  0.12700000000E+03 0.  0.
<mgrwt>
<rscale>  0 0.59946921E+03</rscale>
<asrwt>0</asrwt>
<pdfrwt beam="1">  1        2 0.63906746E-01 0.59946921E+03</pdfrwt>
<pdfrwt beam="2">  1       -2 0.28690029E-01 0.59946921E+03</pdfrwt>
<totfact> 0.85185813E+02</totfact>
</mgrwt>
</event>
<event>
 4    1  0.1399921E-004  0.3282793E+03  0.7818608E-02  0.1071901E+00
          2   -1    0    0  501    0  0.00000000000E+00  0.00000000000E+00  0.51967705764E+03  0.51967705764E+03  0.25500000000E-02 0.  1.
         -2   -1    0    0    0  501 -0.00000000000E+00 -0.00000000000E+00 -0.51843382864E+02  0.51843382927E+02  0.25500000000E-02 0. -1.
    5000001    1    1    2    0    0 -0.90099915904E+02  0.23597754501E+02  0.15341812833E+03  0.21986580217E+03  0.12700000000E+03 0.  0.
   -5000001    1    1    2    0    0  0.90099915904E+02 -0.23597754501E+02  0.31441554645E+03  0.35165463840E+03  0.12700000000E+03 0.  0.
<mgrwt>
<rscale>  0 0.32827925E+03</rscale>
<asrwt>0</asrwt>
<pdfrwt beam="1">  1        2 0.74239581E-01 0.32827925E+03</pdfrwt>
<pdfrwt beam="2">  1       -2 0.74061974E-02 0.32827925E+03</pdfrwt>
<totfact> 0.69301581E+03</totfact>
</mgrwt>
</event>
<event>
 4    1  0.1399921E-004  0.4807185E+03  0.7818608E-02  0.1018938E+00
          2   -1    0    0  501    0  0.00000000000E+00  0.00000000000E+00  0.13826714883E+04  0.13826714883E+04  0.25500000000E-02 0.  1.
         -2   -1    0    0    0  501 -0.00000000000E+00 -0.00000000000E+00 -0.41783297507E+02  0.41783297584E+02  0.25500000000E-02 0. -1.
    5000001    1    1    2    0    0  0.88771785675E+02  0.13920585244E+03  0.31504946775E+03  0.37768222941E+03  0.12700000000E+03 0.  0.
   -5000001    1    1    2    0    0 -0.88771785675E+02 -0.13920585244E+03  0.10258387230E+04  0.10467725565E+04  0.12700000000E+03 0.  0.
<mgrwt>
<rscale>  0 0.48071852E+03</rscale>
<asrwt>0</asrwt>
<pdfrwt beam="1">  1        2 0.19752453E+00 0.48071852E+03</pdfrwt>
<pdfrwt beam="2">  1       -2 0.59690416E-02 0.48071852E+03</pdfrwt>
<totfact> 0.26728598E+03</totfact>
</mgrwt>
</event>
<event>
 4    1  0.1399921E-004  0.1401830E+04  0.7818608E-02  0.8952495E-01
         -2   -1    0    0    0  501 -0.00000000000E+00  0.00000000000E+00  0.11687847601E+04  0.11687847601E+04  0.25500000000E-02 0. -1.
          2   -1    0    0  501    0  0.00000000000E+00 -0.00000000000E+00 -0.42033556012E+03  0.42033556013E+03  0.25500000000E-02 0.  1.
    5000001    1    1    2    0    0 -0.57394857076E+03 -0.38080806309E+03  0.40466464939E+03  0.80889691634E+03  0.12700000000E+03 0.  0.
   -5000001    1    1    2    0    0  0.57394857076E+03  0.38080806309E+03  0.34378455063E+03  0.78022340393E+03  0.12700000000E+03 0.  0.
<mgrwt>
<rscale>  0 0.14018299E+04</rscale>
<asrwt>0</asrwt>
<pdfrwt beam="1">  1        2 0.60047938E-01 0.14018299E+04</pdfrwt>
<pdfrwt beam="2">  1       -2 0.16696925E+00 0.14018299E+04</pdfrwt>
<totfact> 0.17844834E+01</totfact>
</mgrwt>
</event>
<event>
 4    1  0.1399921E-004  0.2796213E+03  0.7818608E-02  0.1095896E+00
         -2   -1    0    0    0  501 -0.00000000000E+00  0.00000000000E+00  0.29923597428E+02  0.29923597536E+02  0.25500000000E-02 0. -1.
          2   -1    0    0  501    0  0.00000000000E+00 -0.00000000000E+00 -0.65323089037E+03  0.65323089037E+03  0.25500000000E-02 0.  1.
    5000001    1    1    2    0    0 -0.23209174754E+02  0.51925927755E+02 -0.34470841250E+03  0.37173627401E+03  0.12700000000E+03 0.  0.
   -5000001    1    1    2    0    0  0.23209174754E+02 -0.51925927755E+02 -0.27859888044E+03  0.31141821390E+03  0.12700000000E+03 0.  0.
<mgrwt>
<rscale>  0 0.27962130E+03</rscale>
<asrwt>0</asrwt>
<pdfrwt beam="1">  1        2 0.93318690E-01 0.27962130E+03</pdfrwt>
<pdfrwt beam="2">  1       -2 0.42748000E-02 0.27962130E+03</pdfrwt>
<totfact> 0.12332641E+04</totfact>
</mgrwt>
</event>
<event>
 4    1  0.1399921E-004  0.5377022E+03  0.7818608E-02  0.1004381E+00
         -2   -1    0    0    0  501 -0.00000000000E+00  0.00000000000E+00  0.10758343809E+03  0.10758343812E+03  0.25500000000E-02 0. -1.
          2   -1    0    0  501    0  0.00000000000E+00 -0.00000000000E+00 -0.67185917401E+03  0.67185917402E+03  0.25500000000E-02 0.  1.
    5000001    1    1    2    0    0 -0.14341584879E+03  0.13882724303E+03 -0.97006466566E+02  0.25569584206E+03  0.12700000000E+03 0.  0.
   -5000001    1    1    2    0    0  0.14341584879E+03 -0.13882724303E+03 -0.46726926935E+03  0.52374677008E+03  0.12700000000E+03 0.  0.
<mgrwt>
<rscale>  0 0.53770222E+03</rscale>
<asrwt>0</asrwt>
<pdfrwt beam="1">  1        2 0.95979879E-01 0.53770222E+03</pdfrwt>
<pdfrwt beam="2">  1       -2 0.15369063E-01 0.53770222E+03</pdfrwt>
<totfact> 0.15903735E+03</totfact>
</mgrwt>
</event>
<event>
 4    1  0.1399921E-004  0.4093867E+03  0.7818608E-02  0.1040577E+00
          2   -1    0    0  501    0  0.00000000000E+00  0.00000000000E+00  0.44962184907E+03  0.44962184908E+03  0.25500000000E-02 0.  1.
         -2   -1    0    0    0  501 -0.00000000000E+00 -0.00000000000E+00 -0.93188013181E+02  0.93188013215E+02  0.25500000000E-02 0. -1.
    5000001    1    1    2    0    0  0.95460112694E+02  0.10719594748E+03  0.27352357906E+03  0.33398765333E+03  0.12700000000E+03 0.  0.
   -5000001    1    1    2    0    0 -0.95460112694E+02 -0.10719594748E+03  0.82910256831E+02  0.20882220897E+03  0.12700000000E+03 0.  0.
<mgrwt>
<rscale>  0 0.40938670E+03</rscale>
<asrwt>0</asrwt>
<pdfrwt beam="1">  1        2 0.64231692E-01 0.40938670E+03</pdfrwt>
<pdfrwt beam="2">  1       -2 0.13312573E-01 0.40938670E+03</pdfrwt>
<totfact> 0.31995600E+03</totfact>
</mgrwt>
</event>
<event>
 4    1  0.1399921E-004  0.4272440E+03  0.7818608E-02  0.1034734E+00
          2   -1    0    0  501    0  0.00000000000E+00  0.00000000000E+00  0.39533527714E+02  0.39533527796E+02  0.25500000000E-02 0.  1.
         -2   -1    0    0    0  501 -0.00000000000E+00 -0.00000000000E+00 -0.11543206822E+04  0.11543206822E+04  0.25500000000E-02 0. -1.
    5000001    1    1    2    0    0 -0.15436236035E+03 -0.71522415779E+02 -0.62364738459E+03  0.65879302862E+03  0.12700000000E+03 0.  0.
   -5000001    1    1    2    0    0  0.15436236035E+03  0.71522415779E+02 -0.49113976993E+03  0.53506118142E+03  0.12700000000E+03 0.  0.
<mgrwt>
<rscale>  0 0.42724405E+03</rscale>
<asrwt>0</asrwt>
<pdfrwt beam="1">  1        2 0.56476475E-02 0.42724405E+03</pdfrwt>
<pdfrwt beam="2">  1       -2 0.16490293E+00 0.42724405E+03</pdfrwt>
<totfact> 0.33139450E+02</totfact>
</mgrwt>
</event>
<event>
 4    1  0.1399921E-004  0.2804234E+03  0.7818608E-02  0.1095458E+00
         -2   -1    0    0    0  501 -0.00000000000E+00  0.00000000000E+00  0.10923512633E+02  0.10923512931E+02  0.25500000000E-02 0. -1.
          2   -1    0    0  501    0  0.00000000000E+00 -0.00000000000E+00 -0.17997245402E+04  0.17997245402E+04  0.25500000000E-02 0.  1.
    5000001    1    1    2    0    0  0.50673319067E+02  0.26902925495E+02 -0.99417095335E+03  0.10038906500E+04  0.12700000000E+03 0.  0.
   -5000001    1    1    2    0    0 -0.50673319067E+02 -0.26902925495E+02 -0.79463007420E+03  0.80675740312E+03  0.12700000000E+03 0.  0.
<mgrwt>
<rscale>  0 0.28042335E+03</rscale>
<asrwt>0</asrwt>
<pdfrwt beam="1">  1        2 0.25710332E+00 0.28042335E+03</pdfrwt>
<pdfrwt beam="2">  1       -2 0.15605030E-02 0.28042335E+03</pdfrwt>
<totfact> 0.12327790E+04</totfact>
</mgrwt>
</event>
<event>
 4    1  0.1399921E-004  0.3778594E+03  0.7818608E-02  0.1051728E+00
          2   -1    0    0  501    0  0.00000000000E+00  0.00000000000E+00  0.49309035667E+03  0.49309035667E+03  0.25500000000E-02 0.  1.
         -2   -1    0    0    0  501 -0.00000000000E+00 -0.00000000000E+00 -0.72389226852E+02  0.72389226897E+02  0.25500000000E-02 0. -1.
    5000001    1    1    2    0    0  0.11810273982E+03  0.65680946565E+02  0.26437495602E+03  0.32293244071E+03  0.12700000000E+03 0.  0.
   -5000001    1    1    2    0    0 -0.11810273982E+03 -0.65680946565E+02  0.15632617379E+03  0.24254714286E+03  0.12700000000E+03 0.  0.
<mgrwt>
<rscale>  0 0.37785939E+03</rscale>
<asrwt>0</asrwt>
<pdfrwt beam="1">  1        2 0.70441482E-01 0.37785939E+03</pdfrwt>
<pdfrwt beam="2">  1       -2 0.10341318E-01 0.37785939E+03</pdfrwt>
<totfact> 0.43476712E+03</totfact>
</mgrwt>
</event>
<event>
 4    1  0.1399921E-004  0.4298051E+03  0.7818608E-02  0.1033922E+00
          2   -1    0    0  501    0  0.00000000000E+00  0.00000000000E+00  0.37474010360E+02  0.37474010447E+02  0.25500000000E-02 0.  1.
         -2   -1    0    0    0  501 -0.00000000000E+00 -0.00000000000E+00 -0.12324034405E+04  0.12324034405E+04  0.25500000000E-02 0. -1.
    5000001    1    1    2    0    0  0.27091910886E+02 -0.15102357789E+03 -0.83588746663E+03  0.85928979372E+03  0.12700000000E+03 0.  0.
   -5000001    1    1    2    0    0 -0.27091910886E+02  0.15102357789E+03 -0.35904196352E+03  0.41058765725E+03  0.12700000000E+03 0.  0.
<mgrwt>
<rscale>  0 0.42980507E+03</rscale>
<asrwt>0</asrwt>
<pdfrwt beam="1">  1        2 0.53534309E-02 0.42980507E+03</pdfrwt>
<pdfrwt beam="2">  1       -2 0.17605761E+00 0.42980507E+03</pdfrwt>
<totfact> 0.29745176E+02</totfact>
</mgrwt>
</event>
<event>
 4    1  0.1399921E-004  0.3261004E+03  0.7818608E-02  0.1072875E+00
         -2   -1    0    0    0  501 -0.00000000000E+00  0.00000000000E+00  0.98284529176E+02  0.98284529209E+02  0.25500000000E-02 0. -1.
          2   -1    0    0  501    0  0.00000000000E+00 -0.00000000000E+00 -0.27049387187E+03  0.27049387188E+03  0.25500000000E-02 0.  1.
    5000001    1    1    2    0    0 -0.40137901571E+02  0.86637924120E+02 -0.44720529271E+02  0.16506394754E+03  0.12700000000E+03 0.  0.
   -5000001    1    1    2    0    0  0.40137901571E+02 -0.86637924120E+02 -0.12748881342E+03  0.20371445355E+03  0.12700000000E+03 0.  0.
<mgrwt>
<rscale>  0 0.32610037E+03</rscale>
<asrwt>0</asrwt>
<pdfrwt beam="1">  1        2 0.38641981E-01 0.32610037E+03</pdfrwt>
<pdfrwt beam="2">  1       -2 0.14040647E-01 0.32610037E+03</pdfrwt>
<totfact> 0.50742261E+03</totfact>
</mgrwt>
</event>
<event>
 4    1  0.1399921E-004  0.2922459E+03  0.7818608E-02  0.1089182E+00
          2   -1    0    0  501    0  0.00000000000E+00  0.00000000000E+00  0.11005312095E+04  0.11005312095E+04  0.25500000000E-02 0.  1.
         -2   -1    0    0    0  501 -0.00000000000E+00 -0.00000000000E+00 -0.19401464809E+02  0.19401464977E+02  0.25500000000E-02 0. -1.
    5000001    1    1    2    0    0  0.64048029339E+02  0.33051862009E+02  0.56096620797E+03  0.57966081645E+03  0.12700000000E+03 0.  0.
   -5000001    1    1    2    0    0 -0.64048029339E+02 -0.33051862009E+02  0.52016353674E+03  0.54027185805E+03  0.12700000000E+03 0.  0.
<mgrwt>
<rscale>  0 0.29224591E+03</rscale>
<asrwt>0</asrwt>
<pdfrwt beam="1">  1        2 0.15721875E+00 0.29224591E+03</pdfrwt>
<pdfrwt beam="2">  1       -2 0.27716378E-02 0.29224591E+03</pdfrwt>
<totfact> 0.12136964E+04</totfact>
</mgrwt>
</event>
<event>
 4    1  0.1399921E-004  0.7483859E+03  0.7818608E-02  0.9637886E-01
         -2   -1    0    0    0  501 -0.00000000000E+00  0.00000000000E+00  0.59679556208E+03  0.59679556208E+03  0.25500000000E-02 0. -1.
          2   -1    0    0  501    0  0.00000000000E+00 -0.00000000000E+00 -0.23462030491E+03  0.23462030492E+03  0.25500000000E-02 0.  1.
    5000001    1    1    2    0    0 -0.16361201871E+03 -0.29079181392E+03  0.56569601702E+02  0.36146630762E+03  0.12700000000E+03 0.  0.
   -5000001    1    1    2    0    0  0.16361201871E+03  0.29079181392E+03  0.30560565547E+03  0.46994955938E+03  0.12700000000E+03 0.  0.
<mgrwt>
<rscale>  0 0.74838588E+03</rscale>
<asrwt>0</asrwt>
<pdfrwt beam="1">  1        2 0.33517187E-01 0.74838588E+03</pdfrwt>
<pdfrwt beam="2">  1       -2 0.85256507E-01 0.74838588E+03</pdfrwt>
<totfact> 0.18953648E+02</totfact>
</mgrwt>
</event>
<event>
 4    1  0.1399921E-004  0.1238688E+04  0.7818608E-02  0.9079651E-01
         -2   -1    0    0    0  501 -0.00000000000E+00  0.00000000000E+00  0.28027274423E+03  0.28027274424E+03  0.25500000000E-02 0. -1.
          2   -1    0    0  501    0  0.00000000000E+00 -0.00000000000E+00 -0.13686198877E+04  0.13686198877E+04  0.25500000000E-02 0.  1.
    5000001    1    1    2    0    0 -0.20098728217E+03  0.43405460265E+03 -0.48490739191E+02  0.49727219656E+03  0.12700000000E+03 0.  0.
   -5000001    1    1    2    0    0  0.20098728217E+03 -0.43405460265E+03 -0.10398564042E+04  0.11516204353E+04  0.12700000000E+03 0.  0.
<mgrwt>
<rscale>  0 0.12386878E+04</rscale>
<asrwt>0</asrwt>
<pdfrwt beam="1">  1        2 0.19551712E+00 0.12386878E+04</pdfrwt>
<pdfrwt beam="2">  1       -2 0.40038964E-01 0.12386878E+04</pdfrwt>
<totfact> 0.99935975E+01</totfact>
</mgrwt>
</event>
<event>
 4    1  0.1399921E-004  0.3160556E+03  0.7818608E-02  0.1077479E+00
          2   -1    0    0  501    0  0.00000000000E+00  0.00000000000E+00  0.18398691945E+03  0.18398691947E+03  0.25500000000E-02 0.  1.
         -2   -1    0    0    0  501 -0.00000000000E+00 -0.00000000000E+00 -0.13573131068E+03  0.13573131071E+03  0.25500000000E-02 0. -1.
    5000001    1    1    2    0    0 -0.75715299867E+02  0.53110949633E+02  0.68949507993E+01  0.15725813159E+03  0.12700000000E+03 0.  0.
   -5000001    1    1    2    0    0  0.75715299867E+02 -0.53110949633E+02  0.41360657968E+02  0.16246009859E+03  0.12700000000E+03 0.  0.
<mgrwt>
<rscale>  0 0.31605560E+03</rscale>
<asrwt>0</asrwt>
<pdfrwt beam="1">  1        2 0.26283846E-01 0.31605560E+03</pdfrwt>
<pdfrwt beam="2">  1       -2 0.19390187E-01 0.31605560E+03</pdfrwt>
<totfact> 0.45066756E+03</totfact>
</mgrwt>
</event>
<event>
 4    1  0.1399921E-004  0.3961729E+03  0.7818608E-02  0.1045113E+00
          2   -1    0    0  501    0  0.00000000000E+00  0.00000000000E+00  0.52733561701E+03  0.52733561701E+03  0.25500000000E-02 0.  1.
         -2   -1    0    0    0  501 -0.00000000000E+00 -0.00000000000E+00 -0.74408479818E+02  0.74408479862E+02  0.25500000000E-02 0. -1.
    5000001    1    1    2    0    0 -0.41562131557E+01  0.14750447308E+03  0.17097931395E+03  0.25910957042E+03  0.12700000000E+03 0.  0.
   -5000001    1    1    2    0    0  0.41562131557E+01 -0.14750447308E+03  0.28194782324E+03  0.34263452645E+03  0.12700000000E+03 0.  0.
<mgrwt>
<rscale>  0 0.39617290E+03</rscale>
<asrwt>0</asrwt>
<pdfrwt beam="1">  1        2 0.75333661E-01 0.39617290E+03</pdfrwt>
<pdfrwt beam="2">  1       -2 0.10629783E-01 0.39617290E+03</pdfrwt>
<totfact> 0.38606291E+03</totfact>
</mgrwt>
</event>
<event>
 4    1  0.1399921E-004  0.4532805E+03  0.7818608E-02  0.1026748E+00
         -2   -1    0    0    0  501 -0.00000000000E+00  0.00000000000E+00  0.40777807320E+02  0.40777807400E+02  0.25500000000E-02 0. -1.
          2   -1    0    0  501    0  0.00000000000E+00 -0.00000000000E+00 -0.12596510392E+04  0.12596510392E+04  0.25500000000E-02 0.  1.
    5000001    1    1    2    0    0  0.10158680133E+03  0.12677064486E+03 -0.33960286705E+03  0.39730313604E+03  0.12700000000E+03 0.  0.
   -5000001    1    1    2    0    0 -0.10158680133E+03 -0.12677064486E+03 -0.87927036480E+03  0.90312571053E+03  0.12700000000E+03 0.  0.
<mgrwt>
<rscale>  0 0.45328052E+03</rscale>
<asrwt>0</asrwt>
<pdfrwt beam="1">  1        2 0.17995012E+00 0.45328052E+03</pdfrwt>
<pdfrwt beam="2">  1       -2 0.58254018E-02 0.45328052E+03</pdfrwt>
<totfact> 0.32315568E+03</totfact>
</mgrwt>
</event>
<event>
 4    1  0.1399921E-004  0.1523814E+04  0.7818608E-02  0.8868770E-01
          2   -1    0    0  501    0  0.00000000000E+00  0.00000000000E+00  0.19753944917E+04  0.19753944917E+04  0.25500000000E-02 0.  1.
         -2   -1    0    0    0  501 -0.00000000000E+00 -0.00000000000E+00 -0.29386639565E+03  0.29386639566E+03  0.25500000000E-02 0. -1.
    5000001    1    1    2    0    0 -0.16435636314E+03 -0.65973234228E+03  0.13166398993E+04  0.14872556612E+04  0.12700000000E+03 0.  0.
   -5000001    1    1    2    0    0  0.16435636314E+03  0.65973234228E+03  0.36488819680E+03  0.78200522614E+03  0.12700000000E+03 0.  0.
<mgrwt>
<rscale>  0 0.15238137E+04</rscale>
<asrwt>0</asrwt>
<pdfrwt beam="1">  1        2 0.28219922E+00 0.15238137E+04</pdfrwt>
<pdfrwt beam="2">  1       -2 0.41980913E-01 0.15238137E+04</pdfrwt>
<totfact> 0.42906221E+01</totfact>
</mgrwt>
</event>
<event>
 4    1  0.1399921E-004  0.3877192E+03  0.7818608E-02  0.1048117E+00
          2   -1    0    0  501    0  0.00000000000E+00  0.00000000000E+00  0.50154943468E+03  0.50154943469E+03  0.25500000000E-02 0.  1.
         -2   -1    0    0    0  501 -0.00000000000E+00 -0.00000000000E+00 -0.74930878456E+02  0.74930878499E+02  0.25500000000E-02 0. -1.
    5000001    1    1    2    0    0 -0.10028673892E+03  0.73642256983E+02  0.98408102573E+02  0.20320867764E+03  0.12700000000E+03 0.  0.
   -5000001    1    1    2    0    0  0.10028673892E+03 -0.73642256983E+02  0.32821045365E+03  0.37327163555E+03  0.12700000000E+03 0.  0.
<mgrwt>
<rscale>  0 0.38771918E+03</rscale>
<asrwt>0</asrwt>
<pdfrwt beam="1">  1        2 0.71649919E-01 0.38771918E+03</pdfrwt>
<pdfrwt beam="2">  1       -2 0.10704411E-01 0.38771918E+03</pdfrwt>
<totfact> 0.40373178E+03</totfact>
</mgrwt>
</event>
<event>
 4    1  0.1399921E-004  0.5085385E+03  0.7818608E-02  0.1011574E+00
          2   -1    0    0  501    0  0.00000000000E+00  0.00000000000E+00  0.19935833253E+04  0.19935833253E+04  0.25500000000E-02 0.  1.
         -2   -1    0    0    0  501 -0.00000000000E+00 -0.00000000000E+00 -0.32430467380E+02  0.32430467480E+02  0.25500000000E-02 0. -1.
    5000001    1    1    2    0    0  0.17297224436E+03 -0.71248801830E+02  0.14439552730E+04  0.14615511005E+04  0.12700000000E+03 0.  0.
   -5000001    1    1    2    0    0 -0.17297224436E+03  0.71248801830E+02  0.51719758493E+03  0.56446269225E+03  0.12700000000E+03 0.  0.
<mgrwt>
<rscale>  0 0.50853845E+03</rscale>
<asrwt>0</asrwt>
<pdfrwt beam="1">  1        2 0.28479766E+00 0.50853845E+03</pdfrwt>
<pdfrwt beam="2">  1       -2 0.46329233E-02 0.50853845E+03</pdfrwt>
<totfact> 0.19342335E+03</totfact>
</mgrwt>
</event>
<event>
 4    1  0.1399921E-004  0.5836279E+03  0.7818608E-02  0.9939967E-01
          2   -1    0    0  501    0  0.00000000000E+00  0.00000000000E+00  0.80941966067E+03  0.80941966068E+03  0.25500000000E-02 0.  1.
         -2   -1    0    0    0  501 -0.00000000000E+00 -0.00000000000E+00 -0.10520546682E+03  0.10520546685E+03  0.25500000000E-02 0. -1.
    5000001    1    1    2    0    0 -0.16492853087E+03  0.91727853821E+02  0.65655306290E+02  0.23675945326E+03  0.12700000000E+03 0.  0.
   -5000001    1    1    2    0    0  0.16492853087E+03 -0.91727853821E+02  0.63855888757E+03  0.67786567427E+03  0.12700000000E+03 0.  0.
<mgrwt>
<rscale>  0 0.58362787E+03</rscale>
<asrwt>0</asrwt>
<pdfrwt beam="1">  1        2 0.11563138E+00 0.58362787E+03</pdfrwt>
<pdfrwt beam="2">  1       -2 0.15029352E-01 0.58362787E+03</pdfrwt>
<totfact> 0.13099807E+03</totfact>
</mgrwt>
</event>
<event>
 4    1  0.1399921E-004  0.5688150E+03  0.7818608E-02  0.9972304E-01
          2   -1    0    0  501    0  0.00000000000E+00  0.00000000000E+00  0.19773972567E+04  0.19773972567E+04  0.25500000000E-02 0.  1.
         -2   -1    0    0    0  501 -0.00000000000E+00 -0.00000000000E+00 -0.40906101153E+02  0.40906101233E+02  0.25500000000E-02 0. -1.
    5000001    1    1    2    0    0 -0.14923274160E+03 -0.20567158731E+03  0.91967207659E+03  0.96254711129E+03  0.12700000000E+03 0.  0.
   -5000001    1    1    2    0    0  0.14923274160E+03  0.20567158731E+03  0.10168190789E+04  0.10557562466E+04  0.12700000000E+03 0.  0.
<mgrwt>
<rscale>  0 0.56881495E+03</rscale>
<asrwt>0</asrwt>
<pdfrwt beam="1">  1        2 0.28248535E+00 0.56881495E+03</pdfrwt>
<pdfrwt beam="2">  1       -2 0.58437281E-02 0.56881495E+03</pdfrwt>
<totfact> 0.13709475E+03</totfact>
</mgrwt>
</event>
<event>
 4    1  0.1399921E-004  0.7976739E+03  0.7818608E-02  0.9563390E-01
          2   -1    0    0  501    0  0.00000000000E+00  0.00000000000E+00  0.14076639731E+04  0.14076639731E+04  0.25500000000E-02 0.  1.
         -2   -1    0    0    0  501 -0.00000000000E+00 -0.00000000000E+00 -0.11300345748E+03  0.11300345751E+03  0.25500000000E-02 0. -1.
    5000001    1    1    2    0    0 -0.11851993138E+03  0.35248413209E+03  0.51733462840E+03  0.64965849125E+03  0.12700000000E+03 0.  0.
   -5000001    1    1    2    0    0  0.11851993138E+03 -0.35248413209E+03  0.77732588724E+03  0.87100893938E+03  0.12700000000E+03 0.  0.
<mgrwt>
<rscale>  0 0.79767386E+03</rscale>
<asrwt>0</asrwt>
<pdfrwt beam="1">  1        2 0.20109485E+00 0.79767386E+03</pdfrwt>
<pdfrwt beam="2">  1       -2 0.16143352E-01 0.79767386E+03</pdfrwt>
<totfact> 0.50979785E+02</totfact>
</mgrwt>
</event>
<event>
 4    1  0.1399921E-004  0.3283023E+03  0.7818608E-02  0.1071891E+00
         -2   -1    0    0    0  501 -0.00000000000E+00  0.00000000000E+00  0.13080682924E+02  0.13080683172E+02  0.25500000000E-02 0. -1.
          2   -1    0    0  501    0  0.00000000000E+00 -0.00000000000E+00 -0.20599533743E+04  0.20599533743E+04  0.25500000000E-02 0.  1.
    5000001    1    1    2    0    0  0.79677586043E+02 -0.65805446486E+02 -0.10975392566E+04  0.11096847725E+04  0.12700000000E+03 0.  0.
   -5000001    1    1    2    0    0 -0.79677586043E+02  0.65805446486E+02 -0.94933343476E+03  0.96334928497E+03  0.12700000000E+03 0.  0.
<mgrwt>
<rscale>  0 0.32830228E+03</rscale>
<asrwt>0</asrwt>
<pdfrwt beam="1">  1        2 0.29427885E+00 0.32830228E+03</pdfrwt>
<pdfrwt beam="2">  1       -2 0.18686703E-02 0.32830228E+03</pdfrwt>
<totfact> 0.70659053E+03</totfact>
</mgrwt>
</event>
<event>
 4    1  0.1399921E-004  0.6266176E+03  0.7818608E-02  0.9851672E-01
          2   -1    0    0  501    0  0.00000000000E+00  0.00000000000E+00  0.10642804511E+04  0.10642804511E+04  0.25500000000E-02 0.  1.
         -2   -1    0    0    0  501 -0.00000000000E+00 -0.00000000000E+00 -0.92233597702E+02  0.92233597737E+02  0.25500000000E-02 0. -1.
    5000001    1    1    2    0    0 -0.60641099032E+02 -0.27880496934E+03  0.43992434458E+03  0.53951087364E+03  0.12700000000E+03 0.  0.
   -5000001    1    1    2    0    0  0.60641099032E+02  0.27880496934E+03  0.53212250882E+03  0.61700317521E+03  0.12700000000E+03 0.  0.
<mgrwt>
<rscale>  0 0.62661763E+03</rscale>
<asrwt>0</asrwt>
<pdfrwt beam="1">  1        2 0.15204005E+00 0.62661763E+03</pdfrwt>
<pdfrwt beam="2">  1       -2 0.13176230E-01 0.62661763E+03</pdfrwt>
<totfact> 0.11242912E+03</totfact>
</mgrwt>
</event>
<event>
 4    1  0.1399921E-004  0.3757808E+03  0.7818608E-02  0.1052504E+00
         -2   -1    0    0    0  501 -0.00000000000E+00  0.00000000000E+00  0.74643929744E+02  0.74643929788E+02  0.25500000000E-02 0. -1.
          2   -1    0    0  501    0  0.00000000000E+00 -0.00000000000E+00 -0.47294948623E+03  0.47294948623E+03  0.25500000000E-02 0.  1.
    5000001    1    1    2    0    0  0.41936140690E+02  0.12759578126E+03 -0.24823485880E+03  0.30949776803E+03  0.12700000000E+03 0.  0.
   -5000001    1    1    2    0    0 -0.41936140690E+02 -0.12759578126E+03 -0.15007069768E+03  0.23809564799E+03  0.12700000000E+03 0.  0.
<mgrwt>
<rscale>  0 0.37578083E+03</rscale>
<asrwt>0</asrwt>
<pdfrwt beam="1">  1        2 0.67564210E-01 0.37578083E+03</pdfrwt>
<pdfrwt beam="2">  1       -2 0.10663419E-01 0.37578083E+03</pdfrwt>
<totfact> 0.43346325E+03</totfact>
</mgrwt>
</event>
<event>
 4    1  0.1399921E-004  0.5800516E+03  0.7818608E-02  0.9947679E-01
         -2   -1    0    0    0  501 -0.00000000000E+00  0.00000000000E+00  0.17857707332E+03  0.17857707334E+03  0.25500000000E-02 0. -1.
          2   -1    0    0  501    0  0.00000000000E+00 -0.00000000000E+00 -0.47102893986E+03  0.47102893987E+03  0.25500000000E-02 0.  1.
    5000001    1    1    2    0    0  0.21593138709E+03  0.14580902843E+03 -0.15738761968E+03  0.32982798476E+03  0.12700000000E+03 0.  0.
   -5000001    1    1    2    0    0 -0.21593138709E+03 -0.14580902843E+03 -0.13506424686E+03  0.31977802845E+03  0.12700000000E+03 0.  0.
<mgrwt>
<rscale>  0 0.58005162E+03</rscale>
<asrwt>0</asrwt>
<pdfrwt beam="1">  1        2 0.67289848E-01 0.58005162E+03</pdfrwt>
<pdfrwt beam="2">  1       -2 0.25511011E-01 0.58005162E+03</pdfrwt>
<totfact> 0.99519625E+02</totfact>
</mgrwt>
</event>
<event>
 4    1  0.1399921E-004  0.3663088E+03  0.7818608E-02  0.1056113E+00
          2   -1    0    0  501    0  0.00000000000E+00  0.00000000000E+00  0.83775559927E+03  0.83775559928E+03  0.25500000000E-02 0.  1.
         -2   -1    0    0    0  501 -0.00000000000E+00 -0.00000000000E+00 -0.40042139205E+02  0.40042139286E+02  0.25500000000E-02 0. -1.
    5000001    1    1    2    0    0  0.88834080850E+02  0.94997697979E+02  0.34524792784E+03  0.39018096855E+03  0.12700000000E+03 0.  0.
   -5000001    1    1    2    0    0 -0.88834080850E+02 -0.94997697979E+02  0.45246553223E+03  0.48761677001E+03  0.12700000000E+03 0.  0.
<mgrwt>
<rscale>  0 0.36630876E+03</rscale>
<asrwt>0</asrwt>
<pdfrwt beam="1">  1        2 0.11967935E+00 0.36630876E+03</pdfrwt>
<pdfrwt beam="2">  1       -2 0.57203064E-02 0.36630876E+03</pdfrwt>
<totfact> 0.58916680E+03</totfact>
</mgrwt>
</event>
<event>
 4    1  0.1399921E-004  0.3341467E+03  0.7818608E-02  0.1069317E+00
         -2   -1    0    0    0  501 -0.00000000000E+00  0.00000000000E+00  0.25505084743E+02  0.25505084871E+02  0.25500000000E-02 0. -1.
          2   -1    0    0  501    0  0.00000000000E+00 -0.00000000000E+00 -0.10944288582E+04  0.10944288582E+04  0.25500000000E-02 0.  1.
    5000001    1    1    2    0    0 -0.65574333683E+02 -0.46384779792E+02 -0.28970246793E+03  0.32635572764E+03  0.12700000000E+03 0.  0.
   -5000001    1    1    2    0    0  0.65574333683E+02  0.46384779792E+02 -0.77922130549E+03  0.79357821541E+03  0.12700000000E+03 0.  0.
<mgrwt>
<rscale>  0 0.33414668E+03</rscale>
<asrwt>0</asrwt>
<pdfrwt beam="1">  1        2 0.15634695E+00 0.33414668E+03</pdfrwt>
<pdfrwt beam="2">  1       -2 0.36435842E-02 0.33414668E+03</pdfrwt>
<totfact> 0.81534059E+03</totfact>
</mgrwt>
</event>
<event>
 4    1  0.1399921E-004  0.8005887E+03  0.7818608E-02  0.9559165E-01
          2   -1    0    0  501    0  0.00000000000E+00  0.00000000000E+00  0.16805080511E+04  0.16805080511E+04  0.25500000000E-02 0.  1.
         -2   -1    0    0    0  501 -0.00000000000E+00 -0.00000000000E+00 -0.95349477340E+02  0.95349477374E+02  0.25500000000E-02 0. -1.
    5000001    1    1    2    0    0  0.35020159134E+03  0.83136300268E+02  0.52497913688E+03  0.64906462942E+03  0.12700000000E+03 0.  0.
   -5000001    1    1    2    0    0 -0.35020159134E+03 -0.83136300268E+02  0.10601794369E+04  0.11267928991E+04  0.12700000000E+03 0.  0.
<mgrwt>
<rscale>  0 0.80058869E+03</rscale>
<asrwt>0</asrwt>
<pdfrwt beam="1">  1        2 0.24007258E+00 0.80058869E+03</pdfrwt>
<pdfrwt beam="2">  1       -2 0.13621354E-01 0.80058869E+03</pdfrwt>
<totfact> 0.48888412E+02</totfact>
</mgrwt>
</event>
<event>
 4    1  0.1399921E-004  0.7692347E+03  0.7818608E-02  0.9605648E-01
          2   -1    0    0  501    0  0.00000000000E+00  0.00000000000E+00  0.16132285405E+04  0.16132285405E+04  0.25500000000E-02 0.  1.
         -2   -1    0    0    0  501 -0.00000000000E+00 -0.00000000000E+00 -0.91698420930E+02  0.91698420965E+02  0.25500000000E-02 0. -1.
    5000001    1    1    2    0    0  0.23531759141E+03 -0.16683697912E+03  0.27218941830E+03  0.41644330450E+03  0.12700000000E+03 0.  0.
   -5000001    1    1    2    0    0 -0.23531759141E+03  0.16683697912E+03  0.12493407013E+04  0.12884836570E+04  0.12700000000E+03 0.  0.
<mgrwt>
<rscale>  0 0.76923471E+03</rscale>
<asrwt>0</asrwt>
<pdfrwt beam="1">  1        2 0.23046123E+00 0.76923471E+03</pdfrwt>
<pdfrwt beam="2">  1       -2 0.13099774E-01 0.76923471E+03</pdfrwt>
<totfact> 0.56625161E+02</totfact>
</mgrwt>
</event>
<event>
 4    1  0.1399921E-004  0.3981565E+03  0.7818608E-02  0.1044420E+00
          2   -1    0    0  501    0  0.00000000000E+00  0.00000000000E+00  0.23437545348E+03  0.23437545349E+03  0.25500000000E-02 0.  1.
         -2   -1    0    0    0  501 -0.00000000000E+00 -0.00000000000E+00 -0.16909683709E+03  0.16909683711E+03  0.25500000000E-02 0. -1.
    5000001    1    1    2    0    0 -0.30316049358E+02  0.64787018735E+02  0.17004734352E+03  0.22396767553E+03  0.12700000000E+03 0.  0.
   -5000001    1    1    2    0    0  0.30316049358E+02 -0.64787018735E+02 -0.10476872714E+03  0.17950461507E+03  0.12700000000E+03 0.  0.
<mgrwt>
<rscale>  0 0.39815649E+03</rscale>
<asrwt>0</asrwt>
<pdfrwt beam="1">  1        2 0.33482208E-01 0.39815649E+03</pdfrwt>
<pdfrwt beam="2">  1       -2 0.24156691E-01 0.39815649E+03</pdfrwt>
<totfact> 0.23636464E+03</totfact>
</mgrwt>
</event>
<event>
 4    1  0.1399921E-004  0.3472120E+03  0.7818608E-02  0.1063765E+00
         -2   -1    0    0    0  501 -0.00000000000E+00  0.00000000000E+00  0.15841542776E+02  0.15841542981E+02  0.25500000000E-02 0. -1.
          2   -1    0    0  501    0  0.00000000000E+00 -0.00000000000E+00 -0.19025319367E+04  0.19025319367E+04  0.25500000000E-02 0.  1.
    5000001    1    1    2    0    0 -0.21733677218E+02  0.11505980419E+03 -0.84781884481E+03  0.86523806255E+03  0.12700000000E+03 0.  0.
   -5000001    1    1    2    0    0  0.21733677218E+02 -0.11505980419E+03 -0.10388715491E+04  0.10531354171E+04  0.12700000000E+03 0.  0.
<mgrwt>
<rscale>  0 0.34721199E+03</rscale>
<asrwt>0</asrwt>
<pdfrwt beam="1">  1        2 0.27179013E+00 0.34721199E+03</pdfrwt>
<pdfrwt beam="2">  1       -2 0.22630788E-02 0.34721199E+03</pdfrwt>
<totfact> 0.63597734E+03</totfact>
</mgrwt>
</event>
<event>
 4    1  0.1399921E-004  0.2844856E+03  0.7818608E-02  0.1093264E+00
         -2   -1    0    0    0  501 -0.00000000000E+00  0.00000000000E+00  0.90829794950E+02  0.90829794986E+02  0.25500000000E-02 0. -1.
          2   -1    0    0  501    0  0.00000000000E+00 -0.00000000000E+00 -0.22275742431E+03  0.22275742432E+03  0.25500000000E-02 0.  1.
    5000001    1    1    2    0    0 -0.12283844951E+02  0.59370751004E+02 -0.43153158004E+02  0.14719705828E+03  0.12700000000E+03 0.  0.
   -5000001    1    1    2    0    0  0.12283844951E+02 -0.59370751004E+02 -0.88774471351E+02  0.16639016102E+03  0.12700000000E+03 0.  0.
<mgrwt>
<rscale>  0 0.28448558E+03</rscale>
<asrwt>0</asrwt>
<pdfrwt beam="1">  1        2 0.31822489E-01 0.28448558E+03</pdfrwt>
<pdfrwt beam="2">  1       -2 0.12975685E-01 0.28448558E+03</pdfrwt>
<totfact> 0.71023351E+03</totfact>
</mgrwt>
</event>
<event>
 4    1  0.1399921E-004  0.3399718E+03  0.7818608E-02  0.1066808E+00
          2   -1    0    0  501    0  0.00000000000E+00  0.00000000000E+00  0.16712214221E+04  0.16712214221E+04  0.25500000000E-02 0.  1.
         -2   -1    0    0    0  501 -0.00000000000E+00 -0.00000000000E+00 -0.17289869005E+02  0.17289869193E+02  0.25500000000E-02 0. -1.
    5000001    1    1    2    0    0  0.77852135919E+02 -0.81868128864E+02  0.83535633432E+03  0.85247436963E+03  0.12700000000E+03 0.  0.
   -5000001    1    1    2    0    0 -0.77852135919E+02  0.81868128864E+02  0.81857521877E+03  0.83603692166E+03  0.12700000000E+03 0.  0.
<mgrwt>
<rscale>  0 0.33997176E+03</rscale>
<asrwt>0</asrwt>
<pdfrwt beam="1">  1        2 0.23874596E+00 0.33997176E+03</pdfrwt>
<pdfrwt beam="2">  1       -2 0.24699808E-02 0.33997176E+03</pdfrwt>
<totfact> 0.72670871E+03</totfact>
</mgrwt>
</event>
<event>
 4    1  0.1399921E-004  0.7769350E+03  0.7818608E-02  0.9594016E-01
          2   -1    0    0  501    0  0.00000000000E+00  0.00000000000E+00  0.79069436647E+02  0.79069436688E+02  0.25500000000E-02 0.  1.
         -2   -1    0    0    0  501 -0.00000000000E+00 -0.00000000000E+00 -0.19085376155E+04  0.19085376155E+04  0.25500000000E-02 0. -1.
    5000001    1    1    2    0    0 -0.33509138738E+03 -0.37055903339E+02 -0.12865077164E+04  0.13359979350E+04  0.12700000000E+03 0.  0.
   -5000001    1    1    2    0    0  0.33509138738E+03  0.37055903339E+02 -0.54296046244E+03  0.65160911722E+03  0.12700000000E+03 0.  0.
<mgrwt>
<rscale>  0 0.77693499E+03</rscale>
<asrwt>0</asrwt>
<pdfrwt beam="1">  1        2 0.11295635E-01 0.77693499E+03</pdfrwt>
<pdfrwt beam="2">  1       -2 0.27264820E+00 0.77693499E+03</pdfrwt>
<totfact> 0.27442639E+01</totfact>
</mgrwt>
</event>
<event>
 4    1  0.1399921E-004  0.5728568E+03  0.7818608E-02  0.9963377E-01
          2   -1    0    0  501    0  0.00000000000E+00  0.00000000000E+00  0.27650076071E+03  0.27650076072E+03  0.25500000000E-02 0.  1.
         -2   -1    0    0    0  501 -0.00000000000E+00 -0.00000000000E+00 -0.29671249968E+03  0.29671249970E+03  0.25500000000E-02 0. -1.
    5000001    1    1    2    0    0  0.14310729222E+03  0.18042306083E+02  0.20241039157E+03  0.27911321808E+03  0.12700000000E+03 0.  0.
   -5000001    1    1    2    0    0 -0.14310729222E+03 -0.18042306083E+02 -0.22262213054E+03  0.29410004233E+03  0.12700000000E+03 0.  0.
<mgrwt>
<rscale>  0 0.57285681E+03</rscale>
<asrwt>0</asrwt>
<pdfrwt beam="1">  1        2 0.39500109E-01 0.57285681E+03</pdfrwt>
<pdfrwt beam="2">  1       -2 0.42387500E-01 0.57285681E+03</pdfrwt>
<totfact> 0.69299235E+02</totfact>
</mgrwt>
</event>
<event>
 4    1  0.1399921E-004  0.5357188E+03  0.7818608E-02  0.1004855E+00
         -2   -1    0    0    0  501 -0.00000000000E+00  0.00000000000E+00  0.76163091248E+02  0.76163091291E+02  0.25500000000E-02 0. -1.
          2   -1    0    0  501    0  0.00000000000E+00 -0.00000000000E+00 -0.94203964626E+03  0.94203964626E+03  0.25500000000E-02 0.  1.
    5000001    1    1    2    0    0  0.19000954362E+03 -0.13502067069E+03 -0.36479486647E+03  0.45115241636E+03  0.12700000000E+03 0.  0.
   -5000001    1    1    2    0    0 -0.19000954362E+03  0.13502067069E+03 -0.50108168854E+03  0.56705032120E+03  0.12700000000E+03 0.  0.
<mgrwt>
<rscale>  0 0.53571878E+03</rscale>
<asrwt>0</asrwt>
<pdfrwt beam="1">  1        2 0.13457709E+00 0.53571878E+03</pdfrwt>
<pdfrwt beam="2">  1       -2 0.10880442E-01 0.53571878E+03</pdfrwt>
<totfact> 0.18309598E+03</totfact>
</mgrwt>
</event>
<event>
 4    1  0.1399921E-004  0.3744247E+03  0.7818608E-02  0.1053014E+00
          2   -1    0    0  501    0  0.00000000000E+00  0.00000000000E+00  0.99369664414E+03  0.99369664414E+03  0.25500000000E-02 0.  1.
         -2   -1    0    0    0  501 -0.00000000000E+00 -0.00000000000E+00 -0.35270784316E+02  0.35270784408E+02  0.25500000000E-02 0. -1.
    5000001    1    1    2    0    0 -0.10757002988E+03  0.50464240463E+02  0.66963884123E+03  0.69185484646E+03  0.12700000000E+03 0.  0.
   -5000001    1    1    2    0    0  0.10757002988E+03 -0.50464240463E+02  0.28878701859E+03  0.33711258209E+03  0.12700000000E+03 0.  0.
<mgrwt>
<rscale>  0 0.37442468E+03</rscale>
<asrwt>0</asrwt>
<pdfrwt beam="1">  1        2 0.14195669E+00 0.37442468E+03</pdfrwt>
<pdfrwt beam="2">  1       -2 0.50386826E-02 0.37442468E+03</pdfrwt>
<totfact> 0.57171543E+03</totfact>
</mgrwt>
</event>
<event>
 4    1  0.1399921E-004  0.2931595E+03  0.7818608E-02  0.1088711E+00
         -2   -1    0    0    0  501 -0.00000000000E+00  0.00000000000E+00  0.26775941314E+02  0.26775941436E+02  0.25500000000E-02 0. -1.
          2   -1    0    0  501    0  0.00000000000E+00 -0.00000000000E+00 -0.80242261520E+03  0.80242261521E+03  0.25500000000E-02 0.  1.
    5000001    1    1    2    0    0 -0.13136777050E+02 -0.60442215053E+02 -0.27715799392E+03  0.31108100209E+03  0.12700000000E+03 0.  0.
   -5000001    1    1    2    0    0  0.13136777050E+02  0.60442215053E+02 -0.49848867997E+03  0.51811755455E+03  0.12700000000E+03 0.  0.
<mgrwt>
<rscale>  0 0.29315948E+03</rscale>
<asrwt>0</asrwt>
<pdfrwt beam="1">  1        2 0.11463179E+00 0.29315948E+03</pdfrwt>
<pdfrwt beam="2">  1       -2 0.38251350E-02 0.29315948E+03</pdfrwt>
<totfact> 0.11407412E+04</totfact>
</mgrwt>
</event>
<event>
 4    1  0.1399921E-004  0.4565169E+03  0.7818608E-02  0.1025796E+00
          2   -1    0    0  501    0  0.00000000000E+00  0.00000000000E+00  0.15701855909E+04  0.15701855909E+04  0.25500000000E-02 0.  1.
         -2   -1    0    0    0  501 -0.00000000000E+00 -0.00000000000E+00 -0.33182019751E+02  0.33182019849E+02  0.25500000000E-02 0. -1.
    5000001    1    1    2    0    0 -0.34851818425E+02 -0.11977308179E+03  0.26670679995E+03  0.32065831895E+03  0.12700000000E+03 0.  0.
   -5000001    1    1    2    0    0  0.34851818425E+02  0.11977308179E+03  0.12702967712E+04  0.12827092918E+04  0.12700000000E+03 0.  0.
<mgrwt>
<rscale>  0 0.45651694E+03</rscale>
<asrwt>0</asrwt>
<pdfrwt beam="1">  1        2 0.22431217E+00 0.45651694E+03</pdfrwt>
<pdfrwt beam="2">  1       -2 0.47402897E-02 0.45651694E+03</pdfrwt>
<totfact> 0.30526248E+03</totfact>
</mgrwt>
</event>
<event>
 4    1  0.1399921E-004  0.3562537E+03  0.7818608E-02  0.1060077E+00
          2   -1    0    0  501    0  0.00000000000E+00  0.00000000000E+00  0.19541061542E+04  0.19541061542E+04  0.25500000000E-02 0.  1.
         -2   -1    0    0    0  501 -0.00000000000E+00 -0.00000000000E+00 -0.16237180214E+02  0.16237180414E+02  0.25500000000E-02 0. -1.
    5000001    1    1    2    0    0  0.95781733520E+02  0.77571353662E+02  0.10807481125E+04  0.10951424282E+04  0.12700000000E+03 0.  0.
   -5000001    1    1    2    0    0 -0.95781733520E+02 -0.77571353662E+02  0.85712086152E+03  0.87520090644E+03  0.12700000000E+03 0.  0.
<mgrwt>
<rscale>  0 0.35625370E+03</rscale>
<asrwt>0</asrwt>
<pdfrwt beam="1">  1        2 0.27915811E+00 0.35625370E+03</pdfrwt>
<pdfrwt beam="2">  1       -2 0.23195965E-02 0.35625370E+03</pdfrwt>
<totfact> 0.57827701E+03</totfact>
</mgrwt>
</event>
<event>
 4    1  0.1399921E-004  0.6034415E+03  0.7818608E-02  0.9898292E-01
         -2   -1    0    0    0  501 -0.00000000000E+00  0.00000000000E+00  0.95424668590E+02  0.95424668624E+02  0.25500000000E-02 0. -1.
          2   -1    0    0  501    0  0.00000000000E+00 -0.00000000000E+00 -0.95400280758E+03  0.95400280758E+03  0.25500000000E-02 0.  1.
    5000001    1    1    2    0    0  0.19814143915E+03 -0.18737152547E+03 -0.46963713641E+03  0.55772408802E+03  0.12700000000E+03 0.  0.
   -5000001    1    1    2    0    0 -0.19814143915E+03  0.18737152547E+03 -0.38894100258E+03  0.49170338818E+03  0.12700000000E+03 0.  0.
<mgrwt>
<rscale>  0 0.60344147E+03</rscale>
<asrwt>0</asrwt>
<pdfrwt beam="1">  1        2 0.13628611E+00 0.60344147E+03</pdfrwt>
<pdfrwt beam="2">  1       -2 0.13632096E-01 0.60344147E+03</pdfrwt>
<totfact> 0.12402721E+03</totfact>
</mgrwt>
</event>
<event>
 4    1  0.1399921E-004  0.3553776E+03  0.7818608E-02  0.1060429E+00
         -2   -1    0    0    0  501 -0.00000000000E+00  0.00000000000E+00  0.21543745606E+03  0.21543745608E+03  0.25500000000E-02 0. -1.
          2   -1    0    0  501    0  0.00000000000E+00 -0.00000000000E+00 -0.14655441701E+03  0.14655441703E+03  0.25500000000E-02 0.  1.
    5000001    1    1    2    0    0  0.26623301529E+02 -0.67152821489E+02 -0.68564321257E+02  0.16139506736E+03  0.12700000000E+03 0.  0.
   -5000001    1    1    2    0    0 -0.26623301529E+02  0.67152821489E+02  0.13744736032E+03  0.20059680575E+03  0.12700000000E+03 0.  0.
<mgrwt>
<rscale>  0 0.35537761E+03</rscale>
<asrwt>0</asrwt>
<pdfrwt beam="1">  1        2 0.20936345E-01 0.35537761E+03</pdfrwt>
<pdfrwt beam="2">  1       -2 0.30776780E-01 0.35537761E+03</pdfrwt>
<totfact> 0.25831113E+03</totfact>
</mgrwt>
</event>
<event>
 4    1  0.1399921E-004  0.4650096E+03  0.7818608E-02  0.1023338E+00
         -2   -1    0    0    0  501 -0.00000000000E+00  0.00000000000E+00  0.45925180710E+02  0.45925180781E+02  0.25500000000E-02 0. -1.
          2   -1    0    0  501    0  0.00000000000E+00 -0.00000000000E+00 -0.11770988135E+04  0.11770988135E+04  0.25500000000E-02 0.  1.
    5000001    1    1    2    0    0  0.17259443836E+03  0.89464321569E+02 -0.53482799091E+03  0.58306319112E+03  0.12700000000E+03 0.  0.
   -5000001    1    1    2    0    0 -0.17259443836E+03 -0.89464321569E+02 -0.59634564189E+03  0.63996080316E+03  0.12700000000E+03 0.  0.
<mgrwt>
<rscale>  0 0.46500957E+03</rscale>
<asrwt>0</asrwt>
<pdfrwt beam="1">  1        2 0.16815696E+00 0.46500957E+03</pdfrwt>
<pdfrwt beam="2">  1       -2 0.65607408E-02 0.46500957E+03</pdfrwt>
<totfact> 0.29817791E+03</totfact>
</mgrwt>
</event>
<event>
 4    1  0.1399921E-004  0.3364778E+03  0.7818608E-02  0.1068306E+00
          2   -1    0    0  501    0  0.00000000000E+00  0.00000000000E+00  0.17534754008E+04  0.17534754008E+04  0.25500000000E-02 0.  1.
         -2   -1    0    0    0  501 -0.00000000000E+00 -0.00000000000E+00 -0.16141841399E+02  0.16141841600E+02  0.25500000000E-02 0. -1.
    5000001    1    1    2    0    0 -0.84033938948E+02 -0.67572283918E+02  0.74559545176E+03  0.76398252214E+03  0.12700000000E+03 0.  0.
   -5000001    1    1    2    0    0  0.84033938948E+02  0.67572283918E+02  0.99173810761E+03  0.10056347202E+04  0.12700000000E+03 0.  0.
<mgrwt>
<rscale>  0 0.33647777E+03</rscale>
<asrwt>0</asrwt>
<pdfrwt beam="1">  1        2 0.25049644E+00 0.33647777E+03</pdfrwt>
<pdfrwt beam="2">  1       -2 0.23059778E-02 0.33647777E+03</pdfrwt>
<totfact> 0.73251342E+03</totfact>
</mgrwt>
</event>
<event>
 4    1  0.1399921E-004  0.4790159E+03  0.7818608E-02  0.1019406E+00
          2   -1    0    0  501    0  0.00000000000E+00  0.00000000000E+00  0.14215314294E+03  0.14215314297E+03  0.25500000000E-02 0.  1.
         -2   -1    0    0    0  501 -0.00000000000E+00 -0.00000000000E+00 -0.40353702051E+03  0.40353702051E+03  0.25500000000E-02 0. -1.
    5000001    1    1    2    0    0 -0.12053217856E+03  0.14788581573E+03 -0.51464274914E+02  0.23489527913E+03  0.12700000000E+03 0.  0.
   -5000001    1    1    2    0    0  0.12053217856E+03 -0.14788581573E+03 -0.20991960265E+03  0.31079488435E+03  0.12700000000E+03 0.  0.
<mgrwt>
<rscale>  0 0.47901589E+03</rscale>
<asrwt>0</asrwt>
<pdfrwt beam="1">  1        2 0.20307592E-01 0.47901589E+03</pdfrwt>
<pdfrwt beam="2">  1       -2 0.57648145E-01 0.47901589E+03</pdfrwt>
<totfact> 0.78990086E+02</totfact>
</mgrwt>
</event>
<event>
 4    1  0.1399921E-004  0.9649870E+03  0.7818608E-02  0.9347803E-01
         -2   -1    0    0    0  501 -0.00000000000E+00  0.00000000000E+00  0.26903710257E+03  0.26903710258E+03  0.25500000000E-02 0. -1.
          2   -1    0    0  501    0  0.00000000000E+00 -0.00000000000E+00 -0.86530801412E+03  0.86530801412E+03  0.25500000000E-02 0.  1.
    5000001    1    1    2    0    0  0.41567213068E+03  0.19789282852E+03 -0.37894707234E+03  0.60965135564E+03  0.12700000000E+03 0.  0.
   -5000001    1    1    2    0    0 -0.41567213068E+03 -0.19789282852E+03 -0.21732383922E+03  0.52469376106E+03  0.12700000000E+03 0.  0.
<mgrwt>
<rscale>  0 0.96498697E+03</rscale>
<asrwt>0</asrwt>
<pdfrwt beam="1">  1        2 0.12361543E+00 0.96498697E+03</pdfrwt>
<pdfrwt beam="2">  1       -2 0.38433872E-01 0.96498697E+03</pdfrwt>
<totfact> 0.21884596E+02</totfact>
</mgrwt>
</event>
<event>
 4    1  0.1399921E-004  0.3204132E+03  0.7818608E-02  0.1075459E+00
         -2   -1    0    0    0  501 -0.00000000000E+00  0.00000000000E+00  0.91897256011E+02  0.91897256046E+02  0.25500000000E-02 0. -1.
          2   -1    0    0  501    0  0.00000000000E+00 -0.00000000000E+00 -0.27929189530E+03  0.27929189531E+03  0.25500000000E-02 0.  1.
    5000001    1    1    2    0    0  0.14835133064E+02  0.68166728258E+02 -0.17286733106E+03  0.22556351248E+03  0.12700000000E+03 0.  0.
   -5000001    1    1    2    0    0 -0.14835133064E+02 -0.68166728258E+02 -0.14527308229E+02  0.14562563888E+03  0.12700000000E+03 0.  0.
<mgrwt>
<rscale>  0 0.32041323E+03</rscale>
<asrwt>0</asrwt>
<pdfrwt beam="1">  1        2 0.39898842E-01 0.32041323E+03</pdfrwt>
<pdfrwt beam="2">  1       -2 0.13128180E-01 0.32041323E+03</pdfrwt>
<totfact> 0.54695762E+03</totfact>
</mgrwt>
</event>
<event>
 4    1  0.1399921E-004  0.5182237E+03  0.7818608E-02  0.1009129E+00
         -2   -1    0    0    0  501 -0.00000000000E+00  0.00000000000E+00  0.63906763586E+02  0.63906763637E+02  0.25500000000E-02 0. -1.
          2   -1    0    0  501    0  0.00000000000E+00 -0.00000000000E+00 -0.10505765132E+04  0.10505765132E+04  0.25500000000E-02 0.  1.
    5000001    1    1    2    0    0  0.10372796637E+03  0.16593013396E+03 -0.73586162390E+03  0.77195442216E+03  0.12700000000E+03 0.  0.
   -5000001    1    1    2    0    0 -0.10372796637E+03 -0.16593013396E+03 -0.25080812571E+03  0.34252885468E+03  0.12700000000E+03 0.  0.
<mgrwt>
<rscale>  0 0.51822368E+03</rscale>
<asrwt>0</asrwt>
<pdfrwt beam="1">  1        2 0.15008235E+00 0.51822368E+03</pdfrwt>
<pdfrwt beam="2">  1       -2 0.91295383E-02 0.51822368E+03</pdfrwt>
<totfact> 0.20886722E+03</totfact>
</mgrwt>
</event>
<event>
 4    1  0.1399921E-004  0.5414911E+03  0.7818608E-02  0.1003483E+00
         -2   -1    0    0    0  501 -0.00000000000E+00  0.00000000000E+00  0.19168363425E+02  0.19168363594E+02  0.25500000000E-02 0. -1.
          2   -1    0    0  501    0  0.00000000000E+00 -0.00000000000E+00 -0.38241743207E+04  0.38241743207E+04  0.25500000000E-02 0.  1.
    5000001    1    1    2    0    0 -0.23992963477E+02 -0.21971522036E+03 -0.25500578403E+04  0.25627669479E+04  0.12700000000E+03 0.  0.
   -5000001    1    1    2    0    0  0.23992963477E+02  0.21971522036E+03 -0.12549481170E+04  0.12805757364E+04  0.12700000000E+03 0.  0.
<mgrwt>
<rscale>  0 0.54149114E+03</rscale>
<asrwt>0</asrwt>
<pdfrwt beam="1">  1        2 0.54631013E+00 0.54149114E+03</pdfrwt>
<pdfrwt beam="2">  1       -2 0.27383401E-02 0.54149114E+03</pdfrwt>
<totfact> 0.43157906E+02</totfact>
</mgrwt>
</event>
<event>
 4    1  0.1399921E-004  0.5656921E+03  0.7818608E-02  0.9979257E-01
         -2   -1    0    0    0  501 -0.00000000000E+00  0.00000000000E+00  0.50477160248E+03  0.50477160248E+03  0.25500000000E-02 0. -1.
          2   -1    0    0  501    0  0.00000000000E+00 -0.00000000000E+00 -0.15849127978E+03  0.15849127980E+03  0.25500000000E-02 0.  1.
    5000001    1    1    2    0    0 -0.22617695251E+03  0.11135894174E+03  0.19398491992E+03  0.34251419957E+03  0.12700000000E+03 0.  0.
   -5000001    1    1    2    0    0  0.22617695251E+03 -0.11135894174E+03  0.15229540278E+03  0.32074868271E+03  0.12700000000E+03 0.  0.
<mgrwt>
<rscale>  0 0.56569213E+03</rscale>
<asrwt>0</asrwt>
<pdfrwt beam="1">  1        2 0.22641611E-01 0.56569213E+03</pdfrwt>
<pdfrwt beam="2">  1       -2 0.72110230E-01 0.56569213E+03</pdfrwt>
<totfact> 0.43202907E+02</totfact>
</mgrwt>
</event>
<event>
 4    1  0.1399921E-004  0.3357810E+03  0.7818608E-02  0.1068607E+00
          2   -1    0    0  501    0  0.00000000000E+00  0.00000000000E+00  0.82733838896E+03  0.82733838896E+03  0.25500000000E-02 0.  1.
         -2   -1    0    0    0  501 -0.00000000000E+00 -0.00000000000E+00 -0.34069752865E+02  0.34069752960E+02  0.25500000000E-02 0. -1.
    5000001    1    1    2    0    0 -0.14107197747E+02  0.62021322047E+02  0.16699911582E+03  0.21923357887E+03  0.12700000000E+03 0.  0.
   -5000001    1    1    2    0    0  0.14107197747E+02 -0.62021322047E+02  0.62626952027E+03  0.64217456305E+03  0.12700000000E+03 0.  0.
<mgrwt>
<rscale>  0 0.33578097E+03</rscale>
<asrwt>0</asrwt>
<pdfrwt beam="1">  1        2 0.11819119E+00 0.33578097E+03</pdfrwt>
<pdfrwt beam="2">  1       -2 0.48671078E-02 0.33578097E+03</pdfrwt>
<totfact> 0.76538673E+03</totfact>
</mgrwt>
</event>
<event>
 4    1  0.1399921E-004  0.8813195E+03  0.7818608E-02  0.9449239E-01
          2   -1    0    0  501    0  0.00000000000E+00  0.00000000000E+00  0.22602559646E+04  0.22602559646E+04  0.25500000000E-02 0.  1.
         -2   -1    0    0    0  501 -0.00000000000E+00 -0.00000000000E+00 -0.85911078496E+02  0.85911078534E+02  0.25500000000E-02 0. -1.
    5000001    1    1    2    0    0  0.25178402936E+03 -0.30588306441E+03  0.70054885978E+03  0.81477441753E+03  0.12700000000E+03 0.  0.
   -5000001    1    1    2    0    0 -0.25178402936E+03  0.30588306441E+03  0.14737960263E+04  0.15313926256E+04  0.12700000000E+03 0.  0.
<mgrwt>
<rscale>  0 0.88131953E+03</rscale>
<asrwt>0</asrwt>
<pdfrwt beam="1">  1        2 0.32289369E+00 0.88131953E+03</pdfrwt>
<pdfrwt beam="2">  1       -2 0.12273012E-01 0.88131953E+03</pdfrwt>
<totfact> 0.29313964E+02</totfact>
</mgrwt>
</event>
<event>
 4    1  0.1399921E-004  0.4105787E+03  0.7818608E-02  0.1040177E+00
          2   -1    0    0  501    0  0.00000000000E+00  0.00000000000E+00  0.19893177635E+03  0.19893177637E+03  0.25500000000E-02 0.  1.
         -2   -1    0    0    0  501 -0.00000000000E+00 -0.00000000000E+00 -0.21185008275E+03  0.21185008277E+03  0.25500000000E-02 0. -1.
    5000001    1    1    2    0    0 -0.13503556047E+03 -0.84291253805E+02  0.19536299219E+02  0.20457342214E+03  0.12700000000E+03 0.  0.
   -5000001    1    1    2    0    0  0.13503556047E+03  0.84291253805E+02 -0.32454605620E+02  0.20620843699E+03  0.12700000000E+03 0.  0.
<mgrwt>
<rscale>  0 0.41057868E+03</rscale>
<asrwt>0</asrwt>
<pdfrwt beam="1">  1        2 0.28418825E-01 0.41057868E+03</pdfrwt>
<pdfrwt beam="2">  1       -2 0.30264298E-01 0.41057868E+03</pdfrwt>
<totfact> 0.18894670E+03</totfact>
</mgrwt>
</event>
<event>
 4    1  0.1399921E-004  0.3458722E+03  0.7818608E-02  0.1064322E+00
          2   -1    0    0  501    0  0.00000000000E+00  0.00000000000E+00  0.12514744805E+04  0.12514744805E+04  0.25500000000E-02 0.  1.
         -2   -1    0    0    0  501 -0.00000000000E+00 -0.00000000000E+00 -0.23897323346E+02  0.23897323482E+02  0.25500000000E-02 0. -1.
    5000001    1    1    2    0    0  0.96408847014E+02  0.28475960148E+02  0.83724502249E+03  0.85276830017E+03  0.12700000000E+03 0.  0.
   -5000001    1    1    2    0    0 -0.96408847014E+02 -0.28475960148E+02  0.39033213470E+03  0.42260350386E+03  0.12700000000E+03 0.  0.
<mgrwt>
<rscale>  0 0.34587218E+03</rscale>
<asrwt>0</asrwt>
<pdfrwt beam="1">  1        2 0.17878202E+00 0.34587218E+03</pdfrwt>
<pdfrwt beam="2">  1       -2 0.34139043E-02 0.34587218E+03</pdfrwt>
<totfact> 0.73675688E+03</totfact>
</mgrwt>
</event>
<event>
 4    1  0.1399921E-004  0.3569643E+03  0.7818608E-02  0.1059792E+00
         -2   -1    0    0    0  501 -0.00000000000E+00  0.00000000000E+00  0.44895934440E+02  0.44895934513E+02  0.25500000000E-02 0. -1.
          2   -1    0    0  501    0  0.00000000000E+00 -0.00000000000E+00 -0.70954918589E+03  0.70954918590E+03  0.25500000000E-02 0.  1.
    5000001    1    1    2    0    0  0.76247299035E+02  0.68739814625E+02 -0.48455844442E+03  0.51133618959E+03  0.12700000000E+03 0.  0.
   -5000001    1    1    2    0    0 -0.76247299035E+02 -0.68739814625E+02 -0.18009480703E+03  0.24310893082E+03  0.12700000000E+03 0.  0.
<mgrwt>
<rscale>  0 0.35696428E+03</rscale>
<asrwt>0</asrwt>
<pdfrwt beam="1">  1        2 0.10136416E+00 0.35696428E+03</pdfrwt>
<pdfrwt beam="2">  1       -2 0.64137054E-02 0.35696428E+03</pdfrwt>
<totfact> 0.60592725E+03</totfact>
</mgrwt>
</event>
<event>
 4    1  0.1399921E-004  0.3102799E+03  0.7818608E-02  0.1080212E+00
          2   -1    0    0  501    0  0.00000000000E+00  0.00000000000E+00  0.63686657918E+03  0.63686657918E+03  0.25500000000E-02 0.  1.
         -2   -1    0    0    0  501 -0.00000000000E+00 -0.00000000000E+00 -0.37791921380E+02  0.37791921466E+02  0.25500000000E-02 0. -1.
    5000001    1    1    2    0    0  0.52618207808E+02  0.67251278253E+02  0.24418724405E+03  0.28818018734E+03  0.12700000000E+03 0.  0.
   -5000001    1    1    2    0    0 -0.52618207808E+02 -0.67251278253E+02  0.35488741375E+03  0.38647831330E+03  0.12700000000E+03 0.  0.
<mgrwt>
<rscale>  0 0.31027995E+03</rscale>
<asrwt>0</asrwt>
<pdfrwt beam="1">  1        2 0.90980943E-01 0.31027995E+03</pdfrwt>
<pdfrwt beam="2">  1       -2 0.53988457E-02 0.31027995E+03</pdfrwt>
<totfact> 0.89426606E+03</totfact>
</mgrwt>
</event>
<event>
 4    1  0.1399921E-004  0.3293289E+03  0.7818608E-02  0.1071434E+00
          2   -1    0    0  501    0  0.00000000000E+00  0.00000000000E+00  0.27069980801E+03  0.27069980802E+03  0.25500000000E-02 0.  1.
         -2   -1    0    0    0  501 -0.00000000000E+00 -0.00000000000E+00 -0.10016404248E+03  0.10016404252E+03  0.25500000000E-02 0. -1.
    5000001    1    1    2    0    0  0.76202252545E+02  0.30649270616E+02  0.15858880121E+03  0.21914736812E+03  0.12700000000E+03 0.  0.
   -5000001    1    1    2    0    0 -0.76202252545E+02 -0.30649270616E+02  0.11946964312E+02  0.15171648242E+03  0.12700000000E+03 0.  0.
<mgrwt>
<rscale>  0 0.32932894E+03</rscale>
<asrwt>0</asrwt>
<pdfrwt beam="1">  1        2 0.38671400E-01 0.32932894E+03</pdfrwt>
<pdfrwt beam="2">  1       -2 0.14309149E-01 0.32932894E+03</pdfrwt>
<totfact> 0.49155178E+03</totfact>
</mgrwt>
</event>
<event>
 4    1  0.1399921E-004  0.7689507E+03  0.7818608E-02  0.9606080E-01
          2   -1    0    0  501    0  0.00000000000E+00  0.00000000000E+00  0.27129168301E+03  0.27129168303E+03  0.25500000000E-02 0.  1.
         -2   -1    0    0    0  501 -0.00000000000E+00 -0.00000000000E+00 -0.54487961429E+03  0.54487961429E+03  0.25500000000E-02 0. -1.
    5000001    1    1    2    0    0  0.36261626167E+03  0.78895534633E+01 -0.14933069984E+03  0.41228807428E+03  0.12700000000E+03 0.  0.
   -5000001    1    1    2    0    0 -0.36261626167E+03 -0.78895534633E+01 -0.12425723143E+03  0.40388322303E+03  0.12700000000E+03 0.  0.
<mgrwt>
<rscale>  0 0.76895073E+03</rscale>
<asrwt>0</asrwt>
<pdfrwt beam="1">  1        2 0.38755955E-01 0.76895073E+03</pdfrwt>
<pdfrwt beam="2">  1       -2 0.77839944E-01 0.76895073E+03</pdfrwt>
<totfact> 0.19771436E+02</totfact>
</mgrwt>
</event>
<event>
 4    1  0.1399921E-004  0.7404947E+03  0.7818608E-02  0.9650382E-01
          2   -1    0    0  501    0  0.00000000000E+00  0.00000000000E+00  0.29726782943E+04  0.29726782943E+04  0.25500000000E-02 0.  1.
         -2   -1    0    0    0  501 -0.00000000000E+00 -0.00000000000E+00 -0.46114345651E+02  0.46114345721E+02  0.25500000000E-02 0. -1.
    5000001    1    1    2    0    0  0.21768303073E+03 -0.26491383991E+03  0.17006043912E+04  0.17394681773E+04  0.12700000000E+03 0.  0.
   -5000001    1    1    2    0    0 -0.21768303073E+03  0.26491383991E+03  0.12259595575E+04  0.12793244628E+04  0.12700000000E+03 0.  0.
<mgrwt>
<rscale>  0 0.74049474E+03</rscale>
<asrwt>0</asrwt>
<pdfrwt beam="1">  1        2 0.42466823E+00 0.74049474E+03</pdfrwt>
<pdfrwt beam="2">  1       -2 0.65877652E-02 0.74049474E+03</pdfrwt>
<totfact> 0.34304761E+02</totfact>
</mgrwt>
</event>
<event>
 4    1  0.1399921E-004  0.3598606E+03  0.7818608E-02  0.1058639E+00
         -2   -1    0    0    0  501 -0.00000000000E+00  0.00000000000E+00  0.28050495063E+03  0.28050495064E+03  0.25500000000E-02 0. -1.
          2   -1    0    0  501    0  0.00000000000E+00 -0.00000000000E+00 -0.11541653593E+03  0.11541653596E+03  0.25500000000E-02 0.  1.
    5000001    1    1    2    0    0  0.98605020558E+02  0.66617177906E+02  0.13278302485E+03  0.21890895404E+03  0.12700000000E+03 0.  0.
   -5000001    1    1    2    0    0 -0.98605020558E+02 -0.66617177906E+02  0.32305389849E+02  0.17701253256E+03  0.12700000000E+03 0.  0.
<mgrwt>
<rscale>  0 0.35986058E+03</rscale>
<asrwt>0</asrwt>
<pdfrwt beam="1">  1        2 0.16488077E-01 0.35986058E+03</pdfrwt>
<pdfrwt beam="2">  1       -2 0.40072136E-01 0.35986058E+03</pdfrwt>
<totfact> 0.20793864E+03</totfact>
</mgrwt>
</event>
<event>
 4    1  0.1399921E-004  0.4064130E+03  0.7818608E-02  0.1041581E+00
         -2   -1    0    0    0  501 -0.00000000000E+00  0.00000000000E+00  0.69674913426E+02  0.69674913473E+02  0.25500000000E-02 0. -1.
          2   -1    0    0  501    0  0.00000000000E+00 -0.00000000000E+00 -0.59265061907E+03  0.59265061907E+03  0.25500000000E-02 0.  1.
    5000001    1    1    2    0    0  0.43863454374E+02 -0.13497968017E+03 -0.37695847629E+03  0.42233897468E+03  0.12700000000E+03 0.  0.
   -5000001    1    1    2    0    0 -0.43863454374E+02  0.13497968017E+03 -0.14601722935E+03  0.23998655787E+03  0.12700000000E+03 0.  0.
<mgrwt>
<rscale>  0 0.40641299E+03</rscale>
<asrwt>0</asrwt>
<pdfrwt beam="1">  1        2 0.84664371E-01 0.40641299E+03</pdfrwt>
<pdfrwt beam="2">  1       -2 0.99535594E-02 0.40641299E+03</pdfrwt>
<totfact> 0.37566164E+03</totfact>
</mgrwt>
</event>
<event>
 4    1  0.1399921E-004  0.4705256E+03  0.7818608E-02  0.1021772E+00
          2   -1    0    0  501    0  0.00000000000E+00  0.00000000000E+00  0.22454616152E+04  0.22454616152E+04  0.25500000000E-02 0.  1.
         -2   -1    0    0    0  501 -0.00000000000E+00 -0.00000000000E+00 -0.24649087794E+02  0.24649087926E+02  0.25500000000E-02 0. -1.
    5000001    1    1    2    0    0  0.26869033842E+02 -0.19355138104E+03  0.95515378384E+03  0.98317436544E+03  0.12700000000E+03 0.  0.
   -5000001    1    1    2    0    0 -0.26869033842E+02  0.19355138104E+03  0.12656587436E+04  0.12869363377E+04  0.12700000000E+03 0.  0.
<mgrwt>
<rscale>  0 0.47052558E+03</rscale>
<asrwt>0</asrwt>
<pdfrwt beam="1">  1        2 0.32078006E+00 0.47052558E+03</pdfrwt>
<pdfrwt beam="2">  1       -2 0.35213002E-02 0.47052558E+03</pdfrwt>
<totfact> 0.22067537E+03</totfact>
</mgrwt>
</event>
<event>
 4    1  0.1399921E-004  0.3006319E+03  0.7818608E-02  0.1084925E+00
         -2   -1    0    0    0  501 -0.00000000000E+00  0.00000000000E+00  0.12500957219E+03  0.12500957222E+03  0.25500000000E-02 0. -1.
          2   -1    0    0  501    0  0.00000000000E+00 -0.00000000000E+00 -0.18074528842E+03  0.18074528844E+03  0.25500000000E-02 0.  1.
    5000001    1    1    2    0    0  0.71064367453E+02 -0.16626947563E+01  0.10362345390E+02  0.14590848871E+03  0.12700000000E+03 0.  0.
   -5000001    1    1    2    0    0 -0.71064367453E+02  0.16626947563E+01 -0.66098061624E+02  0.15984637195E+03  0.12700000000E+03 0.  0.
<mgrwt>
<rscale>  0 0.30063194E+03</rscale>
<asrwt>0</asrwt>
<pdfrwt beam="1">  1        2 0.25820756E-01 0.30063194E+03</pdfrwt>
<pdfrwt beam="2">  1       -2 0.17858510E-01 0.30063194E+03</pdfrwt>
<totfact> 0.52785905E+03</totfact>
</mgrwt>
</event>
<event>
 4    1  0.1399921E-004  0.3722934E+03  0.7818608E-02  0.1053819E+00
          2   -1    0    0  501    0  0.00000000000E+00  0.00000000000E+00  0.20945819426E+04  0.20945819426E+04  0.25500000000E-02 0.  1.
         -2   -1    0    0    0  501 -0.00000000000E+00 -0.00000000000E+00 -0.16542961391E+02  0.16542961587E+02  0.25500000000E-02 0. -1.
    5000001    1    1    2    0    0 -0.77968471397E+02 -0.81092729831E+02  0.14733469028E+04  0.14830830083E+04  0.12700000000E+03 0.  0.
   -5000001    1    1    2    0    0  0.77968471397E+02  0.81092729831E+02  0.60469207834E+03  0.62804189587E+03  0.12700000000E+03 0.  0.
<mgrwt>
<rscale>  0 0.37229337E+03</rscale>
<asrwt>0</asrwt>
<pdfrwt beam="1">  1        2 0.29922599E+00 0.37229337E+03</pdfrwt>
<pdfrwt beam="2">  1       -2 0.23632803E-02 0.37229337E+03</pdfrwt>
<totfact> 0.47949535E+03</totfact>
</mgrwt>
</event>
<event>
 4    1  0.1399921E-004  0.3440621E+03  0.7818608E-02  0.1065079E+00
         -2   -1    0    0    0  501 -0.00000000000E+00  0.00000000000E+00  0.63805857311E+02  0.63805857362E+02  0.25500000000E-02 0. -1.
          2   -1    0    0  501    0  0.00000000000E+00 -0.00000000000E+00 -0.46382383970E+03  0.46382383970E+03  0.25500000000E-02 0.  1.
    5000001    1    1    2    0    0 -0.78167618909E+02 -0.55210807794E+02 -0.30065426031E+03  0.34011820620E+03  0.12700000000E+03 0.  0.
   -5000001    1    1    2    0    0  0.78167618909E+02  0.55210807794E+02 -0.99363722071E+02  0.18751149087E+03  0.12700000000E+03 0.  0.
<mgrwt>
<rscale>  0 0.34406207E+03</rscale>
<asrwt>0</asrwt>
<pdfrwt beam="1">  1        2 0.66260546E-01 0.34406207E+03</pdfrwt>
<pdfrwt beam="2">  1       -2 0.91151228E-02 0.34406207E+03</pdfrwt>
<totfact> 0.56799168E+03</totfact>
</mgrwt>
</event>
<event>
 4    1  0.1399921E-004  0.4041296E+03  0.7818608E-02  0.1042359E+00
         -2   -1    0    0    0  501 -0.00000000000E+00  0.00000000000E+00  0.12708552468E+03  0.12708552471E+03  0.25500000000E-02 0. -1.
          2   -1    0    0  501    0  0.00000000000E+00 -0.00000000000E+00 -0.32128117841E+03  0.32128117842E+03  0.25500000000E-02 0.  1.
    5000001    1    1    2    0    0 -0.39730785213E+02 -0.96566160322E+00  0.71605145728E+02  0.15111507102E+03  0.12700000000E+03 0.  0.
   -5000001    1    1    2    0    0  0.39730785213E+02  0.96566160322E+00 -0.26580079946E+03  0.29725163210E+03  0.12700000000E+03 0.  0.
<mgrwt>
<rscale>  0 0.40412962E+03</rscale>
<asrwt>0</asrwt>
<pdfrwt beam="1">  1        2 0.45897311E-01 0.40412962E+03</pdfrwt>
<pdfrwt beam="2">  1       -2 0.18155075E-01 0.40412962E+03</pdfrwt>
<totfact> 0.27496120E+03</totfact>
</mgrwt>
</event>
<event>
 4    1  0.1399921E-004  0.4186968E+03  0.7818608E-02  0.1037491E+00
         -2   -1    0    0    0  501 -0.00000000000E+00  0.00000000000E+00  0.34296431786E+02  0.34296431881E+02  0.25500000000E-02 0. -1.
          2   -1    0    0  501    0  0.00000000000E+00 -0.00000000000E+00 -0.12778806451E+04  0.12778806451E+04  0.25500000000E-02 0.  1.
    5000001    1    1    2    0    0 -0.12120960205E+03  0.93347601386E+02 -0.82711294039E+03  0.85067641231E+03  0.12700000000E+03 0.  0.
   -5000001    1    1    2    0    0  0.12120960205E+03 -0.93347601386E+02 -0.41647127290E+03  0.46150066464E+03  0.12700000000E+03 0.  0.
<mgrwt>
<rscale>  0 0.41869677E+03</rscale>
<asrwt>0</asrwt>
<pdfrwt beam="1">  1        2 0.18255435E+00 0.41869677E+03</pdfrwt>
<pdfrwt beam="2">  1       -2 0.48994911E-02 0.41869677E+03</pdfrwt>
<totfact> 0.41260414E+03</totfact>
</mgrwt>
</event>
<event>
 4    1  0.1399921E-004  0.8546056E+03  0.7818608E-02  0.9484176E-01
          2   -1    0    0  501    0  0.00000000000E+00  0.00000000000E+00  0.22270468992E+04  0.22270468992E+04  0.25500000000E-02 0.  1.
         -2   -1    0    0    0  501 -0.00000000000E+00 -0.00000000000E+00 -0.81986451411E+02  0.81986451451E+02  0.25500000000E-02 0. -1.
    5000001    1    1    2    0    0  0.38235481046E+03  0.92363205028E+01  0.68872994737E+03  0.79797146007E+03  0.12700000000E+03 0.  0.
   -5000001    1    1    2    0    0 -0.38235481046E+03 -0.92363205028E+01  0.14563305004E+04  0.15110618906E+04  0.12700000000E+03 0.  0.
<mgrwt>
<rscale>  0 0.85460558E+03</rscale>
<asrwt>0</asrwt>
<pdfrwt beam="1">  1        2 0.31814952E+00 0.85460558E+03</pdfrwt>
<pdfrwt beam="2">  1       -2 0.11712351E-01 0.85460558E+03</pdfrwt>
<totfact> 0.33000860E+02</totfact>
</mgrwt>
</event>
<event>
 4    1  0.1399921E-004  0.3150751E+03  0.7818608E-02  0.1077938E+00
          2   -1    0    0  501    0  0.00000000000E+00  0.00000000000E+00  0.23841123008E+04  0.23841123008E+04  0.25500000000E-02 0.  1.
         -2   -1    0    0    0  501 -0.00000000000E+00 -0.00000000000E+00 -0.10409780137E+02  0.10409780449E+02  0.25500000000E-02 0. -1.
    5000001    1    1    2    0    0 -0.30698753998E+02  0.85577085179E+02  0.13432002626E+04  0.13522506411E+04  0.12700000000E+03 0.  0.
   -5000001    1    1    2    0    0  0.30698753998E+02 -0.85577085179E+02  0.10305022581E+04  0.10422714401E+04  0.12700000000E+03 0.  0.
<mgrwt>
<rscale>  0 0.31507514E+03</rscale>
<asrwt>0</asrwt>
<pdfrwt beam="1">  1        2 0.34058727E+00 0.31507514E+03</pdfrwt>
<pdfrwt beam="2">  1       -2 0.14871123E-02 0.31507514E+03</pdfrwt>
<totfact> 0.68437605E+03</totfact>
</mgrwt>
</event>
<event>
 4    1  0.1399921E-004  0.3086247E+03  0.7818608E-02  0.1081007E+00
         -2   -1    0    0    0  501 -0.00000000000E+00  0.00000000000E+00  0.45125556666E+02  0.45125556738E+02  0.25500000000E-02 0. -1.
          2   -1    0    0  501    0  0.00000000000E+00 -0.00000000000E+00 -0.52769001998E+03  0.52769001999E+03  0.25500000000E-02 0.  1.
    5000001    1    1    2    0    0  0.70989462941E+02  0.42042501224E+02 -0.18634165713E+03  0.24012348685E+03  0.12700000000E+03 0.  0.
   -5000001    1    1    2    0    0 -0.70989462941E+02 -0.42042501224E+02 -0.29622280619E+03  0.33269208987E+03  0.12700000000E+03 0.  0.
<mgrwt>
<rscale>  0 0.30862473E+03</rscale>
<asrwt>0</asrwt>
<pdfrwt beam="1">  1        2 0.75384285E-01 0.30862473E+03</pdfrwt>
<pdfrwt beam="2">  1       -2 0.64465084E-02 0.30862473E+03</pdfrwt>
<totfact> 0.84343804E+03</totfact>
</mgrwt>
</event>
<event>
 4    1  0.1399921E-004  0.4191713E+03  0.7818608E-02  0.1037336E+00
          2   -1    0    0  501    0  0.00000000000E+00  0.00000000000E+00  0.25102620685E+03  0.25102620686E+03  0.25500000000E-02 0.  1.
         -2   -1    0    0    0  501 -0.00000000000E+00 -0.00000000000E+00 -0.17498627295E+03  0.17498627297E+03  0.25500000000E-02 0. -1.
    5000001    1    1    2    0    0  0.64568708421E+02 -0.14155744287E+03  0.98910327503E+02  0.22387469849E+03  0.12700000000E+03 0.  0.
   -5000001    1    1    2    0    0 -0.64568708421E+02  0.14155744287E+03 -0.22870393605E+02  0.20213778133E+03  0.12700000000E+03 0.  0.
<mgrwt>
<rscale>  0 0.41917128E+03</rscale>
<asrwt>0</asrwt>
<pdfrwt beam="1">  1        2 0.35860887E-01 0.41917128E+03</pdfrwt>
<pdfrwt beam="2">  1       -2 0.24998039E-01 0.41917128E+03</pdfrwt>
<totfact> 0.20638541E+03</totfact>
</mgrwt>
</event>
<event>
 4    1  0.1399921E-004  0.3215316E+03  0.7818608E-02  0.1074947E+00
         -2   -1    0    0    0  501 -0.00000000000E+00  0.00000000000E+00  0.15330641499E+03  0.15330641501E+03  0.25500000000E-02 0. -1.
          2   -1    0    0  501    0  0.00000000000E+00 -0.00000000000E+00 -0.16858814470E+03  0.16858814472E+03  0.25500000000E-02 0.  1.
    5000001    1    1    2    0    0  0.81219575713E+02  0.55787565055E+02 -0.48498537017E+01  0.16081477847E+03  0.12700000000E+03 0.  0.
   -5000001    1    1    2    0    0 -0.81219575713E+02 -0.55787565055E+02 -0.10431876007E+02  0.16107978126E+03  0.12700000000E+03 0.  0.
<mgrwt>
<rscale>  0 0.32153161E+03</rscale>
<asrwt>0</asrwt>
<pdfrwt beam="1">  1        2 0.24084020E-01 0.32153161E+03</pdfrwt>
<pdfrwt beam="2">  1       -2 0.21900917E-01 0.32153161E+03</pdfrwt>
<totfact> 0.40320837E+03</totfact>
</mgrwt>
</event>
<event>
 4    1  0.1399921E-004  0.3784506E+03  0.7818608E-02  0.1051508E+00
         -2   -1    0    0    0  501 -0.00000000000E+00  0.00000000000E+00  0.69589183566E+03  0.69589183566E+03  0.25500000000E-02 0. -1.
          2   -1    0    0  501    0  0.00000000000E+00 -0.00000000000E+00 -0.51453710037E+02  0.51453710100E+02  0.25500000000E-02 0.  1.
    5000001    1    1    2    0    0 -0.13834271057E+03 -0.87983395601E+01  0.36462337166E+03  0.41023812538E+03  0.12700000000E+03 0.  0.
   -5000001    1    1    2    0    0  0.13834271057E+03  0.87983395601E+01  0.27981475396E+03  0.33710742039E+03  0.12700000000E+03 0.  0.
<mgrwt>
<rscale>  0 0.37845061E+03</rscale>
<asrwt>0</asrwt>
<pdfrwt beam="1">  1        2 0.73505303E-02 0.37845061E+03</pdfrwt>
<pdfrwt beam="2">  1       -2 0.99413115E-01 0.37845061E+03</pdfrwt>
<totfact> 0.83034629E+02</totfact>
</mgrwt>
</event>
<event>
 4    1  0.1399921E-004  0.4595806E+03  0.7818608E-02  0.1024903E+00
         -2   -1    0    0    0  501 -0.00000000000E+00  0.00000000000E+00  0.23977621292E+03  0.23977621293E+03  0.25500000000E-02 0. -1.
          2   -1    0    0  501    0  0.00000000000E+00 -0.00000000000E+00 -0.22022022265E+03  0.22022022266E+03  0.25500000000E-02 0.  1.
    5000001    1    1    2    0    0  0.41326665137E+02 -0.16311627404E+03 -0.81736460308E+02  0.22610763156E+03  0.12700000000E+03 0.  0.
   -5000001    1    1    2    0    0 -0.41326665137E+02  0.16311627404E+03  0.10129245058E+03  0.23388880403E+03  0.12700000000E+03 0.  0.
<mgrwt>
<rscale>  0 0.45958055E+03</rscale>
<asrwt>0</asrwt>
<pdfrwt beam="1">  1        2 0.31460032E-01 0.45958055E+03</pdfrwt>
<pdfrwt beam="2">  1       -2 0.34253745E-01 0.45958055E+03</pdfrwt>
<totfact> 0.13419987E+03</totfact>
</mgrwt>
</event>
<event>
 4    1  0.1399921E-004  0.1260375E+04  0.7818608E-02  0.9061592E-01
          2   -1    0    0  501    0  0.00000000000E+00  0.00000000000E+00  0.25188642393E+04  0.25188642393E+04  0.25500000000E-02 0.  1.
         -2   -1    0    0    0  501 -0.00000000000E+00 -0.00000000000E+00 -0.15766486839E+03  0.15766486841E+03  0.25500000000E-02 0. -1.
    5000001    1    1    2    0    0  0.25794432745E+03  0.55805798568E+03  0.12977523505E+04  0.14416151202E+04  0.12700000000E+03 0.  0.
   -5000001    1    1    2    0    0 -0.25794432745E+03 -0.55805798568E+03  0.10634470204E+04  0.12349139875E+04  0.12700000000E+03 0.  0.
<mgrwt>
<rscale>  0 0.12603752E+04</rscale>
<asrwt>0</asrwt>
<pdfrwt beam="1">  1        2 0.35983770E+00 0.12603752E+04</pdfrwt>
<pdfrwt beam="2">  1       -2 0.22523556E-01 0.12603752E+04</pdfrwt>
<totfact> 0.73612854E+01</totfact>
</mgrwt>
</event>
<event>
 4    1  0.1399921E-004  0.4656552E+03  0.7818608E-02  0.1023154E+00
         -2   -1    0    0    0  501 -0.00000000000E+00  0.00000000000E+00  0.49193468998E+03  0.49193468999E+03  0.25500000000E-02 0. -1.
          2   -1    0    0  501    0  0.00000000000E+00 -0.00000000000E+00 -0.11019489536E+03  0.11019489539E+03  0.25500000000E-02 0.  1.
    5000001    1    1    2    0    0  0.46287436448E+02  0.18929957339E+03  0.17775698899E+03  0.29275143449E+03  0.12700000000E+03 0.  0.
   -5000001    1    1    2    0    0 -0.46287436448E+02 -0.18929957339E+03  0.20398280562E+03  0.30937815089E+03  0.12700000000E+03 0.  0.
<mgrwt>
<rscale>  0 0.46565520E+03</rscale>
<asrwt>0</asrwt>
<pdfrwt beam="1">  1        2 0.15742128E-01 0.46565520E+03</pdfrwt>
<pdfrwt beam="2">  1       -2 0.70276385E-01 0.46565520E+03</pdfrwt>
<totfact> 0.70085122E+02</totfact>
</mgrwt>
</event>
<event>
 4    1  0.1399921E-004  0.3885212E+03  0.7818608E-02  0.1047828E+00
          2   -1    0    0  501    0  0.00000000000E+00  0.00000000000E+00  0.15177206601E+04  0.15177206601E+04  0.25500000000E-02 0.  1.
         -2   -1    0    0    0  501 -0.00000000000E+00 -0.00000000000E+00 -0.24864372136E+02  0.24864372267E+02  0.25500000000E-02 0. -1.
    5000001    1    1    2    0    0  0.11999785074E+03  0.80049663694E+02  0.85877988729E+03  0.88002234497E+03  0.12700000000E+03 0.  0.
   -5000001    1    1    2    0    0 -0.11999785074E+03 -0.80049663694E+02  0.63407640070E+03  0.66256268742E+03  0.12700000000E+03 0.  0.
<mgrwt>
<rscale>  0 0.38852115E+03</rscale>
<asrwt>0</asrwt>
<pdfrwt beam="1">  1        2 0.21681724E+00 0.38852115E+03</pdfrwt>
<pdfrwt beam="2">  1       -2 0.35520532E-02 0.38852115E+03</pdfrwt>
<totfact> 0.50414254E+03</totfact>
</mgrwt>
</event>
<event>
 4    1  0.1399921E-004  0.4662486E+03  0.7818608E-02  0.1022984E+00
         -2   -1    0    0    0  501 -0.00000000000E+00  0.00000000000E+00  0.60062619590E+02  0.60062619645E+02  0.25500000000E-02 0. -1.
          2   -1    0    0  501    0  0.00000000000E+00 -0.00000000000E+00 -0.90483812707E+03  0.90483812707E+03  0.25500000000E-02 0.  1.
    5000001    1    1    2    0    0 -0.40449273680E+02 -0.18426924493E+03 -0.52845130375E+03  0.57530955042E+03  0.12700000000E+03 0.  0.
   -5000001    1    1    2    0    0  0.40449273680E+02  0.18426924493E+03 -0.31632420373E+03  0.38959119630E+03  0.12700000000E+03 0.  0.
<mgrwt>
<rscale>  0 0.46624864E+03</rscale>
<asrwt>0</asrwt>
<pdfrwt beam="1">  1        2 0.12926258E+00 0.46624864E+03</pdfrwt>
<pdfrwt beam="2">  1       -2 0.85803747E-02 0.46624864E+03</pdfrwt>
<totfact> 0.28328203E+03</totfact>
</mgrwt>
</event>
<event>
 4    1  0.1399921E-004  0.3830554E+03  0.7818608E-02  0.1049810E+00
         -2   -1    0    0    0  501 -0.00000000000E+00  0.00000000000E+00  0.88816452841E+02  0.88816452877E+02  0.25500000000E-02 0. -1.
          2   -1    0    0  501    0  0.00000000000E+00 -0.00000000000E+00 -0.41301863961E+03  0.41301863962E+03  0.25500000000E-02 0.  1.
    5000001    1    1    2    0    0 -0.11142168762E+03  0.38801404508E+02 -0.26880274885E+03  0.31985037010E+03  0.12700000000E+03 0.  0.
   -5000001    1    1    2    0    0  0.11142168762E+03 -0.38801404508E+02 -0.55399437918E+02  0.18198472239E+03  0.12700000000E+03 0.  0.
<mgrwt>
<rscale>  0 0.38305535E+03</rscale>
<asrwt>0</asrwt>
<pdfrwt beam="1">  1        2 0.59002662E-01 0.38305535E+03</pdfrwt>
<pdfrwt beam="2">  1       -2 0.12688065E-01 0.38305535E+03</pdfrwt>
<totfact> 0.37972355E+03</totfact>
</mgrwt>
</event>
<event>
 4    1  0.1399921E-004  0.7684526E+03  0.7818608E-02  0.9606838E-01
          2   -1    0    0  501    0  0.00000000000E+00  0.00000000000E+00  0.25715265087E+04  0.25715265087E+04  0.25500000000E-02 0.  1.
         -2   -1    0    0    0  501 -0.00000000000E+00 -0.00000000000E+00 -0.57409421194E+02  0.57409421250E+02  0.25500000000E-02 0. -1.
    5000001    1    1    2    0    0 -0.24652584016E+03 -0.77017804929E+02  0.21278831761E+04  0.21472593097E+04  0.12700000000E+03 0.  0.
   -5000001    1    1    2    0    0  0.24652584016E+03  0.77017804929E+02  0.38623391142E+03  0.48167662023E+03  0.12700000000E+03 0.  0.
<mgrwt>
<rscale>  0 0.76845260E+03</rscale>
<asrwt>0</asrwt>
<pdfrwt beam="1">  1        2 0.36736091E+00 0.76845260E+03</pdfrwt>
<pdfrwt beam="2">  1       -2 0.82013463E-02 0.76845260E+03</pdfrwt>
<totfact> 0.39457716E+02</totfact>
</mgrwt>
</event>
<event>
 4    1  0.1399921E-004  0.4278483E+03  0.7818608E-02  0.1034542E+00
          2   -1    0    0  501    0  0.00000000000E+00  0.00000000000E+00  0.13806917248E+04  0.13806917248E+04  0.25500000000E-02 0.  1.
         -2   -1    0    0    0  501 -0.00000000000E+00 -0.00000000000E+00 -0.33145374346E+02  0.33145374444E+02  0.25500000000E-02 0. -1.
    5000001    1    1    2    0    0 -0.53702542791E+01  0.14408635163E+03  0.98455402016E+03  0.10031277760E+04  0.12700000000E+03 0.  0.
   -5000001    1    1    2    0    0  0.53702542791E+01 -0.14408635163E+03  0.36299233032E+03  0.41070932328E+03  0.12700000000E+03 0.  0.
<mgrwt>
<rscale>  0 0.42784831E+03</rscale>
<asrwt>0</asrwt>
<pdfrwt beam="1">  1        2 0.19724163E+00 0.42784831E+03</pdfrwt>
<pdfrwt beam="2">  1       -2 0.47350546E-02 0.42784831E+03</pdfrwt>
<totfact> 0.38332575E+03</totfact>
</mgrwt>
</event>
<event>
 4    1  0.1399921E-004  0.3019363E+03  0.7818608E-02  0.1084277E+00
         -2   -1    0    0    0  501 -0.00000000000E+00  0.00000000000E+00  0.18700984668E+03  0.18700984669E+03  0.25500000000E-02 0. -1.
          2   -1    0    0  501    0  0.00000000000E+00 -0.00000000000E+00 -0.12187265212E+03  0.12187265215E+03  0.25500000000E-02 0.  1.
    5000001    1    1    2    0    0  0.31320878853E+02 -0.74672221397E+02  0.22063577067E+02  0.15222594895E+03  0.12700000000E+03 0.  0.
   -5000001    1    1    2    0    0 -0.31320878853E+02  0.74672221397E+02  0.43073617490E+02  0.15665654989E+03  0.12700000000E+03 0.  0.
<mgrwt>
<rscale>  0 0.30193632E+03</rscale>
<asrwt>0</asrwt>
<pdfrwt beam="1">  1        2 0.17410379E-01 0.30193632E+03</pdfrwt>
<pdfrwt beam="2">  1       -2 0.26715692E-01 0.30193632E+03</pdfrwt>
<totfact> 0.41146064E+03</totfact>
</mgrwt>
</event>
<event>
 4    1  0.1399921E-004  0.3941303E+03  0.7818608E-02  0.1045831E+00
          2   -1    0    0  501    0  0.00000000000E+00  0.00000000000E+00  0.49997175523E+03  0.49997175523E+03  0.25500000000E-02 0.  1.
         -2   -1    0    0    0  501 -0.00000000000E+00 -0.00000000000E+00 -0.77673744520E+02  0.77673744562E+02  0.25500000000E-02 0. -1.
    5000001    1    1    2    0    0 -0.14343555103E+03 -0.36641585351E+02  0.16997275378E+03  0.25872011925E+03  0.12700000000E+03 0.  0.
   -5000001    1    1    2    0    0  0.14343555103E+03  0.36641585351E+02  0.25232525692E+03  0.31892538055E+03  0.12700000000E+03 0.  0.
<mgrwt>
<rscale>  0 0.39413033E+03</rscale>
<asrwt>0</asrwt>
<pdfrwt beam="1">  1        2 0.71424535E-01 0.39413033E+03</pdfrwt>
<pdfrwt beam="2">  1       -2 0.11096249E-01 0.39413033E+03</pdfrwt>
<totfact> 0.38242196E+03</totfact>
</mgrwt>
</event>
<event>
 4    1  0.1399921E-004  0.3288165E+03  0.7818608E-02  0.1071662E+00
         -2   -1    0    0    0  501 -0.00000000000E+00  0.00000000000E+00  0.12599384579E+02  0.12599384837E+02  0.25500000000E-02 0. -1.
          2   -1    0    0  501    0  0.00000000000E+00 -0.00000000000E+00 -0.21453485129E+04  0.21453485129E+04  0.25500000000E-02 0.  1.
    5000001    1    1    2    0    0 -0.43257151505E+02  0.70699666006E+02 -0.64967997762E+03  0.66714518454E+03  0.12700000000E+03 0.  0.
   -5000001    1    1    2    0    0  0.43257151505E+02 -0.70699666006E+02 -0.14830691507E+04  0.14908027132E+04  0.12700000000E+03 0.  0.
<mgrwt>
<rscale>  0 0.32881649E+03</rscale>
<asrwt>0</asrwt>
<pdfrwt beam="1">  1        2 0.30647813E+00 0.32881649E+03</pdfrwt>
<pdfrwt beam="2">  1       -2 0.17999135E-02 0.32881649E+03</pdfrwt>
<totfact> 0.67801799E+03</totfact>
</mgrwt>
</event>
<event>
 4    1  0.1399921E-004  0.3412359E+03  0.7818608E-02  0.1066271E+00
         -2   -1    0    0    0  501 -0.00000000000E+00  0.00000000000E+00  0.16532088897E+02  0.16532089094E+02  0.25500000000E-02 0. -1.
          2   -1    0    0  501    0  0.00000000000E+00 -0.00000000000E+00 -0.17608470352E+04  0.17608470352E+04  0.25500000000E-02 0.  1.
    5000001    1    1    2    0    0 -0.20671822505E+02  0.10219378246E+03 -0.11114488080E+04  0.11235294150E+04  0.12700000000E+03 0.  0.
   -5000001    1    1    2    0    0  0.20671822505E+02 -0.10219378246E+03 -0.63286613824E+03  0.65384970930E+03  0.12700000000E+03 0.  0.
<mgrwt>
<rscale>  0 0.34123587E+03</rscale>
<asrwt>0</asrwt>
<pdfrwt beam="1">  1        2 0.25154946E+00 0.34123587E+03</pdfrwt>
<pdfrwt beam="2">  1       -2 0.23617281E-02 0.34123587E+03</pdfrwt>
<totfact> 0.70112974E+03</totfact>
</mgrwt>
</event>
<event>
 4    1  0.1399921E-004  0.4298587E+03  0.7818608E-02  0.1033905E+00
          2   -1    0    0  501    0  0.00000000000E+00  0.00000000000E+00  0.14794745581E+03  0.14794745584E+03  0.25500000000E-02 0.  1.
         -2   -1    0    0    0  501 -0.00000000000E+00 -0.00000000000E+00 -0.31223669594E+03  0.31223669595E+03  0.25500000000E-02 0. -1.
    5000001    1    1    2    0    0  0.88911445623E+02  0.14771600943E+03 -0.62394246649E+02  0.22304104246E+03  0.12700000000E+03 0.  0.
   -5000001    1    1    2    0    0 -0.88911445623E+02 -0.14771600943E+03 -0.10189499347E+03  0.23714310933E+03  0.12700000000E+03 0.  0.
<mgrwt>
<rscale>  0 0.42985870E+03</rscale>
<asrwt>0</asrwt>
<pdfrwt beam="1">  1        2 0.21135351E-01 0.42985870E+03</pdfrwt>
<pdfrwt beam="2">  1       -2 0.44605242E-01 0.42985870E+03</pdfrwt>
<totfact> 0.12662356E+03</totfact>
</mgrwt>
</event>
<event>
 4    1  0.1399921E-004  0.3927692E+03  0.7818608E-02  0.1046313E+00
          2   -1    0    0  501    0  0.00000000000E+00  0.00000000000E+00  0.10340898480E+03  0.10340898483E+03  0.25500000000E-02 0.  1.
         -2   -1    0    0    0  501 -0.00000000000E+00 -0.00000000000E+00 -0.37295505571E+03  0.37295505572E+03  0.25500000000E-02 0. -1.
    5000001    1    1    2    0    0  0.11692922538E+03  0.82581163832E+02 -0.81273260964E+02  0.20790968067E+03  0.12700000000E+03 0.  0.
   -5000001    1    1    2    0    0 -0.11692922538E+03 -0.82581163832E+02 -0.18827280995E+03  0.26845435988E+03  0.12700000000E+03 0.  0.
<mgrwt>
<rscale>  0 0.39276916E+03</rscale>
<asrwt>0</asrwt>
<pdfrwt beam="1">  1        2 0.14772712E-01 0.39276916E+03</pdfrwt>
<pdfrwt beam="2">  1       -2 0.53279293E-01 0.39276916E+03</pdfrwt>
<totfact> 0.13510638E+03</totfact>
</mgrwt>
</event>
<event>
 4    1  0.1399921E-004  0.3353409E+03  0.7818608E-02  0.1068798E+00
          2   -1    0    0  501    0  0.00000000000E+00  0.00000000000E+00  0.23239082270E+04  0.23239082270E+04  0.25500000000E-02 0.  1.
         -2   -1    0    0    0  501 -0.00000000000E+00 -0.00000000000E+00 -0.12097454476E+02  0.12097454745E+02  0.25500000000E-02 0. -1.
    5000001    1    1    2    0    0 -0.15307630904E+01 -0.87114407394E+02  0.69419089618E+03  0.71107050533E+03  0.12700000000E+03 0.  0.
   -5000001    1    1    2    0    0  0.15307630904E+01  0.87114407394E+02  0.16176198764E+04  0.16249351765E+04  0.12700000000E+03 0.  0.
<mgrwt>
<rscale>  0 0.33534087E+03</rscale>
<asrwt>0</asrwt>
<pdfrwt beam="1">  1        2 0.33198656E+00 0.33534087E+03</pdfrwt>
<pdfrwt beam="2">  1       -2 0.17282095E-02 0.33534087E+03</pdfrwt>
<totfact> 0.58762388E+03</totfact>
</mgrwt>
</event>
<event>
 4    1  0.1399921E-004  0.4752489E+03  0.7818608E-02  0.1020449E+00
          2   -1    0    0  501    0  0.00000000000E+00  0.00000000000E+00  0.41794143340E+03  0.41794143341E+03  0.25500000000E-02 0.  1.
         -2   -1    0    0    0  501 -0.00000000000E+00 -0.00000000000E+00 -0.13510354859E+03  0.13510354862E+03  0.25500000000E-02 0. -1.
    5000001    1    1    2    0    0  0.56609111454E+02  0.18600205770E+03  0.82828128366E+02  0.24655801714E+03  0.12700000000E+03 0.  0.
   -5000001    1    1    2    0    0 -0.56609111454E+02 -0.18600205770E+03  0.20000975644E+03  0.30648696488E+03  0.12700000000E+03 0.  0.
<mgrwt>
<rscale>  0 0.47524886E+03</rscale>
<asrwt>0</asrwt>
<pdfrwt beam="1">  1        2 0.59705919E-01 0.47524886E+03</pdfrwt>
<pdfrwt beam="2">  1       -2 0.19300507E-01 0.47524886E+03</pdfrwt>
<totfact> 0.18587183E+03</totfact>
</mgrwt>
</event>
<event>
 4    1  0.1399921E-004  0.3779732E+03  0.7818608E-02  0.1051685E+00
          2   -1    0    0  501    0  0.00000000000E+00  0.00000000000E+00  0.72390663116E+02  0.72390663161E+02  0.25500000000E-02 0.  1.
         -2   -1    0    0    0  501 -0.00000000000E+00 -0.00000000000E+00 -0.49337751895E+03  0.49337751896E+03  0.25500000000E-02 0. -1.
    5000001    1    1    2    0    0 -0.12335354555E+03  0.34033404201E+02 -0.12565298638E+03  0.21975450573E+03  0.12700000000E+03 0.  0.
   -5000001    1    1    2    0    0  0.12335354555E+03 -0.34033404201E+02 -0.29533386946E+03  0.34601367639E+03  0.12700000000E+03 0.  0.
<mgrwt>
<rscale>  0 0.37797315E+03</rscale>
<asrwt>0</asrwt>
<pdfrwt beam="1">  1        2 0.10341524E-01 0.37797315E+03</pdfrwt>
<pdfrwt beam="2">  1       -2 0.70482501E-01 0.37797315E+03</pdfrwt>
<totfact> 0.11630264E+03</totfact>
</mgrwt>
</event>
<event>
 4    1  0.1399921E-004  0.4854238E+03  0.7818608E-02  0.1017655E+00
          2   -1    0    0  501    0  0.00000000000E+00  0.00000000000E+00  0.11912322176E+03  0.11912322178E+03  0.25500000000E-02 0.  1.
         -2   -1    0    0    0  501 -0.00000000000E+00 -0.00000000000E+00 -0.49452201576E+03  0.49452201577E+03  0.25500000000E-02 0. -1.
    5000001    1    1    2    0    0  0.93415110122E+02  0.14355102724E+03 -0.41109034336E+02  0.21714564910E+03  0.12700000000E+03 0.  0.
   -5000001    1    1    2    0    0 -0.93415110122E+02 -0.14355102724E+03 -0.33428975967E+03  0.39649958845E+03  0.12700000000E+03 0.  0.
<mgrwt>
<rscale>  0 0.48542376E+03</rscale>
<asrwt>0</asrwt>
<pdfrwt beam="1">  1        2 0.17017603E-01 0.48542376E+03</pdfrwt>
<pdfrwt beam="2">  1       -2 0.70646001E-01 0.48542376E+03</pdfrwt>
<totfact> 0.63146952E+02</totfact>
</mgrwt>
</event>
<event>
 4    1  0.1399921E-004  0.5489577E+03  0.7818608E-02  0.1001735E+00
          2   -1    0    0  501    0  0.00000000000E+00  0.00000000000E+00  0.75405376364E+03  0.75405376365E+03  0.25500000000E-02 0.  1.
         -2   -1    0    0    0  501 -0.00000000000E+00 -0.00000000000E+00 -0.99911498080E+02  0.99911498112E+02  0.25500000000E-02 0. -1.
    5000001    1    1    2    0    0 -0.21367714620E+03 -0.71846147701E+02  0.46955916888E+03  0.53612927996E+03  0.12700000000E+03 0.  0.
   -5000001    1    1    2    0    0  0.21367714620E+03  0.71846147701E+02  0.18458309668E+03  0.31783598180E+03  0.12700000000E+03 0.  0.
<mgrwt>
<rscale>  0 0.54895771E+03</rscale>
<asrwt>0</asrwt>
<pdfrwt beam="1">  1        2 0.10772197E+00 0.54895771E+03</pdfrwt>
<pdfrwt beam="2">  1       -2 0.14273071E-01 0.54895771E+03</pdfrwt>
<totfact> 0.15628950E+03</totfact>
</mgrwt>
</event>
<event>
 4    1  0.1399921E-004  0.5123041E+03  0.7818608E-02  0.1010616E+00
          2   -1    0    0  501    0  0.00000000000E+00  0.00000000000E+00  0.73612629842E+03  0.73612629843E+03  0.25500000000E-02 0.  1.
         -2   -1    0    0    0  501 -0.00000000000E+00 -0.00000000000E+00 -0.89133996249E+02  0.89133996286E+02  0.25500000000E-02 0. -1.
    5000001    1    1    2    0    0  0.16767768162E+03  0.26206985804E+02  0.91830216796E+02  0.23100735862E+03  0.12700000000E+03 0.  0.
   -5000001    1    1    2    0    0 -0.16767768162E+03 -0.26206985804E+02  0.55516208538E+03  0.59425293610E+03  0.12700000000E+03 0.  0.
<mgrwt>
<rscale>  0 0.51230412E+03</rscale>
<asrwt>0</asrwt>
<pdfrwt beam="1">  1        2 0.10516090E+00 0.51230412E+03</pdfrwt>
<pdfrwt beam="2">  1       -2 0.12733428E-01 0.51230412E+03</pdfrwt>
<totfact> 0.19465753E+03</totfact>
</mgrwt>
</event>
<event>
 4    1  0.1399921E-004  0.5191775E+03  0.7818608E-02  0.1008891E+00
          2   -1    0    0  501    0  0.00000000000E+00  0.00000000000E+00  0.11642175954E+04  0.11642175954E+04  0.25500000000E-02 0.  1.
         -2   -1    0    0    0  501 -0.00000000000E+00 -0.00000000000E+00 -0.57881214617E+02  0.57881214673E+02  0.25500000000E-02 0. -1.
    5000001    1    1    2    0    0  0.75859504661E+02  0.20935251049E+03  0.45685342820E+03  0.52385798930E+03  0.12700000000E+03 0.  0.
   -5000001    1    1    2    0    0 -0.75859504661E+02 -0.20935251049E+03  0.64948295254E+03  0.69824082073E+03  0.12700000000E+03 0.  0.
<mgrwt>
<rscale>  0 0.51917754E+03</rscale>
<asrwt>0</asrwt>
<pdfrwt beam="1">  1        2 0.16631679E+00 0.51917754E+03</pdfrwt>
<pdfrwt beam="2">  1       -2 0.82687452E-02 0.51917754E+03</pdfrwt>
<totfact> 0.21037957E+03</totfact>
</mgrwt>
</event>
<event>
 4    1  0.1399921E-004  0.6073189E+03  0.7818608E-02  0.9890337E-01
          2   -1    0    0  501    0  0.00000000000E+00  0.00000000000E+00  0.56810877835E+03  0.56810877836E+03  0.25500000000E-02 0.  1.
         -2   -1    0    0    0  501 -0.00000000000E+00 -0.00000000000E+00 -0.16230879084E+03  0.16230879086E+03  0.25500000000E-02 0. -1.
    5000001    1    1    2    0    0  0.20025708843E+03 -0.98690812096E+02  0.39771112801E+03  0.47344051284E+03  0.12700000000E+03 0.  0.
   -5000001    1    1    2    0    0 -0.20025708843E+03  0.98690812096E+02  0.80888595006E+01  0.25697705638E+03  0.12700000000E+03 0.  0.
<mgrwt>
<rscale>  0 0.60731886E+03</rscale>
<asrwt>0</asrwt>
<pdfrwt beam="1">  1        2 0.81158397E-01 0.60731886E+03</pdfrwt>
<pdfrwt beam="2">  1       -2 0.23186970E-01 0.60731886E+03</pdfrwt>
<totfact> 0.95238361E+02</totfact>
</mgrwt>
</event>
<event>
 4    1  0.1399921E-004  0.3014904E+03  0.7818608E-02  0.1084498E+00
         -2   -1    0    0    0  501 -0.00000000000E+00  0.00000000000E+00  0.75970242947E+03  0.75970242948E+03  0.25500000000E-02 0. -1.
          2   -1    0    0  501    0  0.00000000000E+00 -0.00000000000E+00 -0.29911866998E+02  0.29911867106E+02  0.25500000000E-02 0.  1.
    5000001    1    1    2    0    0  0.56425369826E+02  0.20388092153E+02  0.50824107431E+03  0.52729260025E+03  0.12700000000E+03 0.  0.
   -5000001    1    1    2    0    0 -0.56425369826E+02 -0.20388092153E+02  0.22154948817E+03  0.26232169634E+03  0.12700000000E+03 0.  0.
<mgrwt>
<rscale>  0 0.30149042E+03</rscale>
<asrwt>0</asrwt>
<pdfrwt beam="1">  1        2 0.42731236E-02 0.30149042E+03</pdfrwt>
<pdfrwt beam="2">  1       -2 0.10852892E+00 0.30149042E+03</pdfrwt>
<totfact> 0.13753495E+03</totfact>
</mgrwt>
</event>
<event>
 4    1  0.1399921E-004  0.4163225E+03  0.7818608E-02  0.1038270E+00
          2   -1    0    0  501    0  0.00000000000E+00  0.00000000000E+00  0.41250008058E+03  0.41250008059E+03  0.25500000000E-02 0.  1.
         -2   -1    0    0    0  501 -0.00000000000E+00 -0.00000000000E+00 -0.10504508841E+03  0.10504508844E+03  0.25500000000E-02 0. -1.
    5000001    1    1    2    0    0 -0.12999427747E+03  0.59961114585E+02  0.51909788983E+02  0.19828634252E+03  0.12700000000E+03 0.  0.
   -5000001    1    1    2    0    0  0.12999427747E+03 -0.59961114585E+02  0.25554520318E+03  0.31925882651E+03  0.12700000000E+03 0.  0.
<mgrwt>
<rscale>  0 0.41632251E+03</rscale>
<asrwt>0</asrwt>
<pdfrwt beam="1">  1        2 0.58928585E-01 0.41632251E+03</pdfrwt>
<pdfrwt beam="2">  1       -2 0.15006441E-01 0.41632251E+03</pdfrwt>
<totfact> 0.28855684E+03</totfact>
</mgrwt>
</event>
<event>
 4    1  0.1399921E-004  0.2931467E+03  0.7818608E-02  0.1088718E+00
         -2   -1    0    0    0  501 -0.00000000000E+00  0.00000000000E+00  0.49764768024E+03  0.49764768024E+03  0.25500000000E-02 0. -1.
          2   -1    0    0  501    0  0.00000000000E+00 -0.00000000000E+00 -0.43170609330E+02  0.43170609405E+02  0.25500000000E-02 0.  1.
    5000001    1    1    2    0    0 -0.66840535606E+02 -0.12844993708E+02  0.17766319203E+03  0.22874846637E+03  0.12700000000E+03 0.  0.
   -5000001    1    1    2    0    0  0.66840535606E+02  0.12844993708E+02  0.27681387888E+03  0.31206982328E+03  0.12700000000E+03 0.  0.
<mgrwt>
<rscale>  0 0.29314675E+03</rscale>
<asrwt>0</asrwt>
<pdfrwt beam="1">  1        2 0.61672299E-02 0.29314675E+03</pdfrwt>
<pdfrwt beam="2">  1       -2 0.71092526E-01 0.29314675E+03</pdfrwt>
<totfact> 0.21992776E+03</totfact>
</mgrwt>
</event>
<event>
 4    1  0.1399921E-004  0.5146733E+03  0.7818608E-02  0.1010018E+00
          2   -1    0    0  501    0  0.00000000000E+00  0.00000000000E+00  0.11101416641E+04  0.11101416641E+04  0.25500000000E-02 0. -1.
         -2   -1    0    0    0  501 -0.00000000000E+00 -0.00000000000E+00 -0.59651988029E+02  0.59651988084E+02  0.25500000000E-02 0.  1.
    5000001    1    1    2    0    0 -0.31675900700E+01  0.21185634056E+03  0.36134448646E+03  0.43771221203E+03  0.12700000000E+03 0.  0.
   -5000001    1    1    2    0    0  0.31675900700E+01 -0.21185634056E+03  0.68914518964E+03  0.73208144019E+03  0.12700000000E+03 0.  0.
<mgrwt>
<rscale>  0 0.51467332E+03</rscale>
<asrwt>0</asrwt>
<pdfrwt beam="1">  1        2 0.15859165E+00 0.51467332E+03</pdfrwt>
<pdfrwt beam="2">  1       -2 0.85217136E-02 0.51467332E+03</pdfrwt>
<totfact> 0.21527492E+03</totfact>
</mgrwt>
</event>
<event>
 4    1  0.1399921E-004  0.3246378E+03  0.7818608E-02  0.1073534E+00
         -2   -1    0    0    0  501 -0.00000000000E+00  0.00000000000E+00  0.15842625037E+02  0.15842625242E+02  0.25500000000E-02 0. -1.
          2   -1    0    0  501    0  0.00000000000E+00 -0.00000000000E+00 -0.16630719219E+04  0.16630719219E+04  0.25500000000E-02 0.  1.
    5000001    1    1    2    0    0 -0.16863075459E+02 -0.31260039646E+02 -0.33416538070E+03  0.35924511834E+03  0.12700000000E+03 0.  0.
   -5000001    1    1    2    0    0  0.16863075459E+02  0.31260039646E+02 -0.13130639162E+04  0.13196694289E+04  0.12700000000E+03 0.  0.
<mgrwt>
<rscale>  0 0.32463780E+03</rscale>
<asrwt>0</asrwt>
<pdfrwt beam="1">  1        2 0.23758159E+00 0.32463780E+03</pdfrwt>
<pdfrwt beam="2">  1       -2 0.22632332E-02 0.32463780E+03</pdfrwt>
<totfact> 0.83482148E+03</totfact>
</mgrwt>
</event>
<event>
 4    1  0.1399921E-004  0.3617215E+03  0.7818608E-02  0.1057904E+00
          2   -1    0    0  501    0  0.00000000000E+00  0.00000000000E+00  0.74977279887E+03  0.74977279888E+03  0.25500000000E-02 0.  1.
         -2   -1    0    0    0  501 -0.00000000000E+00 -0.00000000000E+00 -0.43627369585E+02  0.43627369660E+02  0.25500000000E-02 0. -1.
    5000001    1    1    2    0    0 -0.10335742301E+03 -0.60563659817E+02  0.24947310686E+03  0.30449391591E+03  0.12700000000E+03 0.  0.
   -5000001    1    1    2    0    0  0.10335742301E+03  0.60563659817E+02  0.45667232243E+03  0.48890625262E+03  0.12700000000E+03 0.  0.
<mgrwt>
<rscale>  0 0.36172152E+03</rscale>
<asrwt>0</asrwt>
<pdfrwt beam="1">  1        2 0.10711040E+00 0.36172152E+03</pdfrwt>
<pdfrwt beam="2">  1       -2 0.62324811E-02 0.36172152E+03</pdfrwt>
<totfact> 0.59259496E+03</totfact>
</mgrwt>
</event>
<event>
 4    1  0.1399921E-004  0.2800458E+03  0.7818608E-02  0.1095664E+00
          2   -1    0    0  501    0  0.00000000000E+00  0.00000000000E+00  0.23594501750E+03  0.23594501752E+03  0.25500000000E-02 0.  1.
         -2   -1    0    0    0  501 -0.00000000000E+00 -0.00000000000E+00 -0.83097386499E+02  0.83097386538E+02  0.25500000000E-02 0. -1.
    5000001    1    1    2    0    0  0.56201290877E+02 -0.16024642291E+02  0.85397182775E+02  0.16382018521E+03  0.12700000000E+03 0.  0.
   -5000001    1    1    2    0    0 -0.56201290877E+02  0.16024642291E+02  0.67450448231E+02  0.15522221885E+03  0.12700000000E+03 0.  0.
<mgrwt>
<rscale>  0 0.28004581E+03</rscale>
<asrwt>0</asrwt>
<pdfrwt beam="1">  1        2 0.33706432E-01 0.28004581E+03</pdfrwt>
<pdfrwt beam="2">  1       -2 0.11871055E-01 0.28004581E+03</pdfrwt>
<totfact> 0.77004778E+03</totfact>
</mgrwt>
</event>
<event>
 4    1  0.1399921E-004  0.5248613E+03  0.7818608E-02  0.1007486E+00
         -2   -1    0    0    0  501 -0.00000000000E+00  0.00000000000E+00  0.33395432012E+02  0.33395432109E+02  0.25500000000E-02 0. -1.
          2   -1    0    0  501    0  0.00000000000E+00 -0.00000000000E+00 -0.20622531502E+04  0.20622531502E+04  0.25500000000E-02 0.  1.
    5000001    1    1    2    0    0  0.11749555872E+03 -0.18449203921E+03 -0.12938745042E+04  0.13183636644E+04  0.12700000000E+03 0.  0.
   -5000001    1    1    2    0    0 -0.11749555872E+03  0.18449203921E+03 -0.73498321401E+03  0.77728491798E+03  0.12700000000E+03 0.  0.
<mgrwt>
<rscale>  0 0.52486126E+03</rscale>
<asrwt>0</asrwt>
<pdfrwt beam="1">  1        2 0.29460751E+00 0.52486126E+03</pdfrwt>
<pdfrwt beam="2">  1       -2 0.47707773E-02 0.52486126E+03</pdfrwt>
<totfact> 0.17070892E+03</totfact>
</mgrwt>
</event>
<event>
 4    1  0.1399921E-004  0.3131503E+03  0.7818608E-02  0.1078846E+00
         -2   -1    0    0    0  501 -0.00000000000E+00  0.00000000000E+00  0.47843171319E+02  0.47843171387E+02  0.25500000000E-02 0. -1.
          2   -1    0    0  501    0  0.00000000000E+00 -0.00000000000E+00 -0.51241948377E+03  0.51241948378E+03  0.25500000000E-02 0.  1.
    5000001    1    1    2    0    0  0.70269884160E+02 -0.22395776008E+02 -0.13515792419E+03  0.19958980904E+03  0.12700000000E+03 0.  0.
   -5000001    1    1    2    0    0 -0.70269884160E+02  0.22395776008E+02 -0.32941838827E+03  0.36067284612E+03  0.12700000000E+03 0.  0.
<mgrwt>
<rscale>  0 0.31315027E+03</rscale>
<asrwt>0</asrwt>
<pdfrwt beam="1">  1        2 0.73202780E-01 0.31315027E+03</pdfrwt>
<pdfrwt beam="2">  1       -2 0.68347391E-02 0.31315027E+03</pdfrwt>
<totfact> 0.79651174E+03</totfact>
</mgrwt>
</event>
<event>
 4    1  0.1399921E-004  0.3692866E+03  0.7818608E-02  0.1054966E+00
         -2   -1    0    0    0  501 -0.00000000000E+00  0.00000000000E+00  0.11675031983E+02  0.11675032262E+02  0.25500000000E-02 0. -1.
          2   -1    0    0  501    0  0.00000000000E+00 -0.00000000000E+00 -0.29201767026E+04  0.29201767026E+04  0.25500000000E-02 0.  1.
    5000001    1    1    2    0    0 -0.76953072149E+02  0.88793320349E+02 -0.19662005612E+04  0.19737982865E+04  0.12700000000E+03 0.  0.
   -5000001    1    1    2    0    0  0.76953072149E+02 -0.88793320349E+02 -0.94230110946E+03  0.95805344837E+03  0.12700000000E+03 0.  0.
<mgrwt>
<rscale>  0 0.36928665E+03</rscale>
<asrwt>0</asrwt>
<pdfrwt beam="1">  1        2 0.41716763E+00 0.36928665E+03</pdfrwt>
<pdfrwt beam="2">  1       -2 0.16678636E-02 0.36928665E+03</pdfrwt>
<totfact> 0.30676563E+03</totfact>
</mgrwt>
</event>
<event>
 4    1  0.1399921E-004  0.2820307E+03  0.7818608E-02  0.1094585E+00
          2   -1    0    0  501    0  0.00000000000E+00  0.00000000000E+00  0.36191332362E+03  0.36191332363E+03  0.25500000000E-02 0.  1.
         -2   -1    0    0    0  501 -0.00000000000E+00 -0.00000000000E+00 -0.54944992350E+02  0.54944992409E+02  0.25500000000E-02 0. -1.
    5000001    1    1    2    0    0  0.88994440414E+01  0.36269106276E+02  0.22531358342E+03  0.26132328455E+03  0.12700000000E+03 0.  0.
   -5000001    1    1    2    0    0 -0.88994440414E+01 -0.36269106276E+02  0.81654747853E+02  0.15553503149E+03  0.12700000000E+03 0.  0.
<mgrwt>
<rscale>  0 0.28203067E+03</rscale>
<asrwt>0</asrwt>
<pdfrwt beam="1">  1        2 0.51701906E-01 0.28203067E+03</pdfrwt>
<pdfrwt beam="2">  1       -2 0.78492842E-02 0.28203067E+03</pdfrwt>
<totfact> 0.93543095E+03</totfact>
</mgrwt>
</event>
<event>
 4    1  0.1399921E-004  0.3993990E+03  0.7818608E-02  0.1043988E+00
         -2   -1    0    0    0  501 -0.00000000000E+00  0.00000000000E+00  0.20745757998E+02  0.20745758155E+02  0.25500000000E-02 0. -1.
          2   -1    0    0  501    0  0.00000000000E+00 -0.00000000000E+00 -0.19223154748E+04  0.19223154748E+04  0.25500000000E-02 0.  1.
    5000001    1    1    2    0    0  0.68196271821E+02  0.89763564173E+02 -0.43955476324E+03  0.47121716738E+03  0.12700000000E+03 0.  0.
   -5000001    1    1    2    0    0 -0.68196271821E+02 -0.89763564173E+02 -0.14620149536E+04  0.14718440656E+04  0.12700000000E+03 0.  0.
<mgrwt>
<rscale>  0 0.39939901E+03</rscale>
<asrwt>0</asrwt>
<pdfrwt beam="1">  1        2 0.27461638E+00 0.39939901E+03</pdfrwt>
<pdfrwt beam="2">  1       -2 0.29636810E-02 0.39939901E+03</pdfrwt>
<totfact> 0.41546755E+03</totfact>
</mgrwt>
</event>
<event>
 4    1  0.1399921E-004  0.1067838E+04  0.7818608E-02  0.9237119E-01
          2   -1    0    0  501    0  0.00000000000E+00  0.00000000000E+00  0.23240632549E+04  0.23240632549E+04  0.25500000000E-02 0.  1.
         -2   -1    0    0    0  501 -0.00000000000E+00 -0.00000000000E+00 -0.12265990766E+03  0.12265990769E+03  0.25500000000E-02 0. -1.
    5000001    1    1    2    0    0  0.40434469186E+03  0.30109951967E+03  0.82209740200E+03  0.97269146647E+03  0.12700000000E+03 0.  0.
   -5000001    1    1    2    0    0 -0.40434469186E+03 -0.30109951967E+03  0.13793059452E+04  0.14740316961E+04  0.12700000000E+03 0.  0.
<mgrwt>
<rscale>  0 0.10678378E+04</rscale>
<asrwt>0</asrwt>
<pdfrwt beam="1">  1        2 0.33200901E+00 0.10678378E+04</pdfrwt>
<pdfrwt beam="2">  1       -2 0.17522845E-01 0.10678378E+04</pdfrwt>
<totfact> 0.14666992E+02</totfact>
</mgrwt>
</event>
<event>
 4    1  0.1399921E-004  0.3200702E+03  0.7818608E-02  0.1075617E+00
         -2   -1    0    0    0  501 -0.00000000000E+00  0.00000000000E+00  0.20614396645E+02  0.20614396803E+02  0.25500000000E-02 0. -1.
          2   -1    0    0  501    0  0.00000000000E+00 -0.00000000000E+00 -0.12423954800E+04  0.12423954800E+04  0.25500000000E-02 0.  1.
    5000001    1    1    2    0    0  0.55206172134E+02  0.78757502882E+02 -0.67096472571E+03  0.68961810363E+03  0.12700000000E+03 0.  0.
   -5000001    1    1    2    0    0 -0.55206172134E+02 -0.78757502882E+02 -0.55081635768E+03  0.57339177321E+03  0.12700000000E+03 0.  0.
<mgrwt>
<rscale>  0 0.32007020E+03</rscale>
<asrwt>0</asrwt>
<pdfrwt beam="1">  1        2 0.17748502E+00 0.32007020E+03</pdfrwt>
<pdfrwt beam="2">  1       -2 0.29449146E-02 0.32007020E+03</pdfrwt>
<totfact> 0.92846422E+03</totfact>
</mgrwt>
</event>
<event>
 4    1  0.1399921E-004  0.3288040E+03  0.7818608E-02  0.1071667E+00
         -2   -1    0    0    0  501 -0.00000000000E+00  0.00000000000E+00  0.86065604617E+01  0.86065608394E+01  0.25500000000E-02 0. -1.
          2   -1    0    0  501    0  0.00000000000E+00 -0.00000000000E+00 -0.31403965205E+04  0.31403965205E+04  0.25500000000E-02 0.  1.
    5000001    1    1    2    0    0  0.47525940457E+01  0.81767751362E+02 -0.21858596216E+04  0.21910773235E+04  0.12700000000E+03 0.  0.
   -5000001    1    1    2    0    0 -0.47525940457E+01 -0.81767751362E+02 -0.94593033842E+03  0.95792575780E+03  0.12700000000E+03 0.  0.
<mgrwt>
<rscale>  0 0.32880397E+03</rscale>
<asrwt>0</asrwt>
<pdfrwt beam="1">  1        2 0.44862734E+00 0.32880397E+03</pdfrwt>
<pdfrwt beam="2">  1       -2 0.12295107E-02 0.32880397E+03</pdfrwt>
<totfact> 0.36694335E+03</totfact>
</mgrwt>
</event>
<event>
 4    1  0.1399921E-004  0.3064568E+03  0.7818608E-02  0.1082057E+00
          2   -1    0    0  501    0  0.00000000000E+00  0.00000000000E+00  0.26417703697E+04  0.26417703697E+04  0.25500000000E-02 0.  1.
         -2   -1    0    0    0  501 -0.00000000000E+00 -0.00000000000E+00 -0.88875803425E+01  0.88875807083E+01  0.25500000000E-02 0. -1.
    5000001    1    1    2    0    0 -0.74078271997E+02 -0.37236721086E+02  0.11277774553E+04  0.11379302054E+04  0.12700000000E+03 0.  0.
   -5000001    1    1    2    0    0  0.74078271997E+02  0.37236721086E+02  0.15051053341E+04  0.15127277450E+04  0.12700000000E+03 0.  0.
<mgrwt>
<rscale>  0 0.30645683E+03</rscale>
<asrwt>0</asrwt>
<pdfrwt beam="1">  1        2 0.37739606E+00 0.30645683E+03</pdfrwt>
<pdfrwt beam="2">  1       -2 0.12696534E-02 0.30645683E+03</pdfrwt>
<totfact> 0.64054428E+03</totfact>
</mgrwt>
</event>
<event>
 4    1  0.1399921E-004  0.6621514E+03  0.7818608E-02  0.9784241E-01
          2   -1    0    0  501    0  0.00000000000E+00  0.00000000000E+00  0.10473672916E+04  0.10473672916E+04  0.25500000000E-02 0.  1.
         -2   -1    0    0    0  501 -0.00000000000E+00 -0.00000000000E+00 -0.10465394078E+03  0.10465394081E+03  0.25500000000E-02 0. -1.
    5000001    1    1    2    0    0  0.27728782197E+03  0.73156641909E+01  0.69511114696E+03  0.75911169257E+03  0.12700000000E+03 0.  0.
   -5000001    1    1    2    0    0 -0.27728782197E+03 -0.73156641909E+01  0.24760220388E+03  0.39290953987E+03  0.12700000000E+03 0.  0.
<mgrwt>
<rscale>  0 0.66215139E+03</rscale>
<asrwt>0</asrwt>
<pdfrwt beam="1">  1        2 0.14962390E+00 0.66215139E+03</pdfrwt>
<pdfrwt beam="2">  1       -2 0.14950563E-01 0.66215139E+03</pdfrwt>
<totfact> 0.93032704E+02</totfact>
</mgrwt>
</event>
<event>
 4    1  0.1399921E-004  0.3714159E+03  0.7818608E-02  0.1054153E+00
          2   -1    0    0  501    0  0.00000000000E+00  0.00000000000E+00  0.40592050130E+04  0.40592050130E+04  0.25500000000E-02 0.  1.
         -2   -1    0    0    0  501 -0.00000000000E+00 -0.00000000000E+00 -0.84961077456E+01  0.84961081283E+01  0.25500000000E-02 0. -1.
    5000001    1    1    2    0    0  0.25255039456E+02  0.13264053001E+03  0.19018763737E+04  0.19108882929E+04  0.12700000000E+03 0.  0.
   -5000001    1    1    2    0    0 -0.25255039456E+02 -0.13264053001E+03  0.21488325315E+04  0.21568128282E+04  0.12700000000E+03 0.  0.
<mgrwt>
<rscale>  0 0.37141591E+03</rscale>
<asrwt>0</asrwt>
<pdfrwt beam="1">  1        2 0.57988770E+00 0.37141591E+03</pdfrwt>
<pdfrwt beam="2">  1       -2 0.12137270E-02 0.37141591E+03</pdfrwt>
<totfact> 0.10455852E+03</totfact>
</mgrwt>
</event>
<event>
 4    1  0.1399921E-004  0.5651071E+03  0.7818608E-02  0.9980565E-01
         -2   -1    0    0    0  501 -0.00000000000E+00  0.00000000000E+00  0.12554455571E+03  0.12554455574E+03  0.25500000000E-02 0. -1.
          2   -1    0    0  501    0  0.00000000000E+00 -0.00000000000E+00 -0.63592163026E+03  0.63592163027E+03  0.25500000000E-02 0.  1.
    5000001    1    1    2    0    0  0.11726739281E+03  0.22241120566E+03 -0.28498909347E+03  0.40070708655E+03  0.12700000000E+03 0.  0.
   -5000001    1    1    2    0    0 -0.11726739281E+03 -0.22241120566E+03 -0.22538798108E+03  0.36075909945E+03  0.12700000000E+03 0.  0.
<mgrwt>
<rscale>  0 0.56510706E+03</rscale>
<asrwt>0</asrwt>
<pdfrwt beam="1">  1        2 0.90845946E-01 0.56510706E+03</pdfrwt>
<pdfrwt beam="2">  1       -2 0.17934937E-01 0.56510706E+03</pdfrwt>
<totfact> 0.13064460E+03</totfact>
</mgrwt>
</event>
<event>
 4    1  0.1399921E-004  0.1014212E+04  0.7818608E-02  0.9293094E-01
         -2   -1    0    0    0  501 -0.00000000000E+00  0.00000000000E+00  0.24045296482E+03  0.24045296483E+03  0.25500000000E-02 0. -1.
          2   -1    0    0  501    0  0.00000000000E+00 -0.00000000000E+00 -0.10694661751E+04  0.10694661751E+04  0.25500000000E-02 0.  1.
    5000001    1    1    2    0    0 -0.34852175534E+03 -0.25945857112E+03 -0.11930259314E+03  0.46813275126E+03  0.12700000000E+03 0.  0.
   -5000001    1    1    2    0    0  0.34852175534E+03  0.25945857112E+03 -0.70971061714E+03  0.84178638867E+03  0.12700000000E+03 0.  0.
<mgrwt>
<rscale>  0 0.10142116E+04</rscale>
<asrwt>0</asrwt>
<pdfrwt beam="1">  1        2 0.15278088E+00 0.10142116E+04</pdfrwt>
<pdfrwt beam="2">  1       -2 0.34350424E-01 0.10142116E+04</pdfrwt>
<totfact> 0.20136008E+02</totfact>
</mgrwt>
</event>
<event>
 4    1  0.1399921E-004  0.5011910E+03  0.7818608E-02  0.1013469E+00
          2   -1    0    0  501    0  0.00000000000E+00  0.00000000000E+00  0.47876594254E+03  0.47876594255E+03  0.25500000000E-02 0.  1.
         -2   -1    0    0    0  501 -0.00000000000E+00 -0.00000000000E+00 -0.13116659704E+03  0.13116659707E+03  0.25500000000E-02 0. -1.
    5000001    1    1    2    0    0 -0.13073660189E+03 -0.17135753623E+03  0.19158717380E+03  0.31510333141E+03  0.12700000000E+03 0.  0.
   -5000001    1    1    2    0    0  0.13073660189E+03  0.17135753623E+03  0.15601217169E+03  0.29482920821E+03  0.12700000000E+03 0.  0.
<mgrwt>
<rscale>  0 0.50119098E+03</rscale>
<asrwt>0</asrwt>
<pdfrwt beam="1">  1        2 0.68395134E-01 0.50119098E+03</pdfrwt>
<pdfrwt beam="2">  1       -2 0.18738085E-01 0.50119098E+03</pdfrwt>
<totfact> 0.16814848E+03</totfact>
</mgrwt>
</event>
<event>
 4    1  0.1399921E-004  0.7120484E+03  0.7818608E-02  0.9696847E-01
          2   -1    0    0  501    0  0.00000000000E+00  0.00000000000E+00  0.15536919582E+04  0.15536919582E+04  0.25500000000E-02 0.  1.
         -2   -1    0    0    0  501 -0.00000000000E+00 -0.00000000000E+00 -0.81581950109E+02  0.81581950149E+02  0.25500000000E-02 0. -1.
    5000001    1    1    2    0    0  0.23497224266E+03  0.17820362659E+03  0.38283181121E+03  0.49965756577E+03  0.12700000000E+03 0.  0.
   -5000001    1    1    2    0    0 -0.23497224266E+03 -0.17820362659E+03  0.10892781969E+04  0.11356163426E+04  0.12700000000E+03 0.  0.
<mgrwt>
<rscale>  0 0.71204837E+03</rscale>
<asrwt>0</asrwt>
<pdfrwt beam="1">  1        2 0.22195597E+00 0.71204837E+03</pdfrwt>
<pdfrwt beam="2">  1       -2 0.11654565E-01 0.71204837E+03</pdfrwt>
<totfact> 0.74009954E+02</totfact>
</mgrwt>
</event>
<event>
 4    1  0.1399921E-004  0.3474534E+03  0.7818608E-02  0.1063665E+00
         -2   -1    0    0    0  501 -0.00000000000E+00  0.00000000000E+00  0.47991824749E+02  0.47991824817E+02  0.25500000000E-02 0. -1.
          2   -1    0    0  501    0  0.00000000000E+00 -0.00000000000E+00 -0.62887734122E+03  0.62887734122E+03  0.25500000000E-02 0.  1.
    5000001    1    1    2    0    0  0.10684362811E+03 -0.44673760030E+02 -0.24113403146E+03  0.29611809609E+03  0.12700000000E+03 0.  0.
   -5000001    1    1    2    0    0 -0.10684362811E+03  0.44673760030E+02 -0.33975148501E+03  0.38075106995E+03  0.12700000000E+03 0.  0.
<mgrwt>
<rscale>  0 0.34745343E+03</rscale>
<asrwt>0</asrwt>
<pdfrwt beam="1">  1        2 0.89839615E-01 0.34745343E+03</pdfrwt>
<pdfrwt beam="2">  1       -2 0.68559753E-02 0.34745343E+03</pdfrwt>
<totfact> 0.62978956E+03</totfact>
</mgrwt>
</event>
<event>
 4    1  0.1399921E-004  0.4010651E+03  0.7818608E-02  0.1043411E+00
          2   -1    0    0  501    0  0.00000000000E+00  0.00000000000E+00  0.44688263308E+03  0.44688263309E+03  0.25500000000E-02 0.  1.
         -2   -1    0    0    0  501 -0.00000000000E+00 -0.00000000000E+00 -0.89986267091E+02  0.89986267127E+02  0.25500000000E-02 0. -1.
    5000001    1    1    2    0    0  0.49339986121E+02 -0.13295211240E+03  0.94067010911E+02  0.21234005972E+03  0.12700000000E+03 0.  0.
   -5000001    1    1    2    0    0 -0.49339986121E+02  0.13295211240E+03  0.26282935508E+03  0.32452884049E+03  0.12700000000E+03 0.  0.
<mgrwt>
<rscale>  0 0.40106508E+03</rscale>
<asrwt>0</asrwt>
<pdfrwt beam="1">  1        2 0.63840375E-01 0.40106508E+03</pdfrwt>
<pdfrwt beam="2">  1       -2 0.12855181E-01 0.40106508E+03</pdfrwt>
<totfact> 0.34107160E+03</totfact>
</mgrwt>
</event>
<event>
 4    1  0.1399921E-004  0.5833974E+03  0.7818608E-02  0.9940463E-01
          2   -1    0    0  501    0  0.00000000000E+00  0.00000000000E+00  0.18596203124E+04  0.18596203124E+04  0.25500000000E-02 0.  1.
         -2   -1    0    0    0  501 -0.00000000000E+00 -0.00000000000E+00 -0.45755653388E+02  0.45755653459E+02  0.25500000000E-02 0. -1.
    5000001    1    1    2    0    0  0.24272245509E+03 -0.95238480457E+02  0.10088913930E+04  0.10497501613E+04  0.12700000000E+03 0.  0.
   -5000001    1    1    2    0    0 -0.24272245509E+03  0.95238480457E+02  0.80497326603E+03  0.85562580453E+03  0.12700000000E+03 0.  0.
<mgrwt>
<rscale>  0 0.58339744E+03</rscale>
<asrwt>0</asrwt>
<pdfrwt beam="1">  1        2 0.26566002E+00 0.58339744E+03</pdfrwt>
<pdfrwt beam="2">  1       -2 0.65365225E-02 0.58339744E+03</pdfrwt>
<totfact> 0.13169939E+03</totfact>
</mgrwt>
</event>
<event>
 4    1  0.1399921E-004  0.3769795E+03  0.7818608E-02  0.1052056E+00
          2   -1    0    0  501    0  0.00000000000E+00  0.00000000000E+00  0.65217501927E+02  0.65217501977E+02  0.25500000000E-02 0.  1.
         -2   -1    0    0    0  501 -0.00000000000E+00 -0.00000000000E+00 -0.54476753786E+03  0.54476753787E+03  0.25500000000E-02 0. -1.
    5000001    1    1    2    0    0 -0.10491247357E+03 -0.66231020506E+02 -0.13735898208E+03  0.22447642448E+03  0.12700000000E+03 0.  0.
   -5000001    1    1    2    0    0  0.10491247357E+03  0.66231020506E+02 -0.34219105385E+03  0.38550861537E+03  0.12700000000E+03 0.  0.
<mgrwt>
<rscale>  0 0.37697946E+03</rscale>
<asrwt>0</asrwt>
<pdfrwt beam="1">  1        2 0.93167862E-02 0.37697946E+03</pdfrwt>
<pdfrwt beam="2">  1       -2 0.77823932E-01 0.37697946E+03</pdfrwt>
<totfact> 0.10681348E+03</totfact>
</mgrwt>
</event>
<event>
 4    1  0.1399921E-004  0.6686258E+03  0.7818608E-02  0.9772443E-01
          2   -1    0    0  501    0  0.00000000000E+00  0.00000000000E+00  0.27369708889E+04  0.27369708889E+04  0.25500000000E-02 0.  1.
         -2   -1    0    0    0  501 -0.00000000000E+00 -0.00000000000E+00 -0.40835337772E+02  0.40835337852E+02  0.25500000000E-02 0. -1.
    5000001    1    1    2    0    0 -0.29048680432E+03  0.70038785441E+02  0.16790778478E+04  0.17101811115E+04  0.12700000000E+03 0.  0.
   -5000001    1    1    2    0    0  0.29048680432E+03 -0.70038785441E+02  0.10170577033E+04  0.10676251152E+04  0.12700000000E+03 0.  0.
<mgrwt>
<rscale>  0 0.66862585E+03</rscale>
<asrwt>0</asrwt>
<pdfrwt beam="1">  1        2 0.39099599E+00 0.66862585E+03</pdfrwt>
<pdfrwt beam="2">  1       -2 0.58336174E-02 0.66862585E+03</pdfrwt>
<totfact> 0.55927815E+02</totfact>
</mgrwt>
</event>
<event>
 4    1  0.1399921E-004  0.4787757E+03  0.7818608E-02  0.1019472E+00
          2   -1    0    0  501    0  0.00000000000E+00  0.00000000000E+00  0.11544934851E+04  0.11544934851E+04  0.25500000000E-02 0.  1.
         -2   -1    0    0    0  501 -0.00000000000E+00 -0.00000000000E+00 -0.49637813621E+02  0.49637813687E+02  0.25500000000E-02 0. -1.
    5000001    1    1    2    0    0 -0.39059541651E+02 -0.17356878333E+03  0.79789400810E+03  0.82729415476E+03  0.12700000000E+03 0.  0.
   -5000001    1    1    2    0    0  0.39059541651E+02  0.17356878333E+03  0.30696166341E+03  0.37683714406E+03  0.12700000000E+03 0.  0.
<mgrwt>
<rscale>  0 0.47877566E+03</rscale>
<asrwt>0</asrwt>
<pdfrwt beam="1">  1        2 0.16492761E+00 0.47877566E+03</pdfrwt>
<pdfrwt beam="2">  1       -2 0.70911173E-02 0.47877566E+03</pdfrwt>
<totfact> 0.27177610E+03</totfact>
</mgrwt>
</event>
<event>
 4    1  0.1399921E-004  0.3508226E+03  0.7818608E-02  0.1062278E+00
         -2   -1    0    0    0  501 -0.00000000000E+00  0.00000000000E+00  0.71067259335E+01  0.71067263910E+01  0.25500000000E-02 0. -1.
          2   -1    0    0  501    0  0.00000000000E+00 -0.00000000000E+00 -0.43295784311E+04  0.43295784311E+04  0.25500000000E-02 0.  1.
    5000001    1    1    2    0    0 -0.61528830515E+02  0.10340043221E+03 -0.20035691517E+04  0.20111926293E+04  0.12700000000E+03 0.  0.
   -5000001    1    1    2    0    0  0.61528830515E+02 -0.10340043221E+03 -0.23189025535E+04  0.23254925282E+04  0.12700000000E+03 0.  0.
<mgrwt>
<rscale>  0 0.35082262E+03</rscale>
<asrwt>0</asrwt>
<pdfrwt beam="1">  1        2 0.61850951E+00 0.35082262E+03</pdfrwt>
<pdfrwt beam="2">  1       -2 0.10152494E-02 0.35082262E+03</pdfrwt>
<totfact> 0.88493606E+02</totfact>
</mgrwt>
</event>
<event>
 4    1  0.1399921E-004  0.4937502E+03  0.7818608E-02  0.1015423E+00
         -2   -1    0    0    0  501 -0.00000000000E+00  0.00000000000E+00  0.21588024115E+02  0.21588024266E+02  0.25500000000E-02 0. -1.
          2   -1    0    0  501    0  0.00000000000E+00 -0.00000000000E+00 -0.28232002931E+04  0.28232002931E+04  0.25500000000E-02 0.  1.
    5000001    1    1    2    0    0 -0.14212539484E+03  0.11665954404E+03 -0.20053409536E+04  0.20177538050E+04  0.12700000000E+03 0.  0.
   -5000001    1    1    2    0    0  0.14212539484E+03 -0.11665954404E+03 -0.79627131531E+03  0.82703451237E+03  0.12700000000E+03 0.  0.
<mgrwt>
<rscale>  0 0.49375020E+03</rscale>
<asrwt>0</asrwt>
<pdfrwt beam="1">  1        2 0.40331409E+00 0.49375020E+03</pdfrwt>
<pdfrwt beam="2">  1       -2 0.30840053E-02 0.49375020E+03</pdfrwt>
<totfact> 0.13634822E+03</totfact>
</mgrwt>
</event>
<event>
 4    1  0.1399921E-004  0.3251688E+03  0.7818608E-02  0.1073295E+00
          2   -1    0    0  501    0  0.00000000000E+00  0.00000000000E+00  0.48539813197E+03  0.48539813197E+03  0.25500000000E-02 0.  1.
         -2   -1    0    0    0  501 -0.00000000000E+00 -0.00000000000E+00 -0.54457731203E+02  0.54457731263E+02  0.25500000000E-02 0. -1.
    5000001    1    1    2    0    0 -0.89999033249E+02  0.45216910987E+02  0.19445097114E+03  0.25314931405E+03  0.12700000000E+03 0.  0.
   -5000001    1    1    2    0    0  0.89999033249E+02 -0.45216910987E+02  0.23648942962E+03  0.28670654919E+03  0.12700000000E+03 0.  0.
<mgrwt>
<rscale>  0 0.32516876E+03</rscale>
<asrwt>0</asrwt>
<pdfrwt beam="1">  1        2 0.69342592E-01 0.32516876E+03</pdfrwt>
<pdfrwt beam="2">  1       -2 0.77796757E-02 0.32516876E+03</pdfrwt>
<totfact> 0.69217727E+03</totfact>
</mgrwt>
</event>
<event>
 4    1  0.1399921E-004  0.3020115E+03  0.7818608E-02  0.1084239E+00
          2   -1    0    0  501    0  0.00000000000E+00  0.00000000000E+00  0.31486247571E+04  0.31486247571E+04  0.25500000000E-02 0.  1.
         -2   -1    0    0    0  501 -0.00000000000E+00 -0.00000000000E+00 -0.72421244033E+01  0.72421248523E+01  0.25500000000E-02 0. -1.
    5000001    1    1    2    0    0  0.77500921079E+02 -0.57361686574E+01  0.13074892401E+04  0.13159393638E+04  0.12700000000E+03 0.  0.
   -5000001    1    1    2    0    0 -0.77500921079E+02  0.57361686574E+01  0.18338933926E+04  0.18399275181E+04  0.12700000000E+03 0.  0.
<mgrwt>
<rscale>  0 0.30201148E+03</rscale>
<asrwt>0</asrwt>
<pdfrwt beam="1">  1        2 0.44980435E+00 0.30201148E+03</pdfrwt>
<pdfrwt beam="2">  1       -2 0.10345874E-02 0.30201148E+03</pdfrwt>
<totfact> 0.46819446E+03</totfact>
</mgrwt>
</event>
<event>
 4    1  0.1399921E-004  0.3536504E+03  0.7818608E-02  0.1061127E+00
         -2   -1    0    0    0  501 -0.00000000000E+00  0.00000000000E+00  0.36763835024E+02  0.36763835113E+02  0.25500000000E-02 0. -1.
          2   -1    0    0  501    0  0.00000000000E+00 -0.00000000000E+00 -0.85048673782E+03  0.85048673783E+03  0.25500000000E-02 0.  1.
    5000001    1    1    2    0    0 -0.59036083295E+02  0.10776393918E+03 -0.42269465414E+03  0.45814637001E+03  0.12700000000E+03 0.  0.
   -5000001    1    1    2    0    0  0.59036083295E+02 -0.10776393918E+03 -0.39102824866E+03  0.42910420292E+03  0.12700000000E+03 0.  0.
<mgrwt>
<rscale>  0 0.35365042E+03</rscale>
<asrwt>0</asrwt>
<pdfrwt beam="1">  1        2 0.12149809E+00 0.35365042E+03</pdfrwt>
<pdfrwt beam="2">  1       -2 0.52519770E-02 0.35365042E+03</pdfrwt>
<totfact> 0.65857208E+03</totfact>
</mgrwt>
</event>
<event>
 4    1  0.1399921E-004  0.3634703E+03  0.7818608E-02  0.1057218E+00
          2   -1    0    0  501    0  0.00000000000E+00  0.00000000000E+00  0.49011613166E+03  0.49011613167E+03  0.25500000000E-02 0.  1.
         -2   -1    0    0    0  501 -0.00000000000E+00 -0.00000000000E+00 -0.67387436967E+02  0.67387437016E+02  0.25500000000E-02 0. -1.
    5000001    1    1    2    0    0  0.11763912169E+03 -0.38697812895E+02  0.27198841831E+03  0.32472016163E+03  0.12700000000E+03 0.  0.
   -5000001    1    1    2    0    0 -0.11763912169E+03  0.38697812895E+02  0.15074027638E+03  0.23278340705E+03  0.12700000000E+03 0.  0.
<mgrwt>
<rscale>  0 0.36347033E+03</rscale>
<asrwt>0</asrwt>
<pdfrwt beam="1">  1        2 0.70016586E-01 0.36347033E+03</pdfrwt>
<pdfrwt beam="2">  1       -2 0.96267773E-02 0.36347033E+03</pdfrwt>
<totfact> 0.49046908E+03</totfact>
</mgrwt>
</event>
<event>
 4    1  0.1399921E-004  0.4875606E+03  0.7818608E-02  0.1017078E+00
         -2   -1    0    0    0  501 -0.00000000000E+00  0.00000000000E+00  0.20145528248E+02  0.20145528410E+02  0.25500000000E-02 0. -1.
          2   -1    0    0  501    0  0.00000000000E+00 -0.00000000000E+00 -0.29499764474E+04  0.29499764474E+04  0.25500000000E-02 0.  1.
    5000001    1    1    2    0    0 -0.46932672950E+02 -0.19603805388E+03 -0.17794695107E+04  0.17953479701E+04  0.12700000000E+03 0.  0.
   -5000001    1    1    2    0    0  0.46932672950E+02  0.19603805388E+03 -0.11503614085E+04  0.11747740057E+04  0.12700000000E+03 0.  0.
<mgrwt>
<rscale>  0 0.48756060E+03</rscale>
<asrwt>0</asrwt>
<pdfrwt beam="1">  1        2 0.42142493E+00 0.48756060E+03</pdfrwt>
<pdfrwt beam="2">  1       -2 0.28779345E-02 0.48756060E+03</pdfrwt>
<totfact> 0.12967700E+03</totfact>
</mgrwt>
</event>
<event>
 4    1  0.1399921E-004  0.5559240E+03  0.7818608E-02  0.1000132E+00
         -2   -1    0    0    0  501 -0.00000000000E+00  0.00000000000E+00  0.73623248154E+02  0.73623248198E+02  0.25500000000E-02 0. -1.
          2   -1    0    0  501    0  0.00000000000E+00 -0.00000000000E+00 -0.10494359500E+04  0.10494359500E+04  0.25500000000E-02 0.  1.
    5000001    1    1    2    0    0  0.24713495340E+03 -0.63490590688E+01 -0.47936230011E+03  0.55410577556E+03  0.12700000000E+03 0.  0.
   -5000001    1    1    2    0    0 -0.24713495340E+03  0.63490590688E+01 -0.49645040170E+03  0.56895342260E+03  0.12700000000E+03 0.  0.
<mgrwt>
<rscale>  0 0.55592404E+03</rscale>
<asrwt>0</asrwt>
<pdfrwt beam="1">  1        2 0.14991941E+00 0.55592404E+03</pdfrwt>
<pdfrwt beam="2">  1       -2 0.10517608E-01 0.55592404E+03</pdfrwt>
<totfact> 0.16638907E+03</totfact>
</mgrwt>
</event>
<event>
 4    1  0.1399921E-004  0.8896825E+03  0.7818608E-02  0.9438571E-01
          2   -1    0    0  501    0  0.00000000000E+00  0.00000000000E+00  0.66944768696E+03  0.66944768696E+03  0.25500000000E-02 0.  1.
         -2   -1    0    0    0  501 -0.00000000000E+00 -0.00000000000E+00 -0.29559252860E+03  0.29559252861E+03  0.25500000000E-02 0. -1.
    5000001    1    1    2    0    0 -0.34833145407E+03 -0.13477516829E+03 -0.36045501910E+02  0.39614066453E+03  0.12700000000E+03 0.  0.
   -5000001    1    1    2    0    0  0.34833145407E+03  0.13477516829E+03  0.40990066027E+03  0.56889955104E+03  0.12700000000E+03 0.  0.
<mgrwt>
<rscale>  0 0.88968249E+03</rscale>
<asrwt>0</asrwt>
<pdfrwt beam="1">  1        2 0.95635384E-01 0.88968249E+03</pdfrwt>
<pdfrwt beam="2">  1       -2 0.42227504E-01 0.88968249E+03</pdfrwt>
<totfact> 0.25328530E+02</totfact>
</mgrwt>
</event>
<event>
 4    1  0.1399921E-004  0.3307214E+03  0.7818608E-02  0.1070818E+00
          2   -1    0    0  501    0  0.00000000000E+00  0.00000000000E+00  0.91769920183E+03  0.91769920184E+03  0.25500000000E-02 0.  1.
         -2   -1    0    0    0  501 -0.00000000000E+00 -0.00000000000E+00 -0.29796422816E+02  0.29796422925E+02  0.25500000000E-02 0. -1.
    5000001    1    1    2    0    0  0.88692131905E+02  0.57846569683E+02  0.43930206220E+03  0.46939090504E+03  0.12700000000E+03 0.  0.
   -5000001    1    1    2    0    0 -0.88692131905E+02 -0.57846569683E+02  0.44860071682E+03  0.47810471972E+03  0.12700000000E+03 0.  0.
<mgrwt>
<rscale>  0 0.33072135E+03</rscale>
<asrwt>0</asrwt>
<pdfrwt beam="1">  1        2 0.13109989E+00 0.33072135E+03</pdfrwt>
<pdfrwt beam="2">  1       -2 0.42566317E-02 0.33072135E+03</pdfrwt>
<totfact> 0.82068226E+03</totfact>
</mgrwt>
</event>
<event>
 4    1  0.1399921E-004  0.2918203E+03  0.7818608E-02  0.1089403E+00
         -2   -1    0    0    0  501 -0.00000000000E+00  0.00000000000E+00  0.19222899877E+02  0.19222900047E+02  0.25500000000E-02 0. -1.
          2   -1    0    0  501    0  0.00000000000E+00 -0.00000000000E+00 -0.11075212790E+04  0.11075212790E+04  0.25500000000E-02 0.  1.
    5000001    1    1    2    0    0  0.15170523370E+02 -0.55420845655E+02 -0.71063136134E+03  0.72417369921E+03  0.12700000000E+03 0.  0.
   -5000001    1    1    2    0    0 -0.15170523370E+02  0.55420845655E+02 -0.37766701774E+03  0.40257047979E+03  0.12700000000E+03 0.  0.
<mgrwt>
<rscale>  0 0.29182029E+03</rscale>
<asrwt>0</asrwt>
<pdfrwt beam="1">  1        2 0.15821729E+00 0.29182029E+03</pdfrwt>
<pdfrwt beam="2">  1       -2 0.27461293E-02 0.29182029E+03</pdfrwt>
<totfact> 0.12193229E+04</totfact>
</mgrwt>
</event>
<event>
 4    1  0.1399921E-004  0.4370012E+03  0.7818608E-02  0.1031671E+00
          2   -1    0    0  501    0  0.00000000000E+00  0.00000000000E+00  0.13322840349E+04  0.13322840349E+04  0.25500000000E-02 0.  1.
         -2   -1    0    0    0  501 -0.00000000000E+00 -0.00000000000E+00 -0.35835088972E+02  0.35835089063E+02  0.25500000000E-02 0. -1.
    5000001    1    1    2    0    0  0.10855369325E+03  0.13545261949E+03  0.76875435930E+03  0.79827537942E+03  0.12700000000E+03 0.  0.
   -5000001    1    1    2    0    0 -0.10855369325E+03 -0.13545261949E+03  0.52769458666E+03  0.56984374458E+03  0.12700000000E+03 0.  0.
<mgrwt>
<rscale>  0 0.43700122E+03</rscale>
<asrwt>0</asrwt>
<pdfrwt beam="1">  1        2 0.19032626E+00 0.43700122E+03</pdfrwt>
<pdfrwt beam="2">  1       -2 0.51192993E-02 0.43700122E+03</pdfrwt>
<totfact> 0.36066288E+03</totfact>
</mgrwt>
</event>
<event>
 4    1  0.1399921E-004  0.4914731E+03  0.7818608E-02  0.1016029E+00
         -2   -1    0    0    0  501 -0.00000000000E+00  0.00000000000E+00  0.65587774312E+02  0.65587774362E+02  0.25500000000E-02 0. -1.
          2   -1    0    0  501    0  0.00000000000E+00 -0.00000000000E+00 -0.92069668948E+03  0.92069668949E+03  0.25500000000E-02 0.  1.
    5000001    1    1    2    0    0  0.56033465449E+02 -0.19477166220E+03 -0.54075066391E+03  0.59128337552E+03  0.12700000000E+03 0.  0.
   -5000001    1    1    2    0    0 -0.56033465449E+02  0.19477166220E+03 -0.31435825126E+03  0.39500108833E+03  0.12700000000E+03 0.  0.
<mgrwt>
<rscale>  0 0.49147308E+03</rscale>
<asrwt>0</asrwt>
<pdfrwt beam="1">  1        2 0.13152809E+00 0.49147308E+03</pdfrwt>
<pdfrwt beam="2">  1       -2 0.93696826E-02 0.49147308E+03</pdfrwt>
<totfact> 0.24050691E+03</totfact>
</mgrwt>
</event>
<event>
 4    1  0.1399921E-004  0.4535012E+03  0.7818608E-02  0.1026683E+00
          2   -1    0    0  501    0  0.00000000000E+00  0.00000000000E+00  0.83925081488E+03  0.83925081488E+03  0.25500000000E-02 0.  1.
         -2   -1    0    0    0  501 -0.00000000000E+00 -0.00000000000E+00 -0.61263957766E+02  0.61263957819E+02  0.25500000000E-02 0. -1.
    5000001    1    1    2    0    0  0.18776567713E+03  0.26901494734E+00  0.37797244376E+03  0.44073596418E+03  0.12700000000E+03 0.  0.
   -5000001    1    1    2    0    0 -0.18776567713E+03 -0.26901494734E+00  0.40001441335E+03  0.45977880852E+03  0.12700000000E+03 0.  0.
<mgrwt>
<rscale>  0 0.45350116E+03</rscale>
<asrwt>0</asrwt>
<pdfrwt beam="1">  1        2 0.11989297E+00 0.45350116E+03</pdfrwt>
<pdfrwt beam="2">  1       -2 0.87519940E-02 0.45350116E+03</pdfrwt>
<totfact> 0.30280455E+03</totfact>
</mgrwt>
</event>
<event>
 4    1  0.1399921E-004  0.4725006E+03  0.7818608E-02  0.1021217E+00
         -2   -1    0    0    0  501 -0.00000000000E+00  0.00000000000E+00  0.68983044381E+02  0.68983044429E+02  0.25500000000E-02 0. -1.
          2   -1    0    0  501    0  0.00000000000E+00 -0.00000000000E+00 -0.80910033092E+03  0.80910033092E+03  0.25500000000E-02 0.  1.
    5000001    1    1    2    0    0  0.16827415349E+03 -0.10025692975E+03 -0.30260291791E+03  0.38218473102E+03  0.12700000000E+03 0.  0.
   -5000001    1    1    2    0    0 -0.16827415349E+03  0.10025692975E+03 -0.43751436862E+03  0.49589864433E+03  0.12700000000E+03 0.  0.
<mgrwt>
<rscale>  0 0.47250060E+03</rscale>
<asrwt>0</asrwt>
<pdfrwt beam="1">  1        2 0.11558576E+00 0.47250060E+03</pdfrwt>
<pdfrwt beam="2">  1       -2 0.98547211E-02 0.47250060E+03</pdfrwt>
<totfact> 0.26245238E+03</totfact>
</mgrwt>
</event>
<event>
 4    1  0.1399921E-004  0.3625050E+03  0.7818608E-02  0.1057596E+00
         -2   -1    0    0    0  501 -0.00000000000E+00  0.00000000000E+00  0.27612013893E+02  0.27612014010E+02  0.25500000000E-02 0. -1.
          2   -1    0    0  501    0  0.00000000000E+00 -0.00000000000E+00 -0.11897886525E+04  0.11897886525E+04  0.25500000000E-02 0.  1.
    5000001    1    1    2    0    0 -0.15704760104E+02  0.63176141319E+02 -0.95634137283E+03  0.96693106565E+03  0.12700000000E+03 0.  0.
   -5000001    1    1    2    0    0  0.15704760104E+02 -0.63176141319E+02 -0.20583526578E+03  0.25046960087E+03  0.12700000000E+03 0.  0.
<mgrwt>
<rscale>  0 0.36250496E+03</rscale>
<asrwt>0</asrwt>
<pdfrwt beam="1">  1        2 0.16996978E+00 0.36250496E+03</pdfrwt>
<pdfrwt beam="2">  1       -2 0.39445742E-02 0.36250496E+03</pdfrwt>
<totfact> 0.64051141E+03</totfact>
</mgrwt>
</event>
<event>
 4    1  0.1399921E-004  0.3281176E+03  0.7818608E-02  0.1071973E+00
         -2   -1    0    0    0  501 -0.00000000000E+00  0.00000000000E+00  0.32507792889E+02  0.32507792989E+02  0.25500000000E-02 0. -1.
          2   -1    0    0  501    0  0.00000000000E+00 -0.00000000000E+00 -0.82796444827E+03  0.82796444827E+03  0.25500000000E-02 0.  1.
    5000001    1    1    2    0    0 -0.83257741852E+02  0.44009377238E+02 -0.51256710385E+03  0.53639790530E+03  0.12700000000E+03 0.  0.
   -5000001    1    1    2    0    0  0.83257741852E+02 -0.44009377238E+02 -0.28288955153E+03  0.32407433596E+03  0.12700000000E+03 0.  0.
<mgrwt>
<rscale>  0 0.32811764E+03</rscale>
<asrwt>0</asrwt>
<pdfrwt beam="1">  1        2 0.11828062E+00 0.32811764E+03</pdfrwt>
<pdfrwt beam="2">  1       -2 0.46439709E-02 0.32811764E+03</pdfrwt>
<totfact> 0.82082162E+03</totfact>
</mgrwt>
</event>
<event>
 4    1  0.1399921E-004  0.2807501E+03  0.7818608E-02  0.1095280E+00
          2   -1    0    0  501    0  0.00000000000E+00  0.00000000000E+00  0.89379830832E+03  0.89379830832E+03  0.25500000000E-02 0.  1.
         -2   -1    0    0    0  501 -0.00000000000E+00 -0.00000000000E+00 -0.22046538250E+02  0.22046538397E+02  0.25500000000E-02 0. -1.
    5000001    1    1    2    0    0 -0.29646599397E+02 -0.46290112410E+02  0.51268952481E+03  0.53103789339E+03  0.12700000000E+03 0.  0.
   -5000001    1    1    2    0    0  0.29646599397E+02  0.46290112410E+02  0.35906224525E+03  0.38480695333E+03  0.12700000000E+03 0.  0.
<mgrwt>
<rscale>  0 0.28075013E+03</rscale>
<asrwt>0</asrwt>
<pdfrwt beam="1">  1        2 0.12768547E+00 0.28075013E+03</pdfrwt>
<pdfrwt beam="2">  1       -2 0.31495056E-02 0.28075013E+03</pdfrwt>
<totfact> 0.13291360E+04</totfact>
</mgrwt>
</event>
<event>
 4    1  0.1399921E-004  0.3194884E+03  0.7818608E-02  0.1075885E+00
          2   -1    0    0  501    0  0.00000000000E+00  0.00000000000E+00  0.64171884486E+03  0.64171884486E+03  0.25500000000E-02 0.  1.
         -2   -1    0    0    0  501 -0.00000000000E+00 -0.00000000000E+00 -0.39765403745E+02  0.39765403827E+02  0.25500000000E-02 0. -1.
    5000001    1    1    2    0    0 -0.14799169047E+02  0.92075431172E+02  0.35710097453E+03  0.39031654646E+03  0.12700000000E+03 0.  0.
   -5000001    1    1    2    0    0  0.14799169047E+02 -0.92075431172E+02  0.24485246658E+03  0.29116770223E+03  0.12700000000E+03 0.  0.
<mgrwt>
<rscale>  0 0.31948840E+03</rscale>
<asrwt>0</asrwt>
<pdfrwt beam="1">  1        2 0.91674120E-01 0.31948840E+03</pdfrwt>
<pdfrwt beam="2">  1       -2 0.56807720E-02 0.31948840E+03</pdfrwt>
<totfact> 0.82063436E+03</totfact>
</mgrwt>
</event>
<event>
 4    1  0.1399921E-004  0.6999674E+03  0.7818608E-02  0.9717288E-01
          2   -1    0    0  501    0  0.00000000000E+00  0.00000000000E+00  0.12548331803E+04  0.12548331803E+04  0.25500000000E-02 0.  1.
         -2   -1    0    0    0  501 -0.00000000000E+00 -0.00000000000E+00 -0.97613438995E+02  0.97613439028E+02  0.25500000000E-02 0. -1.
    5000001    1    1    2    0    0  0.20033568697E+03 -0.14344047974E+03  0.16578786872E+03  0.32299253260E+03  0.12700000000E+03 0.  0.
   -5000001    1    1    2    0    0 -0.20033568697E+03  0.14344047974E+03  0.99143187259E+03  0.10294540867E+04  0.12700000000E+03 0.  0.
<mgrwt>
<rscale>  0 0.69996738E+03</rscale>
<asrwt>0</asrwt>
<pdfrwt beam="1">  1        2 0.17926187E+00 0.69996738E+03</pdfrwt>
<pdfrwt beam="2">  1       -2 0.13944778E-01 0.69996738E+03</pdfrwt>
<totfact> 0.79413358E+02</totfact>
</mgrwt>
</event>
<event>
 4    1  0.1399921E-004  0.4069788E+03  0.7818608E-02  0.1041390E+00
          2   -1    0    0  501    0  0.00000000000E+00  0.00000000000E+00  0.11467418100E+04  0.11467418100E+04  0.25500000000E-02 0.  1.
         -2   -1    0    0    0  501 -0.00000000000E+00 -0.00000000000E+00 -0.36109205926E+02  0.36109206016E+02  0.25500000000E-02 0. -1.
    5000001    1    1    2    0    0  0.69972321618E+02 -0.10869761375E+03  0.82433895000E+03  0.84402310484E+03  0.12700000000E+03 0.  0.
   -5000001    1    1    2    0    0 -0.69972321618E+02  0.10869761375E+03  0.28629365407E+03  0.33882791117E+03  0.12700000000E+03 0.  0.
<mgrwt>
<rscale>  0 0.40697880E+03</rscale>
<asrwt>0</asrwt>
<pdfrwt beam="1">  1        2 0.16382030E+00 0.40697880E+03</pdfrwt>
<pdfrwt beam="2">  1       -2 0.51584567E-02 0.40697880E+03</pdfrwt>
<totfact> 0.45001792E+03</totfact>
</mgrwt>
</event>
<event>
 4    1  0.1399921E-004  0.6150922E+03  0.7818608E-02  0.9874580E-01
          2   -1    0    0  501    0  0.00000000000E+00  0.00000000000E+00  0.11983744561E+04  0.11983744561E+04  0.25500000000E-02 0.  1.
         -2   -1    0    0    0  501 -0.00000000000E+00 -0.00000000000E+00 -0.78927418801E+02  0.78927418842E+02  0.25500000000E-02 0. -1.
    5000001    1    1    2    0    0 -0.13728464770E+03  0.17285824302E+03  0.20167635382E+03  0.32485288726E+03  0.12700000000E+03 0.  0.
   -5000001    1    1    2    0    0  0.13728464770E+03 -0.17285824302E+03  0.91777068348E+03  0.95244898768E+03  0.12700000000E+03 0.  0.
<mgrwt>
<rscale>  0 0.61509220E+03</rscale>
<asrwt>0</asrwt>
<pdfrwt beam="1">  1        2 0.17119636E+00 0.61509220E+03</pdfrwt>
<pdfrwt beam="2">  1       -2 0.11275345E-01 0.61509220E+03</pdfrwt>
<totfact> 0.12174786E+03</totfact>
</mgrwt>
</event>
<event>
 4    1  0.1399921E-004  0.3835323E+03  0.7818608E-02  0.1049636E+00
         -2   -1    0    0    0  501 -0.00000000000E+00  0.00000000000E+00  0.19811684508E+03  0.19811684510E+03  0.25500000000E-02 0. -1.
          2   -1    0    0  501    0  0.00000000000E+00 -0.00000000000E+00 -0.18561904273E+03  0.18561904275E+03  0.25500000000E-02 0.  1.
    5000001    1    1    2    0    0 -0.57202797879E+02 -0.13156735469E+03 -0.17007697864E+01  0.19160903299E+03  0.12700000000E+03 0.  0.
   -5000001    1    1    2    0    0  0.57202797879E+02  0.13156735469E+03  0.14198572133E+02  0.19212685486E+03  0.12700000000E+03 0.  0.
<mgrwt>
<rscale>  0 0.38353231E+03</rscale>
<asrwt>0</asrwt>
<pdfrwt beam="1">  1        2 0.26517006E-01 0.38353231E+03</pdfrwt>
<pdfrwt beam="2">  1       -2 0.28302406E-01 0.38353231E+03</pdfrwt>
<totfact> 0.23049118E+03</totfact>
</mgrwt>
</event>
<event>
 4    1  0.1399921E-004  0.4781476E+03  0.7818608E-02  0.1019646E+00
         -2   -1    0    0    0  501 -0.00000000000E+00  0.00000000000E+00  0.85622232203E+02  0.85622232241E+02  0.25500000000E-02 0. -1.
          2   -1    0    0  501    0  0.00000000000E+00 -0.00000000000E+00 -0.66754018734E+03  0.66754018734E+03  0.25500000000E-02 0.  1.
    5000001    1    1    2    0    0  0.15292633482E+03  0.12905334825E+03 -0.24149646038E+03  0.33836484887E+03  0.12700000000E+03 0.  0.
   -5000001    1    1    2    0    0 -0.15292633482E+03 -0.12905334825E+03 -0.34042149475E+03  0.41479757071E+03  0.12700000000E+03 0.  0.
<mgrwt>
<rscale>  0 0.47814760E+03</rscale>
<asrwt>0</asrwt>
<pdfrwt beam="1">  1        2 0.95362881E-01 0.47814760E+03</pdfrwt>
<pdfrwt beam="2">  1       -2 0.12231748E-01 0.47814760E+03</pdfrwt>
<totfact> 0.23417559E+03</totfact>
</mgrwt>
</event>
<event>
 4    1  0.1399921E-004  0.6424625E+03  0.7818608E-02  0.9821027E-01
          2   -1    0    0  501    0  0.00000000000E+00  0.00000000000E+00  0.42239132596E+04  0.42239132596E+04  0.25500000000E-02 0.  1.
         -2   -1    0    0    0  501 -0.00000000000E+00 -0.00000000000E+00 -0.24429834896E+02  0.24429835029E+02  0.25500000000E-02 0. -1.
    5000001    1    1    2    0    0  0.12357784616E+03  0.54928822698E+02  0.38338537801E+04  0.38383398061E+04  0.12700000000E+03 0.  0.
   -5000001    1    1    2    0    0 -0.12357784616E+03 -0.54928822698E+02  0.36562964465E+03  0.41000328861E+03  0.12700000000E+03 0.  0.
<mgrwt>
<rscale>  0 0.64246246E+03</rscale>
<asrwt>0</asrwt>
<pdfrwt beam="1">  1        2 0.60341589E+00 0.64246246E+03</pdfrwt>
<pdfrwt beam="2">  1       -2 0.34899781E-02 0.64246246E+03</pdfrwt>
<totfact> 0.15842506E+02</totfact>
</mgrwt>
</event>
<event>
 4    1  0.1399921E-004  0.6279328E+03  0.7818608E-02  0.9849091E-01
         -2   -1    0    0    0  501 -0.00000000000E+00  0.00000000000E+00  0.11879755008E+03  0.11879755011E+03  0.25500000000E-02 0. -1.
          2   -1    0    0  501    0  0.00000000000E+00 -0.00000000000E+00 -0.82977227237E+03  0.82977227238E+03  0.25500000000E-02 0.  1.
    5000001    1    1    2    0    0  0.20043428737E+03 -0.19870527052E+03 -0.27572095671E+03  0.41449817135E+03  0.12700000000E+03 0.  0.
   -5000001    1    1    2    0    0 -0.20043428737E+03  0.19870527052E+03 -0.43525376559E+03  0.53407165113E+03  0.12700000000E+03 0.  0.
<mgrwt>
<rscale>  0 0.62793284E+03</rscale>
<asrwt>0</asrwt>
<pdfrwt beam="1">  1        2 0.11853889E+00 0.62793284E+03</pdfrwt>
<pdfrwt beam="2">  1       -2 0.16971079E-01 0.62793284E+03</pdfrwt>
<totfact> 0.10317313E+03</totfact>
</mgrwt>
</event>
<event>
 4    1  0.1399921E-004  0.3878927E+03  0.7818608E-02  0.1048055E+00
         -2   -1    0    0    0  501 -0.00000000000E+00  0.00000000000E+00  0.12450297769E+02  0.12450298030E+02  0.25500000000E-02 0. -1.
          2   -1    0    0  501    0  0.00000000000E+00 -0.00000000000E+00 -0.30212285302E+04  0.30212285302E+04  0.25500000000E-02 0.  1.
    5000001    1    1    2    0    0  0.72823070603E+02  0.12654473654E+03 -0.14025892900E+04  0.14158751663E+04  0.12700000000E+03 0.  0.
   -5000001    1    1    2    0    0 -0.72823070603E+02 -0.12654473654E+03 -0.16061889424E+04  0.16178036619E+04  0.12700000000E+03 0.  0.
<mgrwt>
<rscale>  0 0.38789274E+03</rscale>
<asrwt>0</asrwt>
<pdfrwt beam="1">  1        2 0.43160361E+00 0.38789274E+03</pdfrwt>
<pdfrwt beam="2">  1       -2 0.17786159E-02 0.38789274E+03</pdfrwt>
<totfact> 0.24599913E+03</totfact>
</mgrwt>
</event>
<event>
 4    1  0.1399921E-004  0.2859192E+03  0.7818608E-02  0.1092499E+00
          2   -1    0    0  501    0  0.00000000000E+00  0.00000000000E+00  0.18667232287E+04  0.18667232287E+04  0.25500000000E-02 0.  1.
         -2   -1    0    0    0  501 -0.00000000000E+00 -0.00000000000E+00 -0.10948301489E+02  0.10948301786E+02  0.25500000000E-02 0. -1.
    5000001    1    1    2    0    0  0.56978592959E+02  0.19295709541E+01  0.71426194998E+03  0.72770146111E+03  0.12700000000E+03 0.  0.
   -5000001    1    1    2    0    0 -0.56978592959E+02 -0.19295709541E+01  0.11415129773E+04  0.11499700694E+04  0.12700000000E+03 0.  0.
<mgrwt>
<rscale>  0 0.28591921E+03</rscale>
<asrwt>0</asrwt>
<pdfrwt beam="1">  1        2 0.26667478E+00 0.28591921E+03</pdfrwt>
<pdfrwt beam="2">  1       -2 0.15640429E-02 0.28591921E+03</pdfrwt>
<totfact> 0.11397325E+04</totfact>
</mgrwt>
</event>
<event>
 4    1  0.1399921E-004  0.4683956E+03  0.7818608E-02  0.1022374E+00
         -2   -1    0    0    0  501 -0.00000000000E+00  0.00000000000E+00  0.55695660363E+02  0.55695660421E+02  0.25500000000E-02 0. -1.
          2   -1    0    0  501    0  0.00000000000E+00 -0.00000000000E+00 -0.98479133106E+03  0.98479133107E+03  0.25500000000E-02 0.  1.
    5000001    1    1    2    0    0 -0.19179604385E+03  0.32325165887E+02 -0.53077957189E+03  0.57938466732E+03  0.12700000000E+03 0.  0.
   -5000001    1    1    2    0    0  0.19179604385E+03 -0.32325165887E+02 -0.39831609881E+03  0.46110232417E+03  0.12700000000E+03 0.  0.
<mgrwt>
<rscale>  0 0.46839557E+03</rscale>
<asrwt>0</asrwt>
<pdfrwt beam="1">  1        2 0.14068447E+00 0.46839557E+03</pdfrwt>
<pdfrwt beam="2">  1       -2 0.79565235E-02 0.46839557E+03</pdfrwt>
<totfact> 0.28478778E+03</totfact>
</mgrwt>
</event>
<event>
 4    1  0.1399921E-004  0.3967704E+03  0.7818608E-02  0.1044904E+00
          2   -1    0    0  501    0  0.00000000000E+00  0.00000000000E+00  0.32412323938E+03  0.32412323939E+03  0.25500000000E-02 0.  1.
         -2   -1    0    0    0  501 -0.00000000000E+00 -0.00000000000E+00 -0.12142509151E+03  0.12142509154E+03  0.25500000000E-02 0. -1.
    5000001    1    1    2    0    0 -0.85406962401E+02  0.11860173364E+03  0.14986949981E+03  0.24484809050E+03  0.12700000000E+03 0.  0.
   -5000001    1    1    2    0    0  0.85406962401E+02 -0.11860173364E+03  0.52828648064E+02  0.20070024042E+03  0.12700000000E+03 0.  0.
<mgrwt>
<rscale>  0 0.39677043E+03</rscale>
<asrwt>0</asrwt>
<pdfrwt beam="1">  1        2 0.46303320E-01 0.39677043E+03</pdfrwt>
<pdfrwt beam="2">  1       -2 0.17346442E-01 0.39677043E+03</pdfrwt>
<totfact> 0.29416692E+03</totfact>
</mgrwt>
</event>
<event>
 4    1  0.1399921E-004  0.4499758E+03  0.7818608E-02  0.1027729E+00
          2   -1    0    0  501    0  0.00000000000E+00  0.00000000000E+00  0.66100488217E+03  0.66100488218E+03  0.25500000000E-02 0.  1.
         -2   -1    0    0    0  501 -0.00000000000E+00 -0.00000000000E+00 -0.76579689325E+02  0.76579689368E+02  0.25500000000E-02 0. -1.
    5000001    1    1    2    0    0 -0.12576368216E+03  0.12920882876E+03  0.21929050321E+03  0.31101245952E+03  0.12700000000E+03 0.  0.
   -5000001    1    1    2    0    0  0.12576368216E+03 -0.12920882876E+03  0.36513468964E+03  0.42657211202E+03  0.12700000000E+03 0.  0.
<mgrwt>
<rscale>  0 0.44997577E+03</rscale>
<asrwt>0</asrwt>
<pdfrwt beam="1">  1        2 0.94429263E-01 0.44997577E+03</pdfrwt>
<pdfrwt beam="2">  1       -2 0.10939956E-01 0.44997577E+03</pdfrwt>
<totfact> 0.28411876E+03</totfact>
</mgrwt>
</event>
<event>
 4    1  0.1399921E-004  0.6229650E+03  0.7818608E-02  0.9858874E-01
         -2   -1    0    0    0  501 -0.00000000000E+00  0.00000000000E+00  0.22362248960E+03  0.22362248962E+03  0.25500000000E-02 0. -1.
          2   -1    0    0  501    0  0.00000000000E+00 -0.00000000000E+00 -0.43386215638E+03  0.43386215639E+03  0.25500000000E-02 0.  1.
    5000001    1    1    2    0    0 -0.82885164166E+02 -0.23516476861E+03  0.39282413741E+02  0.28256773854E+03  0.12700000000E+03 0.  0.
   -5000001    1    1    2    0    0  0.82885164166E+02  0.23516476861E+03 -0.24952208052E+03  0.37491690746E+03  0.12700000000E+03 0.  0.
<mgrwt>
<rscale>  0 0.62296496E+03</rscale>
<asrwt>0</asrwt>
<pdfrwt beam="1">  1        2 0.61980308E-01 0.62296496E+03</pdfrwt>
<pdfrwt beam="2">  1       -2 0.31946070E-01 0.62296496E+03</pdfrwt>
<totfact> 0.72228578E+02</totfact>
</mgrwt>
</event>
<event>
 4    1  0.1399921E-004  0.3443638E+03  0.7818608E-02  0.1064952E+00
         -2   -1    0    0    0  501 -0.00000000000E+00  0.00000000000E+00  0.81602904163E+02  0.81602904203E+02  0.25500000000E-02 0. -1.
          2   -1    0    0  501    0  0.00000000000E+00 -0.00000000000E+00 -0.36330329838E+03  0.36330329839E+03  0.25500000000E-02 0.  1.
    5000001    1    1    2    0    0  0.42935958466E+02 -0.98712475158E+01 -0.27985914047E+03  0.31046912336E+03  0.12700000000E+03 0.  0.
   -5000001    1    1    2    0    0 -0.42935958466E+02  0.98712475158E+01 -0.18412537500E+01  0.13443707923E+03  0.12700000000E+03 0.  0.
<mgrwt>
<rscale>  0 0.34436379E+03</rscale>
<asrwt>0</asrwt>
<pdfrwt beam="1">  1        2 0.51900470E-01 0.34436379E+03</pdfrwt>
<pdfrwt beam="2">  1       -2 0.11657558E-01 0.34436379E+03</pdfrwt>
<totfact> 0.50015905E+03</totfact>
</mgrwt>
</event>
<event>
 4    1  0.1399921E-004  0.3652676E+03  0.7818608E-02  0.1056517E+00
         -2   -1    0    0    0  501 -0.00000000000E+00  0.00000000000E+00  0.11780482292E+02  0.11780482568E+02  0.25500000000E-02 0. -1.
          2   -1    0    0  501    0  0.00000000000E+00 -0.00000000000E+00 -0.28313875786E+04  0.28313875786E+04  0.25500000000E-02 0.  1.
    5000001    1    1    2    0    0 -0.10769569116E+03  0.74162776858E+02 -0.14977405322E+04  0.15087922922E+04  0.12700000000E+03 0.  0.
   -5000001    1    1    2    0    0  0.10769569116E+03 -0.74162776858E+02 -0.13218665642E+04  0.13343757690E+04  0.12700000000E+03 0.  0.
<mgrwt>
<rscale>  0 0.36526764E+03</rscale>
<asrwt>0</asrwt>
<pdfrwt beam="1">  1        2 0.40448351E+00 0.36526764E+03</pdfrwt>
<pdfrwt beam="2">  1       -2 0.16829279E-02 0.36526764E+03</pdfrwt>
<totfact> 0.33717834E+03</totfact>
</mgrwt>
</event>
<event>
 4    1  0.1399921E-004  0.4076083E+03  0.7818608E-02  0.1041177E+00
         -2   -1    0    0    0  501 -0.00000000000E+00  0.00000000000E+00  0.30089698823E+03  0.30089698825E+03  0.25500000000E-02 0. -1.
          2   -1    0    0  501    0  0.00000000000E+00 -0.00000000000E+00 -0.13804104294E+03  0.13804104296E+03  0.25500000000E-02 0.  1.
    5000001    1    1    2    0    0  0.38080355367E+02 -0.15439526823E+03  0.69674783127E+02  0.21510831625E+03  0.12700000000E+03 0.  0.
   -5000001    1    1    2    0    0 -0.38080355367E+02  0.15439526823E+03  0.93181162167E+02  0.22382971496E+03  0.12700000000E+03 0.  0.
<mgrwt>
<rscale>  0 0.40760831E+03</rscale>
<asrwt>0</asrwt>
<pdfrwt beam="1">  1        2 0.19720149E-01 0.40760831E+03</pdfrwt>
<pdfrwt beam="2">  1       -2 0.42985284E-01 0.40760831E+03</pdfrwt>
<totfact> 0.14744716E+03</totfact>
</mgrwt>
</event>
<event>
 4    1  0.1399921E-004  0.4919859E+03  0.7818608E-02  0.1015892E+00
          2   -1    0    0  501    0  0.00000000000E+00  0.00000000000E+00  0.97262072319E+03  0.97262072320E+03  0.25500000000E-02 0.  1.
         -2   -1    0    0    0  501 -0.00000000000E+00 -0.00000000000E+00 -0.62215968168E+02  0.62215968221E+02  0.25500000000E-02 0. -1.
    5000001    1    1    2    0    0  0.16842890054E+03  0.11250662546E+03  0.33332378093E+03  0.41019480524E+03  0.12700000000E+03 0.  0.
   -5000001    1    1    2    0    0 -0.16842890054E+03 -0.11250662546E+03  0.57708097410E+03  0.62464188618E+03  0.12700000000E+03 0.  0.
<mgrwt>
<rscale>  0 0.49198593E+03</rscale>
<asrwt>0</asrwt>
<pdfrwt beam="1">  1        2 0.13894582E+00 0.49198593E+03</pdfrwt>
<pdfrwt beam="2">  1       -2 0.88879954E-02 0.49198593E+03</pdfrwt>
<totfact> 0.24294421E+03</totfact>
</mgrwt>
</event>
<event>
 4    1  0.1399921E-004  0.2898020E+03  0.7818608E-02  0.1090453E+00
          2   -1    0    0  501    0  0.00000000000E+00  0.00000000000E+00  0.21009809190E+03  0.21009809191E+03  0.25500000000E-02 0.  1.
         -2   -1    0    0    0  501 -0.00000000000E+00 -0.00000000000E+00 -0.99935719183E+02  0.99935719215E+02  0.25500000000E-02 0. -1.
    5000001    1    1    2    0    0 -0.39564483258E+02  0.55371145207E+02  0.38646699343E+02  0.14917734220E+03  0.12700000000E+03 0.  0.
   -5000001    1    1    2    0    0  0.39564483258E+02 -0.55371145207E+02  0.71515673373E+02  0.16085646893E+03  0.12700000000E+03 0.  0.
<mgrwt>
<rscale>  0 0.28980203E+03</rscale>
<asrwt>0</asrwt>
<pdfrwt beam="1">  1        2 0.30014013E-01 0.28980203E+03</pdfrwt>
<pdfrwt beam="2">  1       -2 0.14276531E-01 0.28980203E+03</pdfrwt>
<totfact> 0.64807279E+03</totfact>
</mgrwt>
</event>
<event>
 4    1  0.1399921E-004  0.4143235E+03  0.7818608E-02  0.1038930E+00
          2   -1    0    0  501    0  0.00000000000E+00  0.00000000000E+00  0.61236215976E+03  0.61236215976E+03  0.25500000000E-02 0.  1.
         -2   -1    0    0    0  501 -0.00000000000E+00 -0.00000000000E+00 -0.70082707324E+02  0.70082707370E+02  0.25500000000E-02 0. -1.
    5000001    1    1    2    0    0  0.15185634773E+03  0.39730000331E+02  0.34748159251E+03  0.40188466058E+03  0.12700000000E+03 0.  0.
   -5000001    1    1    2    0    0 -0.15185634773E+03 -0.39730000331E+02  0.19479785992E+03  0.28056020655E+03  0.12700000000E+03 0.  0.
<mgrwt>
<rscale>  0 0.41432354E+03</rscale>
<asrwt>0</asrwt>
<pdfrwt beam="1">  1        2 0.87480308E-01 0.41432354E+03</pdfrwt>
<pdfrwt beam="2">  1       -2 0.10011815E-01 0.41432354E+03</pdfrwt>
<totfact> 0.35838827E+03</totfact>
</mgrwt>
</event>
<event>
 4    1  0.1399921E-004  0.5743343E+03  0.7818608E-02  0.9960133E-01
         -2   -1    0    0    0  501 -0.00000000000E+00  0.00000000000E+00  0.28616164598E+03  0.28616164599E+03  0.25500000000E-02 0. -1.
          2   -1    0    0  501    0  0.00000000000E+00 -0.00000000000E+00 -0.28817623068E+03  0.28817623069E+03  0.25500000000E-02 0.  1.
    5000001    1    1    2    0    0  0.13158928371E+03  0.17431319472E+03 -0.13751877301E+03  0.28764777484E+03  0.12700000000E+03 0.  0.
   -5000001    1    1    2    0    0 -0.13158928371E+03 -0.17431319472E+03  0.13550418832E+03  0.28669010184E+03  0.12700000000E+03 0.  0.
<mgrwt>
<rscale>  0 0.57433434E+03</rscale>
<asrwt>0</asrwt>
<pdfrwt beam="1">  1        2 0.41168033E-01 0.57433434E+03</pdfrwt>
<pdfrwt beam="2">  1       -2 0.40880235E-01 0.57433434E+03</pdfrwt>
<totfact> 0.71059964E+02</totfact>
</mgrwt>
</event>
<event>
 4    1  0.1399921E-004  0.3514152E+03  0.7818608E-02  0.1062036E+00
         -2   -1    0    0    0  501 -0.00000000000E+00  0.00000000000E+00  0.85254705031E+01  0.85254708845E+01  0.25500000000E-02 0. -1.
          2   -1    0    0  501    0  0.00000000000E+00 -0.00000000000E+00 -0.36212844100E+04  0.36212844100E+04  0.25500000000E-02 0.  1.
    5000001    1    1    2    0    0  0.30579684760E+02 -0.11207731033E+03 -0.21712349050E+04  0.21780464764E+04  0.12700000000E+03 0.  0.
   -5000001    1    1    2    0    0 -0.30579684760E+02  0.11207731033E+03 -0.14415240345E+04  0.14517634045E+04  0.12700000000E+03 0.  0.
<mgrwt>
<rscale>  0 0.35141516E+03</rscale>
<asrwt>0</asrwt>
<pdfrwt beam="1">  1        2 0.51732536E+00 0.35141516E+03</pdfrwt>
<pdfrwt beam="2">  1       -2 0.12179267E-02 0.35141516E+03</pdfrwt>
<totfact> 0.19732593E+03</totfact>
</mgrwt>
</event>
<event>
 4    1  0.1399921E-004  0.6169083E+03  0.7818608E-02  0.9870935E-01
         -2   -1    0    0    0  501 -0.00000000000E+00  0.00000000000E+00  0.13477780314E+03  0.13477780316E+03  0.25500000000E-02 0. -1.
          2   -1    0    0  501    0  0.00000000000E+00 -0.00000000000E+00 -0.70593189675E+03  0.70593189676E+03  0.25500000000E-02 0.  1.
    5000001    1    1    2    0    0 -0.14504118075E+03  0.40427441305E+02  0.37903283298E+02  0.20059157761E+03  0.12700000000E+03 0.  0.
   -5000001    1    1    2    0    0  0.14504118075E+03 -0.40427441305E+02 -0.60905737692E+03  0.64011812230E+03  0.12700000000E+03 0.  0.
<mgrwt>
<rscale>  0 0.61690826E+03</rscale>
<asrwt>0</asrwt>
<pdfrwt beam="1">  1        2 0.10084741E+00 0.61690826E+03</pdfrwt>
<pdfrwt beam="2">  1       -2 0.19253972E-01 0.61690826E+03</pdfrwt>
<totfact> 0.10182238E+03</totfact>
</mgrwt>
</event>
<event>
 4    1  0.1399921E-004  0.4430496E+03  0.7818608E-02  0.1029815E+00
          2   -1    0    0  501    0  0.00000000000E+00  0.00000000000E+00  0.12388278498E+04  0.12388278498E+04  0.25500000000E-02 0.  1.
         -2   -1    0    0    0  501 -0.00000000000E+00 -0.00000000000E+00 -0.39612636378E+02  0.39612636460E+02  0.25500000000E-02 0. -1.
    5000001    1    1    2    0    0  0.11275258157E+03  0.67815852046E+02  0.96038296508E+03  0.97763826339E+03  0.12700000000E+03 0.  0.
   -5000001    1    1    2    0    0 -0.11275258157E+03 -0.67815852046E+02  0.23883224839E+03  0.30080222291E+03  0.12700000000E+03 0.  0.
<mgrwt>
<rscale>  0 0.44304960E+03</rscale>
<asrwt>0</asrwt>
<pdfrwt beam="1">  1        2 0.17697534E+00 0.44304960E+03</pdfrwt>
<pdfrwt beam="2">  1       -2 0.56589502E-02 0.44304960E+03</pdfrwt>
<totfact> 0.34696508E+03</totfact>
</mgrwt>
</event>
<event>
 4    1  0.1399921E-004  0.3850202E+03  0.7818608E-02  0.1049094E+00
         -2   -1    0    0    0  501 -0.00000000000E+00  0.00000000000E+00  0.34510918515E+02  0.34510918610E+02  0.25500000000E-02 0. -1.
          2   -1    0    0  501    0  0.00000000000E+00 -0.00000000000E+00 -0.10738669364E+04  0.10738669364E+04  0.25500000000E-02 0.  1.
    5000001    1    1    2    0    0 -0.55219625787E+02  0.89928924020E+02 -0.23477287689E+03  0.28702564724E+03  0.12700000000E+03 0.  0.
   -5000001    1    1    2    0    0  0.55219625787E+02 -0.89928924020E+02 -0.80458314095E+03  0.82135220773E+03  0.12700000000E+03 0.  0.
<mgrwt>
<rscale>  0 0.38502018E+03</rscale>
<asrwt>0</asrwt>
<pdfrwt beam="1">  1        2 0.15340954E+00 0.38502018E+03</pdfrwt>
<pdfrwt beam="2">  1       -2 0.49301319E-02 0.38502018E+03</pdfrwt>
<totfact> 0.53049002E+03</totfact>
</mgrwt>
</event>
<event>
 4    1  0.1399921E-004  0.4272078E+03  0.7818608E-02  0.1034746E+00
          2   -1    0    0  501    0  0.00000000000E+00  0.00000000000E+00  0.11586367407E+03  0.11586367410E+03  0.25500000000E-02 0.  1.
         -2   -1    0    0    0  501 -0.00000000000E+00 -0.00000000000E+00 -0.39379574057E+03  0.39379574058E+03  0.25500000000E-02 0. -1.
    5000001    1    1    2    0    0  0.15894921894E+03 -0.21580128199E+02 -0.21218818199E+03  0.29475986958E+03  0.12700000000E+03 0.  0.
   -5000001    1    1    2    0    0 -0.15894921894E+03  0.21580128199E+02 -0.65743884507E+02  0.21489954510E+03  0.12700000000E+03 0.  0.
<mgrwt>
<rscale>  0 0.42720778E+03</rscale>
<asrwt>0</asrwt>
<pdfrwt beam="1">  1        2 0.16551954E-01 0.42720778E+03</pdfrwt>
<pdfrwt beam="2">  1       -2 0.56256534E-01 0.42720778E+03</pdfrwt>
<totfact> 0.10559923E+03</totfact>
</mgrwt>
</event>
<event>
 4    1  0.1399921E-004  0.3881312E+03  0.7818608E-02  0.1047969E+00
         -2   -1    0    0    0  501 -0.00000000000E+00  0.00000000000E+00  0.48251252466E+02  0.48251252533E+02  0.25500000000E-02 0. -1.
          2   -1    0    0  501    0  0.00000000000E+00 -0.00000000000E+00 -0.78052793409E+03  0.78052793410E+03  0.25500000000E-02 0.  1.
    5000001    1    1    2    0    0  0.12650802228E+03  0.73888846038E+02 -0.38382522710E+03  0.43001703016E+03  0.12700000000E+03 0.  0.
   -5000001    1    1    2    0    0 -0.12650802228E+03 -0.73888846038E+02 -0.34845145453E+03  0.39876215647E+03  0.12700000000E+03 0.  0.
<mgrwt>
<rscale>  0 0.38813117E+03</rscale>
<asrwt>0</asrwt>
<pdfrwt beam="1">  1        2 0.11150398E+00 0.38813117E+03</pdfrwt>
<pdfrwt beam="2">  1       -2 0.68930366E-02 0.38813117E+03</pdfrwt>
<totfact> 0.48277622E+03</totfact>
</mgrwt>
</event>
<event>
 4    1  0.1399921E-004  0.3361177E+03  0.7818608E-02  0.1068462E+00
         -2   -1    0    0    0  501 -0.00000000000E+00  0.00000000000E+00  0.27057291084E+03  0.27057291085E+03  0.25500000000E-02 0. -1.
          2   -1    0    0  501    0  0.00000000000E+00 -0.00000000000E+00 -0.10438508389E+03  0.10438508392E+03  0.25500000000E-02 0.  1.
    5000001    1    1    2    0    0  0.23875987545E+02  0.10121884696E+03  0.12330746287E+03  0.20530233355E+03  0.12700000000E+03 0.  0.
   -5000001    1    1    2    0    0 -0.23875987545E+02 -0.10121884696E+03  0.42880364081E+02  0.16965566122E+03  0.12700000000E+03 0.  0.
<mgrwt>
<rscale>  0 0.33611769E+03</rscale>
<asrwt>0</asrwt>
<pdfrwt beam="1">  1        2 0.14912155E-01 0.33611769E+03</pdfrwt>
<pdfrwt beam="2">  1       -2 0.38653273E-01 0.33611769E+03</pdfrwt>
<totfact> 0.25069352E+03</totfact>
</mgrwt>
</event>
<event>
 4    1  0.1399921E-004  0.4857109E+03  0.7818608E-02  0.1017577E+00
          2   -1    0    0  501    0  0.00000000000E+00  0.00000000000E+00  0.33379299691E+03  0.33379299692E+03  0.25500000000E-02 0.  1.
         -2   -1    0    0    0  501 -0.00000000000E+00 -0.00000000000E+00 -0.17669262580E+03  0.17669262581E+03  0.25500000000E-02 0. -1.
    5000001    1    1    2    0    0 -0.14681859163E+02 -0.20453063879E+03  0.48796805964E+02  0.24608630085E+03  0.12700000000E+03 0.  0.
   -5000001    1    1    2    0    0  0.14681859163E+02  0.20453063879E+03  0.10830356515E+03  0.26439932189E+03  0.12700000000E+03 0.  0.
<mgrwt>
<rscale>  0 0.48571087E+03</rscale>
<asrwt>0</asrwt>
<pdfrwt beam="1">  1        2 0.47684713E-01 0.48571087E+03</pdfrwt>
<pdfrwt beam="2">  1       -2 0.25241804E-01 0.48571087E+03</pdfrwt>
<totfact> 0.14860647E+03</totfact>
</mgrwt>
</event>
<event>
 4    1  0.1399921E-004  0.4917910E+03  0.7818608E-02  0.1015944E+00
          2   -1    0    0  501    0  0.00000000000E+00  0.00000000000E+00  0.38096344156E+02  0.38096344242E+02  0.25500000000E-02 0.  1.
         -2   -1    0    0    0  501 -0.00000000000E+00 -0.00000000000E+00 -0.15871495748E+04  0.15871495748E+04  0.25500000000E-02 0. -1.
    5000001    1    1    2    0    0 -0.69465540612E+02 -0.11000047108E+03 -0.13216600774E+04  0.13341064145E+04  0.12700000000E+03 0.  0.
   -5000001    1    1    2    0    0  0.69465540612E+02  0.11000047108E+03 -0.22739315322E+03  0.29113950454E+03  0.12700000000E+03 0.  0.
<mgrwt>
<rscale>  0 0.49179100E+03</rscale>
<asrwt>0</asrwt>
<pdfrwt beam="1">  1        2 0.54423359E-02 0.49179100E+03</pdfrwt>
<pdfrwt beam="2">  1       -2 0.22673561E+00 0.49179100E+03</pdfrwt>
<totfact> 0.13712560E+02</totfact>
</mgrwt>
</event>
<event>
 4    1  0.1399921E-004  0.3696387E+03  0.7818608E-02  0.1054831E+00
         -2   -1    0    0    0  501 -0.00000000000E+00  0.00000000000E+00  0.17859761548E+02  0.17859761730E+02  0.25500000000E-02 0. -1.
          2   -1    0    0  501    0  0.00000000000E+00 -0.00000000000E+00 -0.19125785323E+04  0.19125785323E+04  0.25500000000E-02 0.  1.
    5000001    1    1    2    0    0  0.59859747916E+02 -0.11862882642E+03 -0.10482508472E+04  0.10642437815E+04  0.12700000000E+03 0.  0.
   -5000001    1    1    2    0    0 -0.59859747916E+02  0.11862882642E+03 -0.84646792360E+03  0.86619451255E+03  0.12700000000E+03 0.  0.
<mgrwt>
<rscale>  0 0.36963872E+03</rscale>
<asrwt>0</asrwt>
<pdfrwt beam="1">  1        2 0.27322538E+00 0.36963872E+03</pdfrwt>
<pdfrwt beam="2">  1       -2 0.25513957E-02 0.36963872E+03</pdfrwt>
<totfact> 0.52595380E+03</totfact>
</mgrwt>
</event>
<event>
 4    1  0.1399921E-004  0.4546782E+03  0.7818608E-02  0.1026336E+00
         -2   -1    0    0    0  501 -0.00000000000E+00  0.00000000000E+00  0.31874067778E+02  0.31874067880E+02  0.25500000000E-02 0. -1.
          2   -1    0    0  501    0  0.00000000000E+00 -0.00000000000E+00 -0.16214766710E+04  0.16214766710E+04  0.25500000000E-02 0.  1.
    5000001    1    1    2    0    0  0.15809249083E+03 -0.25406624450E+02 -0.43271309464E+03  0.47854817364E+03  0.12700000000E+03 0.  0.
   -5000001    1    1    2    0    0 -0.15809249083E+03  0.25406624450E+02 -0.11568895085E+04  0.11748025652E+04  0.12700000000E+03 0.  0.
<mgrwt>
<rscale>  0 0.45467816E+03</rscale>
<asrwt>0</asrwt>
<pdfrwt beam="1">  1        2 0.23163947E+00 0.45467816E+03</pdfrwt>
<pdfrwt beam="2">  1       -2 0.45534393E-02 0.45467816E+03</pdfrwt>
<totfact> 0.30577999E+03</totfact>
</mgrwt>
</event>
<event>
 4    1  0.1399921E-004  0.3156465E+03  0.7818608E-02  0.1077671E+00
         -2   -1    0    0    0  501 -0.00000000000E+00  0.00000000000E+00  0.43448596891E+02  0.43448596965E+02  0.25500000000E-02 0. -1.
          2   -1    0    0  501    0  0.00000000000E+00 -0.00000000000E+00 -0.57327912885E+03  0.57327912886E+03  0.25500000000E-02 0.  1.
    5000001    1    1    2    0    0  0.42155736497E+02 -0.81811184740E+02 -0.29926079259E+03  0.33787009049E+03  0.12700000000E+03 0.  0.
   -5000001    1    1    2    0    0 -0.42155736497E+02  0.81811184740E+02 -0.23056973937E+03  0.27885763533E+03  0.12700000000E+03 0.  0.
<mgrwt>
<rscale>  0 0.31564647E+03</rscale>
<asrwt>0</asrwt>
<pdfrwt beam="1">  1        2 0.81897014E-01 0.31564647E+03</pdfrwt>
<pdfrwt beam="2">  1       -2 0.62069428E-02 0.31564647E+03</pdfrwt>
<totfact> 0.81500823E+03</totfact>
</mgrwt>
</event>
<event>
 4    1  0.1399921E-004  0.7010079E+03  0.7818608E-02  0.9715510E-01
         -2   -1    0    0    0  501 -0.00000000000E+00  0.00000000000E+00  0.34820965092E+03  0.34820965093E+03  0.25500000000E-02 0. -1.
          2   -1    0    0  501    0  0.00000000000E+00 -0.00000000000E+00 -0.35281333351E+03  0.35281333352E+03  0.25500000000E-02 0.  1.
    5000001    1    1    2    0    0 -0.17863014866E+03  0.14015566134E+03  0.23258972469E+03  0.34896893765E+03  0.12700000000E+03 0.  0.
   -5000001    1    1    2    0    0  0.17863014866E+03 -0.14015566134E+03 -0.23719340727E+03  0.35205404680E+03  0.12700000000E+03 0.  0.
<mgrwt>
<rscale>  0 0.70100787E+03</rscale>
<asrwt>0</asrwt>
<pdfrwt beam="1">  1        2 0.50401905E-01 0.70100787E+03</pdfrwt>
<pdfrwt beam="2">  1       -2 0.49744236E-01 0.70100787E+03</pdfrwt>
<totfact> 0.38369059E+02</totfact>
</mgrwt>
</event>
<event>
 4    1  0.1399921E-004  0.6433032E+03  0.7818608E-02  0.9819427E-01
         -2   -1    0    0    0  501 -0.00000000000E+00  0.00000000000E+00  0.31998491429E+02  0.31998491531E+02  0.25500000000E-02 0. -1.
          2   -1    0    0  501    0  0.00000000000E+00 -0.00000000000E+00 -0.32332700751E+04  0.32332700751E+04  0.25500000000E-02 0.  1.
    5000001    1    1    2    0    0 -0.20087543173E+02 -0.23174975358E+03 -0.25257566101E+04  0.25396233798E+04  0.12700000000E+03 0.  0.
   -5000001    1    1    2    0    0  0.20087543173E+02  0.23174975358E+03 -0.67551497355E+03  0.72564518683E+03  0.12700000000E+03 0.  0.
<mgrwt>
<rscale>  0 0.64330324E+03</rscale>
<asrwt>0</asrwt>
<pdfrwt beam="1">  1        2 0.46189552E+00 0.64330324E+03</pdfrwt>
<pdfrwt beam="2">  1       -2 0.45712151E-02 0.64330324E+03</pdfrwt>
<totfact> 0.43959751E+02</totfact>
</mgrwt>
</event>
<event>
 4    1  0.1399921E-004  0.7670582E+03  0.7818608E-02  0.9608962E-01
          2   -1    0    0  501    0  0.00000000000E+00  0.00000000000E+00  0.24991156332E+04  0.24991156332E+04  0.25500000000E-02 0.  1.
         -2   -1    0    0    0  501 -0.00000000000E+00 -0.00000000000E+00 -0.58858643195E+02  0.58858643250E+02  0.25500000000E-02 0. -1.
    5000001    1    1    2    0    0 -0.11011615898E+03  0.34312569987E+03  0.13309689050E+04  0.13847267024E+04  0.12700000000E+03 0.  0.
   -5000001    1    1    2    0    0  0.11011615898E+03 -0.34312569987E+03  0.11092880850E+04  0.11732475740E+04  0.12700000000E+03 0.  0.
<mgrwt>
<rscale>  0 0.76705816E+03</rscale>
<asrwt>0</asrwt>
<pdfrwt beam="1">  1        2 0.35701659E+00 0.76705816E+03</pdfrwt>
<pdfrwt beam="2">  1       -2 0.84083759E-02 0.76705816E+03</pdfrwt>
<totfact> 0.41338408E+02</totfact>
</mgrwt>
</event>
<event>
 4    1  0.1399921E-004  0.7574610E+03  0.7818608E-02  0.9623717E-01
         -2   -1    0    0    0  501 -0.00000000000E+00  0.00000000000E+00  0.62704208893E+02  0.62704208945E+02  0.25500000000E-02 0. -1.
          2   -1    0    0  501    0  0.00000000000E+00 -0.00000000000E+00 -0.22875147711E+04  0.22875147711E+04  0.25500000000E-02 0.  1.
    5000001    1    1    2    0    0  0.30790401511E+03  0.14454178686E+03 -0.77807536251E+03  0.85861952017E+03  0.12700000000E+03 0.  0.
   -5000001    1    1    2    0    0 -0.30790401511E+03 -0.14454178686E+03 -0.14467351997E+04  0.14915994599E+04  0.12700000000E+03 0.  0.
<mgrwt>
<rscale>  0 0.75746103E+03</rscale>
<asrwt>0</asrwt>
<pdfrwt beam="1">  1        2 0.32678777E+00 0.75746103E+03</pdfrwt>
<pdfrwt beam="2">  1       -2 0.89577455E-02 0.75746103E+03</pdfrwt>
<totfact> 0.47967715E+02</totfact>
</mgrwt>
</event>
<event>
 4    1  0.1399921E-004  0.4892625E+03  0.7818608E-02  0.1016620E+00
          2   -1    0    0  501    0  0.00000000000E+00  0.00000000000E+00  0.18368526852E+04  0.18368526852E+04  0.25500000000E-02 0.  1.
         -2   -1    0    0    0  501 -0.00000000000E+00 -0.00000000000E+00 -0.32579879293E+02  0.32579879393E+02  0.25500000000E-02 0. -1.
    5000001    1    1    2    0    0 -0.13377459352E+03  0.12725157362E+03  0.12770314044E+04  0.12965441808E+04  0.12700000000E+03 0.  0.
   -5000001    1    1    2    0    0  0.13377459352E+03 -0.12725157362E+03  0.52724140150E+03  0.57288838382E+03  0.12700000000E+03 0.  0.
<mgrwt>
<rscale>  0 0.48926246E+03</rscale>
<asrwt>0</asrwt>
<pdfrwt beam="1">  1        2 0.26240755E+00 0.48926246E+03</pdfrwt>
<pdfrwt beam="2">  1       -2 0.46542680E-02 0.48926246E+03</pdfrwt>
<totfact> 0.23016905E+03</totfact>
</mgrwt>
</event>
<event>
 4    1  0.1399921E-004  0.2651279E+03  0.7818608E-02  0.1104101E+00
          2   -1    0    0  501    0  0.00000000000E+00  0.00000000000E+00  0.26143211085E+04  0.26143211085E+04  0.25500000000E-02 0.  1.
         -2   -1    0    0    0  501 -0.00000000000E+00 -0.00000000000E+00 -0.67218965123E+01  0.67218969960E+01  0.25500000000E-02 0. -1.
    5000001    1    1    2    0    0 -0.50874835166E+01  0.29354031060E+02  0.15370443171E+04  0.15425698604E+04  0.12700000000E+03 0.  0.
   -5000001    1    1    2    0    0  0.50874835166E+01 -0.29354031060E+02  0.10705548949E+04  0.10784731451E+04  0.12700000000E+03 0.  0.
<mgrwt>
<rscale>  0 0.26512787E+03</rscale>
<asrwt>0</asrwt>
<pdfrwt beam="1">  1        2 0.37347425E+00 0.26512787E+03</pdfrwt>
<pdfrwt beam="2">  1       -2 0.96027147E-03 0.26512787E+03</pdfrwt>
<totfact> 0.99323979E+03</totfact>
</mgrwt>
</event>
<event>
 4    1  0.1399921E-004  0.3718688E+03  0.7818608E-02  0.1053981E+00
         -2   -1    0    0    0  501 -0.00000000000E+00  0.00000000000E+00  0.36834400920E+02  0.36834401008E+02  0.25500000000E-02 0. -1.
          2   -1    0    0  501    0  0.00000000000E+00 -0.00000000000E+00 -0.93856817068E+03  0.93856817068E+03  0.25500000000E-02 0.  1.
    5000001    1    1    2    0    0  0.12700812315E+03  0.30729080782E+02 -0.54785515100E+03  0.57736436176E+03  0.12700000000E+03 0.  0.
   -5000001    1    1    2    0    0 -0.12700812315E+03 -0.30729080782E+02 -0.35387861875E+03  0.39803820993E+03  0.12700000000E+03 0.  0.
<mgrwt>
<rscale>  0 0.37186877E+03</rscale>
<asrwt>0</asrwt>
<pdfrwt beam="1">  1        2 0.13408115E+00 0.37186877E+03</pdfrwt>
<pdfrwt beam="2">  1       -2 0.52620578E-02 0.37186877E+03</pdfrwt>
<totfact> 0.57781887E+03</totfact>
</mgrwt>
</event>
<event>
 4    1  0.1399921E-004  0.5036807E+03  0.7818608E-02  0.1012823E+00
          2   -1    0    0  501    0  0.00000000000E+00  0.00000000000E+00  0.12402478133E+04  0.12402478133E+04  0.25500000000E-02 0.  1.
         -2   -1    0    0    0  501 -0.00000000000E+00 -0.00000000000E+00 -0.51137819197E+02  0.51137819260E+02  0.25500000000E-02 0. -1.
    5000001    1    1    2    0    0 -0.14404139793E+03  0.40052513484E+02  0.18963419468E+03  0.27284108185E+03  0.12700000000E+03 0.  0.
   -5000001    1    1    2    0    0  0.14404139793E+03 -0.40052513484E+02  0.99947579943E+03  0.10185445507E+04  0.12700000000E+03 0.  0.
<mgrwt>
<rscale>  0 0.50368073E+03</rscale>
<asrwt>0</asrwt>
<pdfrwt beam="1">  1        2 0.17717824E+00 0.50368073E+03</pdfrwt>
<pdfrwt beam="2">  1       -2 0.73054037E-02 0.50368073E+03</pdfrwt>
<totfact> 0.23228471E+03</totfact>
</mgrwt>
</event>
<event>
 4    1  0.1399921E-004  0.6410362E+03  0.7818608E-02  0.9823746E-01
          2   -1    0    0  501    0  0.00000000000E+00  0.00000000000E+00  0.59775651151E+02  0.59775651206E+02  0.25500000000E-02 0. -1.
         -2   -1    0    0    0  501 -0.00000000000E+00 -0.00000000000E+00 -0.17186239003E+04  0.17186239003E+04  0.25500000000E-02 0.  1.
    5000001    1    1    2    0    0  0.58957028800E+02 -0.26656160886E+03 -0.11342371364E+04  0.11735220084E+04  0.12700000000E+03 0.  0.
   -5000001    1    1    2    0    0 -0.58957028800E+02  0.26656160886E+03 -0.52461111275E+03  0.60487754313E+03  0.12700000000E+03 0.  0.
<mgrwt>
<rscale>  0 0.64103623E+03</rscale>
<asrwt>0</asrwt>
<pdfrwt beam="1">  1        2 0.85393798E-02 0.64103623E+03</pdfrwt>
<pdfrwt beam="2">  1       -2 0.24551767E+00 0.64103623E+03</pdfrwt>
<totfact> 0.57717536E+01</totfact>
</mgrwt>
</event>
<event>
 4    1  0.1399921E-004  0.4425191E+03  0.7818608E-02  0.1029977E+00
         -2   -1    0    0    0  501 -0.00000000000E+00  0.00000000000E+00  0.53885521428E+02  0.53885521488E+02  0.25500000000E-02 0. -1.
          2   -1    0    0  501    0  0.00000000000E+00 -0.00000000000E+00 -0.90851470665E+03  0.90851470666E+03  0.25500000000E-02 0.  1.
    5000001    1    1    2    0    0 -0.13576302491E+03  0.99292686944E+02 -0.57379093958E+03  0.61127381668E+03  0.12700000000E+03 0.  0.
   -5000001    1    1    2    0    0  0.13576302491E+03 -0.99292686944E+02 -0.28083824564E+03  0.35112641146E+03  0.12700000000E+03 0.  0.
<mgrwt>
<rscale>  0 0.44251910E+03</rscale>
<asrwt>0</asrwt>
<pdfrwt beam="1">  1        2 0.12978781E+00 0.44251910E+03</pdfrwt>
<pdfrwt beam="2">  1       -2 0.76979322E-02 0.44251910E+03</pdfrwt>
<totfact> 0.33453824E+03</totfact>
</mgrwt>
</event>
<event>
 4    1  0.1399921E-004  0.3596388E+03  0.7818608E-02  0.1058727E+00
          2   -1    0    0  501    0  0.00000000000E+00  0.00000000000E+00  0.72211399213E+03  0.72211399213E+03  0.25500000000E-02 0.  1.
         -2   -1    0    0    0  501 -0.00000000000E+00 -0.00000000000E+00 -0.44778271004E+02  0.44778271077E+02  0.25500000000E-02 0. -1.
    5000001    1    1    2    0    0  0.12344456306E+03  0.29223769875E+02  0.31595737555E+03  0.36338774338E+03  0.12700000000E+03 0.  0.
   -5000001    1    1    2    0    0 -0.12344456306E+03 -0.29223769875E+02  0.36137834557E+03  0.40350451983E+03  0.12700000000E+03 0.  0.
<mgrwt>
<rscale>  0 0.35963880E+03</rscale>
<asrwt>0</asrwt>
<pdfrwt beam="1">  1        2 0.10315914E+00 0.35963880E+03</pdfrwt>
<pdfrwt beam="2">  1       -2 0.63968957E-02 0.35963880E+03</pdfrwt>
<totfact> 0.59573848E+03</totfact>
</mgrwt>
</event>
<event>
 4    1  0.1399921E-004  0.3950767E+03  0.7818608E-02  0.1045498E+00
          2   -1    0    0  501    0  0.00000000000E+00  0.00000000000E+00  0.18087694226E+04  0.18087694226E+04  0.25500000000E-02 0.  1.
         -2   -1    0    0    0  501 -0.00000000000E+00 -0.00000000000E+00 -0.21573448795E+02  0.21573448946E+02  0.25500000000E-02 0. -1.
    5000001    1    1    2    0    0  0.13062181355E+03  0.63434623116E+02  0.69669321966E+03  0.72290832884E+03  0.12700000000E+03 0.  0.
   -5000001    1    1    2    0    0 -0.13062181355E+03 -0.63434623116E+02  0.10905027542E+04  0.11074345427E+04  0.12700000000E+03 0.  0.
<mgrwt>
<rscale>  0 0.39507667E+03</rscale>
<asrwt>0</asrwt>
<pdfrwt beam="1">  1        2 0.25839569E+00 0.39507667E+03</pdfrwt>
<pdfrwt beam="2">  1       -2 0.30819205E-02 0.39507667E+03</pdfrwt>
<totfact> 0.44595379E+03</totfact>
</mgrwt>
</event>
<event>
 4    1  0.1399921E-004  0.6103572E+03  0.7818608E-02  0.9884148E-01
          2   -1    0    0  501    0  0.00000000000E+00  0.00000000000E+00  0.14365157612E+04  0.14365157613E+04  0.25500000000E-02 0.  1.
         -2   -1    0    0    0  501 -0.00000000000E+00 -0.00000000000E+00 -0.64833238298E+02  0.64833238348E+02  0.25500000000E-02 0. -1.
    5000001    1    1    2    0    0  0.48143784483E+02  0.12573827853E+03  0.88983898802E+02  0.20536570531E+03  0.12700000000E+03 0.  0.
   -5000001    1    1    2    0    0 -0.48143784483E+02 -0.12573827853E+03  0.12826986241E+04  0.12959832943E+04  0.12700000000E+03 0.  0.
<mgrwt>
<rscale>  0 0.61035717E+03</rscale>
<asrwt>0</asrwt>
<pdfrwt beam="1">  1        2 0.20521655E+00 0.61035717E+03</pdfrwt>
<pdfrwt beam="2">  1       -2 0.92618904E-02 0.61035717E+03</pdfrwt>
<totfact> 0.12447642E+03</totfact>
</mgrwt>
</event>
<event>
 4    1  0.1399921E-004  0.6574123E+03  0.7818608E-02  0.9792969E-01
         -2   -1    0    0    0  501 -0.00000000000E+00  0.00000000000E+00  0.10683118533E+03  0.10683118536E+03  0.25500000000E-02 0. -1.
          2   -1    0    0  501    0  0.00000000000E+00 -0.00000000000E+00 -0.10113874396E+04  0.10113874396E+04  0.25500000000E-02 0.  1.
    5000001    1    1    2    0    0  0.53626980388E+02 -0.29617080542E+03 -0.51421008775E+03  0.60920769311E+03  0.12700000000E+03 0.  0.
   -5000001    1    1    2    0    0 -0.53626980388E+02  0.29617080542E+03 -0.39034616650E+03  0.50901093182E+03  0.12700000000E+03 0.  0.
<mgrwt>
<rscale>  0 0.65741226E+03</rscale>
<asrwt>0</asrwt>
<pdfrwt beam="1">  1        2 0.14448391E+00 0.65741226E+03</pdfrwt>
<pdfrwt beam="2">  1       -2 0.15261598E-01 0.65741226E+03</pdfrwt>
<totfact> 0.94467395E+02</totfact>
</mgrwt>
</event>
<event>
 4    1  0.1399921E-004  0.4187652E+03  0.7818608E-02  0.1037469E+00
          2   -1    0    0  501    0  0.00000000000E+00  0.00000000000E+00  0.33171706347E+03  0.33171706348E+03  0.25500000000E-02 0.  1.
         -2   -1    0    0    0  501 -0.00000000000E+00 -0.00000000000E+00 -0.13216407992E+03  0.13216407995E+03  0.25500000000E-02 0. -1.
    5000001    1    1    2    0    0 -0.13103887358E+03  0.27710296410E+02  0.20928573917E+03  0.27904939981E+03  0.12700000000E+03 0.  0.
   -5000001    1    1    2    0    0  0.13103887358E+03 -0.27710296410E+02 -0.97327556203E+01  0.18483174362E+03  0.12700000000E+03 0.  0.
<mgrwt>
<rscale>  0 0.41876523E+03</rscale>
<asrwt>0</asrwt>
<pdfrwt beam="1">  1        2 0.47388151E-01 0.41876523E+03</pdfrwt>
<pdfrwt beam="2">  1       -2 0.18880583E-01 0.41876523E+03</pdfrwt>
<totfact> 0.24846535E+03</totfact>
</mgrwt>
</event>
<event>
 4    1  0.1399921E-004  0.4723926E+03  0.7818608E-02  0.1021247E+00
         -2   -1    0    0    0  501 -0.00000000000E+00  0.00000000000E+00  0.82501296832E+02  0.82501296871E+02  0.25500000000E-02 0. -1.
          2   -1    0    0  501    0  0.00000000000E+00 -0.00000000000E+00 -0.67621596149E+03  0.67621596150E+03  0.25500000000E-02 0.  1.
    5000001    1    1    2    0    0  0.26908107919E+02 -0.19704401639E+03 -0.31364897319E+03  0.39249849560E+03  0.12700000000E+03 0.  0.
   -5000001    1    1    2    0    0 -0.26908107919E+02  0.19704401639E+03 -0.28006569148E+03  0.36621876277E+03  0.12700000000E+03 0.  0.
<mgrwt>
<rscale>  0 0.47239261E+03</rscale>
<asrwt>0</asrwt>
<pdfrwt beam="1">  1        2 0.96602277E-01 0.47239261E+03</pdfrwt>
<pdfrwt beam="2">  1       -2 0.11785900E-01 0.47239261E+03</pdfrwt>
<totfact> 0.24501040E+03</totfact>
</mgrwt>
</event>
<event>
 4    1  0.1399921E-004  0.3122291E+03  0.7818608E-02  0.1079282E+00
         -2   -1    0    0    0  501 -0.00000000000E+00  0.00000000000E+00  0.18247182193E+04  0.18247182193E+04  0.25500000000E-02 0. -1.
          2   -1    0    0  501    0  0.00000000000E+00 -0.00000000000E+00 -0.13356447183E+02  0.13356447426E+02  0.25500000000E-02 0.  1.
    5000001    1    1    2    0    0  0.62052050909E+02  0.44616253791E+02  0.11941822369E+04  0.12033458697E+04  0.12700000000E+03 0.  0.
   -5000001    1    1    2    0    0 -0.62052050909E+02 -0.44616253791E+02  0.61717953522E+03  0.63472879706E+03  0.12700000000E+03 0.  0.
<mgrwt>
<rscale>  0 0.31222910E+03</rscale>
<asrwt>0</asrwt>
<pdfrwt beam="1">  1        2 0.19080642E-02 0.31222910E+03</pdfrwt>
<pdfrwt beam="2">  1       -2 0.26067400E+00 0.31222910E+03</pdfrwt>
<totfact> 0.36328618E+02</totfact>
</mgrwt>
</event>
<event>
 4    1  0.1399921E-004  0.4579753E+03  0.7818608E-02  0.1025370E+00
         -2   -1    0    0    0  501 -0.00000000000E+00  0.00000000000E+00  0.44721374297E+02  0.44721374370E+02  0.25500000000E-02 0. -1.
          2   -1    0    0  501    0  0.00000000000E+00 -0.00000000000E+00 -0.11724893890E+04  0.11724893890E+04  0.25500000000E-02 0.  1.
    5000001    1    1    2    0    0  0.15134608469E+03 -0.87069984944E+02 -0.76663698296E+03  0.79645971855E+03  0.12700000000E+03 0.  0.
   -5000001    1    1    2    0    0 -0.15134608469E+03  0.87069984944E+02 -0.36113103171E+03  0.42075104479E+03  0.12700000000E+03 0.  0.
<mgrwt>
<rscale>  0 0.45797527E+03</rscale>
<asrwt>0</asrwt>
<pdfrwt beam="1">  1        2 0.16749847E+00 0.45797527E+03</pdfrwt>
<pdfrwt beam="2">  1       -2 0.63887685E-02 0.45797527E+03</pdfrwt>
<totfact> 0.31266498E+03</totfact>
</mgrwt>
</event>
<event>
 4    1  0.1399921E-004  0.4138712E+03  0.7818608E-02  0.1039080E+00
          2   -1    0    0  501    0  0.00000000000E+00  0.00000000000E+00  0.62203119753E+02  0.62203119805E+02  0.25500000000E-02 0.  1.
         -2   -1    0    0    0  501 -0.00000000000E+00 -0.00000000000E+00 -0.68842763153E+03  0.68842763153E+03  0.25500000000E-02 0. -1.
    5000001    1    1    2    0    0 -0.28495634192E+02  0.12081503826E+03 -0.12044261432E+03  0.21457795316E+03  0.12700000000E+03 0.  0.
   -5000001    1    1    2    0    0  0.28495634192E+02 -0.12081503826E+03 -0.50578189746E+03  0.53605279818E+03  0.12700000000E+03 0.  0.
<mgrwt>
<rscale>  0 0.41387122E+03</rscale>
<asrwt>0</asrwt>
<pdfrwt beam="1">  1        2 0.88861604E-02 0.41387122E+03</pdfrwt>
<pdfrwt beam="2">  1       -2 0.98346800E-01 0.41387122E+03</pdfrwt>
<totfact> 0.66788358E+02</totfact>
</mgrwt>
</event>
<event>
 4    1  0.1399921E-004  0.4378324E+03  0.7818608E-02  0.1031414E+00
          2   -1    0    0  501    0  0.00000000000E+00  0.00000000000E+00  0.13232581314E+04  0.13232581314E+04  0.25500000000E-02 0.  1.
         -2   -1    0    0    0  501 -0.00000000000E+00 -0.00000000000E+00 -0.36216890391E+02  0.36216890480E+02  0.25500000000E-02 0. -1.
    5000001    1    1    2    0    0 -0.15226393403E+03 -0.28728941901E+02  0.36954592765E+03  0.42036038152E+03  0.12700000000E+03 0.  0.
   -5000001    1    1    2    0    0  0.15226393403E+03  0.28728941901E+02  0.91749531337E+03  0.93911464037E+03  0.12700000000E+03 0.  0.
<mgrwt>
<rscale>  0 0.43783236E+03</rscale>
<asrwt>0</asrwt>
<pdfrwt beam="1">  1        2 0.18903686E+00 0.43783236E+03</pdfrwt>
<pdfrwt beam="2">  1       -2 0.51738420E-02 0.43783236E+03</pdfrwt>
<totfact> 0.35877468E+03</totfact>
</mgrwt>
</event>
<event>
 4    1  0.1399921E-004  0.2961835E+03  0.7818608E-02  0.1087164E+00
          2   -1    0    0  501    0  0.00000000000E+00  0.00000000000E+00  0.17097189294E+04  0.17097189294E+04  0.25500000000E-02 0.  1.
         -2   -1    0    0    0  501 -0.00000000000E+00 -0.00000000000E+00 -0.12827354158E+02  0.12827354411E+02  0.25500000000E-02 0. -1.
    5000001    1    1    2    0    0  0.28789001009E+02  0.63266620874E+02  0.66724829322E+03  0.68277430876E+03  0.12700000000E+03 0.  0.
   -5000001    1    1    2    0    0 -0.28789001009E+02 -0.63266620874E+02  0.10296432820E+04  0.10397719751E+04  0.12700000000E+03 0.  0.
<mgrwt>
<rscale>  0 0.29618353E+03</rscale>
<asrwt>0</asrwt>
<pdfrwt beam="1">  1        2 0.24424569E+00 0.29618353E+03</pdfrwt>
<pdfrwt beam="2">  1       -2 0.18324782E-02 0.29618353E+03</pdfrwt>
<totfact> 0.10795528E+04</totfact>
</mgrwt>
</event>
<event>
 4    1  0.1399921E-004  0.3595940E+03  0.7818608E-02  0.1058745E+00
          2   -1    0    0  501    0  0.00000000000E+00  0.00000000000E+00  0.22305507204E+04  0.22305507204E+04  0.25500000000E-02 0.  1.
         -2   -1    0    0    0  501 -0.00000000000E+00 -0.00000000000E+00 -0.14492812749E+02  0.14492812974E+02  0.25500000000E-02 0. -1.
    5000001    1    1    2    0    0 -0.11619635750E+03  0.48466898257E+02  0.99167596221E+03  0.10076710017E+04  0.12700000000E+03 0.  0.
   -5000001    1    1    2    0    0  0.11619635750E+03 -0.48466898257E+02  0.12243819454E+04  0.12373725316E+04  0.12700000000E+03 0.  0.
<mgrwt>
<rscale>  0 0.35959396E+03</rscale>
<asrwt>0</asrwt>
<pdfrwt beam="1">  1        2 0.31865010E+00 0.35959396E+03</pdfrwt>
<pdfrwt beam="2">  1       -2 0.20704019E-02 0.35959396E+03</pdfrwt>
<totfact> 0.50020041E+03</totfact>
</mgrwt>
</event>
<event>
 4    1  0.1399921E-004  0.5754106E+03  0.7818608E-02  0.9957777E-01
         -2   -1    0    0    0  501 -0.00000000000E+00  0.00000000000E+00  0.51446334584E+02  0.51446334647E+02  0.25500000000E-02 0. -1.
          2   -1    0    0  501    0  0.00000000000E+00 -0.00000000000E+00 -0.16089455746E+04  0.16089455746E+04  0.25500000000E-02 0.  1.
    5000001    1    1    2    0    0  0.21856009367E+03  0.10374006694E+03 -0.10386893125E+04  0.10740274689E+04  0.12700000000E+03 0.  0.
   -5000001    1    1    2    0    0 -0.21856009367E+03 -0.10374006694E+03 -0.51880992759E+03  0.58636444042E+03  0.12700000000E+03 0.  0.
<mgrwt>
<rscale>  0 0.57541064E+03</rscale>
<asrwt>0</asrwt>
<pdfrwt beam="1">  1        2 0.22984934E+00 0.57541064E+03</pdfrwt>
<pdfrwt beam="2">  1       -2 0.73494774E-02 0.57541064E+03</pdfrwt>
<totfact> 0.14671802E+03</totfact>
</mgrwt>
</event>
<event>
 4    1  0.1399921E-004  0.4687770E+03  0.7818608E-02  0.1022266E+00
         -2   -1    0    0    0  501 -0.00000000000E+00  0.00000000000E+00  0.22491291370E+02  0.22491291514E+02  0.25500000000E-02 0. -1.
          2   -1    0    0  501    0  0.00000000000E+00 -0.00000000000E+00 -0.24426327960E+04  0.24426327960E+04  0.25500000000E-02 0.  1.
    5000001    1    1    2    0    0  0.18151734190E+03 -0.83290702222E+01 -0.16102467686E+04  0.16254358107E+04  0.12700000000E+03 0.  0.
   -5000001    1    1    2    0    0 -0.18151734190E+03  0.83290702222E+01 -0.80989473602E+03  0.83968827684E+03  0.12700000000E+03 0.  0.
<mgrwt>
<rscale>  0 0.46877699E+03</rscale>
<asrwt>0</asrwt>
<pdfrwt beam="1">  1        2 0.34894737E+00 0.46877699E+03</pdfrwt>
<pdfrwt beam="2">  1       -2 0.32130432E-02 0.46877699E+03</pdfrwt>
<totfact> 0.20180912E+03</totfact>
</mgrwt>
</event>
<event>
 4    1  0.1399921E-004  0.3684046E+03  0.7818608E-02  0.1055305E+00
          2   -1    0    0  501    0  0.00000000000E+00  0.00000000000E+00  0.15412847269E+04  0.15412847269E+04  0.25500000000E-02 0. -1.
         -2   -1    0    0    0  501 -0.00000000000E+00 -0.00000000000E+00 -0.22014418275E+02  0.22014418423E+02  0.25500000000E-02 0.  1.
    5000001    1    1    2    0    0  0.95598064488E+02  0.88299970707E+02  0.88448232003E+03  0.90298053645E+03  0.12700000000E+03 0.  0.
   -5000001    1    1    2    0    0 -0.95598064488E+02 -0.88299970707E+02  0.63478798855E+03  0.66031860883E+03  0.12700000000E+03 0.  0.
<mgrwt>
<rscale>  0 0.36840460E+03</rscale>
<asrwt>0</asrwt>
<pdfrwt beam="1">  1        2 0.22018352E+00 0.36840460E+03</pdfrwt>
<pdfrwt beam="2">  1       -2 0.31449170E-02 0.36840460E+03</pdfrwt>
<totfact> 0.58899924E+03</totfact>
</mgrwt>
</event>
<event>
 4    1  0.1399921E-004  0.3744994E+03  0.7818608E-02  0.1052986E+00
          2   -1    0    0  501    0  0.00000000000E+00  0.00000000000E+00  0.31594498581E+04  0.31594498581E+04  0.25500000000E-02 0.  1.
         -2   -1    0    0    0  501 -0.00000000000E+00 -0.00000000000E+00 -0.11097644494E+02  0.11097644787E+02  0.25500000000E-02 0. -1.
    5000001    1    1    2    0    0 -0.94130932551E+02  0.99348747210E+02  0.16946940970E+04  0.17049480603E+04  0.12700000000E+03 0.  0.
   -5000001    1    1    2    0    0  0.94130932551E+02 -0.99348747210E+02  0.14536581167E+04  0.14655994426E+04  0.12700000000E+03 0.  0.
<mgrwt>
<rscale>  0 0.37449941E+03</rscale>
<asrwt>0</asrwt>
<pdfrwt beam="1">  1        2 0.45135033E+00 0.37449941E+03</pdfrwt>
<pdfrwt beam="2">  1       -2 0.15853766E-02 0.37449941E+03</pdfrwt>
<totfact> 0.24557583E+03</totfact>
</mgrwt>
</event>
<event>
 4    1  0.1399921E-004  0.3688435E+03  0.7818608E-02  0.1055136E+00
          2   -1    0    0  501    0  0.00000000000E+00  0.00000000000E+00  0.33491600061E+02  0.33491600158E+02  0.25500000000E-02 0.  1.
         -2   -1    0    0    0  501 -0.00000000000E+00 -0.00000000000E+00 -0.10155194905E+04  0.10155194905E+04  0.25500000000E-02 0. -1.
    5000001    1    1    2    0    0  0.81472134066E+01 -0.13343830615E+03 -0.48192450954E+03  0.51599650341E+03  0.12700000000E+03 0.  0.
   -5000001    1    1    2    0    0 -0.81472134066E+01  0.13343830615E+03 -0.50010338088E+03  0.53301458723E+03  0.12700000000E+03 0.  0.
<mgrwt>
<rscale>  0 0.36884345E+03</rscale>
<asrwt>0</asrwt>
<pdfrwt beam="1">  1        2 0.47845149E-02 0.36884345E+03</pdfrwt>
<pdfrwt beam="2">  1       -2 0.14507419E+00 0.36884345E+03</pdfrwt>
<totfact> 0.57947689E+02</totfact>
</mgrwt>
</event>
<event>
 4    1  0.1399921E-004  0.4226436E+03  0.7818608E-02  0.1036209E+00
         -2   -1    0    0    0  501 -0.00000000000E+00  0.00000000000E+00  0.22364299907E+03  0.22364299909E+03  0.25500000000E-02 0. -1.
          2   -1    0    0  501    0  0.00000000000E+00 -0.00000000000E+00 -0.19967943367E+03  0.19967943369E+03  0.25500000000E-02 0.  1.
    5000001    1    1    2    0    0 -0.14119434178E+03 -0.32427248634E+02  0.98957527256E+02  0.21658476587E+03  0.12700000000E+03 0.  0.
   -5000001    1    1    2    0    0  0.14119434178E+03  0.32427248634E+02 -0.74993961854E+02  0.20673766691E+03  0.12700000000E+03 0.  0.
<mgrwt>
<rscale>  0 0.42264362E+03</rscale>
<asrwt>0</asrwt>
<pdfrwt beam="1">  1        2 0.28525633E-01 0.42264362E+03</pdfrwt>
<pdfrwt beam="2">  1       -2 0.31949000E-01 0.42264362E+03</pdfrwt>
<totfact> 0.17032231E+03</totfact>
</mgrwt>
</event>
<event>
 4    1  0.1399921E-004  0.3973841E+03  0.7818608E-02  0.1044689E+00
         -2   -1    0    0    0  501 -0.00000000000E+00  0.00000000000E+00  0.28958097130E+03  0.28958097131E+03  0.25500000000E-02 0. -1.
          2   -1    0    0  501    0  0.00000000000E+00 -0.00000000000E+00 -0.13632983612E+03  0.13632983614E+03  0.25500000000E-02 0.  1.
    5000001    1    1    2    0    0  0.12236020927E+03 -0.75427642014E+02  0.21055992222E+02  0.19296037107E+03  0.12700000000E+03 0.  0.
   -5000001    1    1    2    0    0 -0.12236020927E+03  0.75427642014E+02  0.13219514296E+03  0.23295043639E+03  0.12700000000E+03 0.  0.
<mgrwt>
<rscale>  0 0.39738408E+03</rscale>
<asrwt>0</asrwt>
<pdfrwt beam="1">  1        2 0.19475691E-01 0.39738408E+03</pdfrwt>
<pdfrwt beam="2">  1       -2 0.41368710E-01 0.39738408E+03</pdfrwt>
<totfact> 0.16112663E+03</totfact>
</mgrwt>
</event>
<event>
 4    1  0.1399921E-004  0.4820671E+03  0.7818608E-02  0.1018569E+00
          2   -1    0    0  501    0  0.00000000000E+00  0.00000000000E+00  0.47937687143E+03  0.47937687143E+03  0.25500000000E-02 0.  1.
         -2   -1    0    0    0  501 -0.00000000000E+00 -0.00000000000E+00 -0.12119312363E+03  0.12119312366E+03  0.25500000000E-02 0. -1.
    5000001    1    1    2    0    0 -0.17086245605E+03 -0.11250064768E+03  0.19261382981E+03  0.30834957767E+03  0.12700000000E+03 0.  0.
   -5000001    1    1    2    0    0  0.17086245605E+03  0.11250064768E+03  0.16556991798E+03  0.29222041742E+03  0.12700000000E+03 0.  0.
<mgrwt>
<rscale>  0 0.48206713E+03</rscale>
<asrwt>0</asrwt>
<pdfrwt beam="1">  1        2 0.68482411E-01 0.48206713E+03</pdfrwt>
<pdfrwt beam="2">  1       -2 0.17313303E-01 0.48206713E+03</pdfrwt>
<totfact> 0.19219658E+03</totfact>
</mgrwt>
</event>
<event>
 4    1  0.1399921E-004  0.3027843E+03  0.7818608E-02  0.1083857E+00
          2   -1    0    0  501    0  0.00000000000E+00  0.00000000000E+00  0.22252800497E+04  0.22252800497E+04  0.25500000000E-02 0. -1.
         -2   -1    0    0    0  501 -0.00000000000E+00 -0.00000000000E+00 -0.10299639874E+02  0.10299640190E+02  0.25500000000E-02 0.  1.
    5000001    1    1    2    0    0  0.69986965969E+02 -0.21968492455E+02  0.13847165752E+04  0.13924617710E+04  0.12700000000E+03 0.  0.
   -5000001    1    1    2    0    0 -0.69986965969E+02  0.21968492455E+02  0.83026383463E+03  0.84311791889E+03  0.12700000000E+03 0.  0.
<mgrwt>
<rscale>  0 0.30278430E+03</rscale>
<asrwt>0</asrwt>
<pdfrwt beam="1">  1        2 0.31789728E+00 0.30278430E+03</pdfrwt>
<pdfrwt beam="2">  1       -2 0.14713766E-02 0.30278430E+03</pdfrwt>
<totfact> 0.83276783E+03</totfact>
</mgrwt>
</event>
<event>
 4    1  0.1399921E-004  0.8929527E+03  0.7818608E-02  0.9434434E-01
         -2   -1    0    0    0  501 -0.00000000000E+00  0.00000000000E+00  0.38138725087E+03  0.38138725087E+03  0.25500000000E-02 0. -1.
          2   -1    0    0  501    0  0.00000000000E+00 -0.00000000000E+00 -0.52267377793E+03  0.52267377794E+03  0.25500000000E-02 0.  1.
    5000001    1    1    2    0    0  0.47594058689E+02  0.29412899857E+03 -0.38176899123E+03  0.50065319822E+03  0.12700000000E+03 0.  0.
   -5000001    1    1    2    0    0 -0.47594058689E+02 -0.29412899857E+03  0.24048246416E+03  0.40340783060E+03  0.12700000000E+03 0.  0.
<mgrwt>
<rscale>  0 0.89295266E+03</rscale>
<asrwt>0</asrwt>
<pdfrwt beam="1">  1        2 0.74667682E-01 0.89295266E+03</pdfrwt>
<pdfrwt beam="2">  1       -2 0.54483893E-01 0.89295266E+03</pdfrwt>
<totfact> 0.20296555E+02</totfact>
</mgrwt>
</event>
<event>
 4    1  0.1399921E-004  0.3083438E+03  0.7818608E-02  0.1081142E+00
          2   -1    0    0  501    0  0.00000000000E+00  0.00000000000E+00  0.14173270008E+03  0.14173270010E+03  0.25500000000E-02 0.  1.
         -2   -1    0    0    0  501 -0.00000000000E+00 -0.00000000000E+00 -0.16770283707E+03  0.16770283709E+03  0.25500000000E-02 0. -1.
    5000001    1    1    2    0    0  0.81502280977E+02 -0.26226755242E+02  0.46701581605E+01  0.15323601036E+03  0.12700000000E+03 0.  0.
   -5000001    1    1    2    0    0 -0.81502280977E+02  0.26226755242E+02 -0.30640295157E+02  0.15619952683E+03  0.12700000000E+03 0.  0.
<mgrwt>
<rscale>  0 0.30834381E+03</rscale>
<asrwt>0</asrwt>
<pdfrwt beam="1">  1        2 0.20247529E-01 0.30834381E+03</pdfrwt>
<pdfrwt beam="2">  1       -2 0.23957548E-01 0.30834381E+03</pdfrwt>
<totfact> 0.41933215E+03</totfact>
</mgrwt>
</event>
<event>
 4    1  0.1399921E-004  0.9082921E+03  0.7818608E-02  0.9415275E-01
         -2   -1    0    0    0  501 -0.00000000000E+00  0.00000000000E+00  0.68570194111E+03  0.68570194111E+03  0.25500000000E-02 0. -1.
          2   -1    0    0  501    0  0.00000000000E+00 -0.00000000000E+00 -0.30078466911E+03  0.30078466913E+03  0.25500000000E-02 0.  1.
    5000001    1    1    2    0    0  0.11941744412E+03  0.41439973772E+03  0.12264441960E+03  0.46600249167E+03  0.12700000000E+03 0.  0.
   -5000001    1    1    2    0    0 -0.11941744412E+03 -0.41439973772E+03  0.26227285240E+03  0.52048411857E+03  0.12700000000E+03 0.  0.
<mgrwt>
<rscale>  0 0.90829209E+03</rscale>
<asrwt>0</asrwt>
<pdfrwt beam="1">  1        2 0.42969238E-01 0.90829209E+03</pdfrwt>
<pdfrwt beam="2">  1       -2 0.97957421E-01 0.90829209E+03</pdfrwt>
<totfact> 0.10346643E+02</totfact>
</mgrwt>
</event>
<event>
 4    1  0.1399921E-004  0.3247406E+03  0.7818608E-02  0.1073488E+00
         -2   -1    0    0    0  501 -0.00000000000E+00  0.00000000000E+00  0.18038511375E+02  0.18038511555E+02  0.25500000000E-02 0. -1.
          2   -1    0    0  501    0  0.00000000000E+00 -0.00000000000E+00 -0.14615461192E+04  0.14615461192E+04  0.25500000000E-02 0.  1.
    5000001    1    1    2    0    0  0.83226519032E+02 -0.30115295065E+02 -0.49847505449E+03  0.52195781861E+03  0.12700000000E+03 0.  0.
   -5000001    1    1    2    0    0 -0.83226519032E+02  0.30115295065E+02 -0.94503255338E+03  0.95762681219E+03  0.12700000000E+03 0.  0.
<mgrwt>
<rscale>  0 0.32474061E+03</rscale>
<asrwt>0</asrwt>
<pdfrwt beam="1">  1        2 0.20879223E+00 0.32474061E+03</pdfrwt>
<pdfrwt beam="2">  1       -2 0.25769311E-02 0.32474061E+03</pdfrwt>
<totfact> 0.86990041E+03</totfact>
</mgrwt>
</event>
<event>
 4    1  0.1399921E-004  0.4030846E+03  0.7818608E-02  0.1042717E+00
         -2   -1    0    0    0  501 -0.00000000000E+00  0.00000000000E+00  0.95618815266E+02  0.95618815300E+02  0.25500000000E-02 0. -1.
          2   -1    0    0  501    0  0.00000000000E+00 -0.00000000000E+00 -0.42480442430E+03  0.42480442430E+03  0.25500000000E-02 0.  1.
    5000001    1    1    2    0    0 -0.10155362633E+03 -0.75887208684E+02 -0.28305298479E+03  0.33514176055E+03  0.12700000000E+03 0.  0.
   -5000001    1    1    2    0    0  0.10155362633E+03  0.75887208684E+02 -0.46132624238E+02  0.18528147906E+03  0.12700000000E+03 0.  0.
<mgrwt>
<rscale>  0 0.40308459E+03</rscale>
<asrwt>0</asrwt>
<pdfrwt beam="1">  1        2 0.60686346E-01 0.40308459E+03</pdfrwt>
<pdfrwt beam="2">  1       -2 0.13659831E-01 0.40308459E+03</pdfrwt>
<totfact> 0.32640521E+03</totfact>
</mgrwt>
</event>
<event>
 4    1  0.1399921E-004  0.5221885E+03  0.7818608E-02  0.1008144E+00
          2   -1    0    0  501    0  0.00000000000E+00  0.00000000000E+00  0.16171499149E+04  0.16171499149E+04  0.25500000000E-02 0.  1.
         -2   -1    0    0    0  501 -0.00000000000E+00 -0.00000000000E+00 -0.42154530247E+02  0.42154530324E+02  0.25500000000E-02 0. -1.
    5000001    1    1    2    0    0 -0.92621421949E+02 -0.15168336451E+03  0.12419565421E+04  0.12610200726E+04  0.12700000000E+03 0.  0.
   -5000001    1    1    2    0    0  0.92621421949E+02  0.15168336451E+03  0.33303884250E+03  0.39828437264E+03  0.12700000000E+03 0.  0.
<mgrwt>
<rscale>  0 0.52218845E+03</rscale>
<asrwt>0</asrwt>
<pdfrwt beam="1">  1        2 0.23102139E+00 0.52218845E+03</pdfrwt>
<pdfrwt beam="2">  1       -2 0.60220763E-02 0.52218845E+03</pdfrwt>
<totfact> 0.19910442E+03</totfact>
</mgrwt>
</event>
<event>
 4    1  0.1399921E-004  0.3098763E+03  0.7818608E-02  0.1080405E+00
         -2   -1    0    0    0  501 -0.00000000000E+00  0.00000000000E+00  0.38162066766E+02  0.38162066851E+02  0.25500000000E-02 0. -1.
          2   -1    0    0  501    0  0.00000000000E+00 -0.00000000000E+00 -0.62904969904E+03  0.62904969905E+03  0.25500000000E-02 0.  1.
    5000001    1    1    2    0    0  0.29369204248E+02  0.65984213384E+02 -0.40650090981E+03  0.43195885945E+03  0.12700000000E+03 0.  0.
   -5000001    1    1    2    0    0 -0.29369204248E+02 -0.65984213384E+02 -0.18438672246E+03  0.23525290645E+03  0.12700000000E+03 0.  0.
<mgrwt>
<rscale>  0 0.30987634E+03</rscale>
<asrwt>0</asrwt>
<pdfrwt beam="1">  1        2 0.89864236E-01 0.30987634E+03</pdfrwt>
<pdfrwt beam="2">  1       -2 0.54517242E-02 0.30987634E+03</pdfrwt>
<totfact> 0.89371127E+03</totfact>
</mgrwt>
</event>
<event>
 4    1  0.1399921E-004  0.4878647E+03  0.7818608E-02  0.1016996E+00
          2   -1    0    0  501    0  0.00000000000E+00  0.00000000000E+00  0.77506668498E+03  0.77506668499E+03  0.25500000000E-02 0.  1.
         -2   -1    0    0    0  501 -0.00000000000E+00 -0.00000000000E+00 -0.76771453997E+02  0.76771454039E+02  0.25500000000E-02 0. -1.
    5000001    1    1    2    0    0  0.21793318643E+02  0.20336629661E+03  0.41769434677E+03  0.48211032623E+03  0.12700000000E+03 0.  0.
   -5000001    1    1    2    0    0 -0.21793318643E+02 -0.20336629661E+03  0.28060088421E+03  0.36972781279E+03  0.12700000000E+03 0.  0.
<mgrwt>
<rscale>  0 0.48786472E+03</rscale>
<asrwt>0</asrwt>
<pdfrwt beam="1">  1        2 0.11072381E+00 0.48786472E+03</pdfrwt>
<pdfrwt beam="2">  1       -2 0.10967350E-01 0.48786472E+03</pdfrwt>
<totfact> 0.23309323E+03</totfact>
</mgrwt>
</event>
<event>
 4    1  0.1399921E-004  0.4121821E+03  0.7818608E-02  0.1039641E+00
         -2   -1    0    0    0  501 -0.00000000000E+00  0.00000000000E+00  0.57803536389E+02  0.57803536445E+02  0.25500000000E-02 0. -1.
          2   -1    0    0  501    0  0.00000000000E+00 -0.00000000000E+00 -0.73479100211E+03  0.73479100212E+03  0.25500000000E-02 0.  1.
    5000001    1    1    2    0    0 -0.15902739327E+03 -0.31715753359E+02 -0.32504458820E+03  0.38480980386E+03  0.12700000000E+03 0.  0.
   -5000001    1    1    2    0    0  0.15902739327E+03  0.31715753359E+02 -0.35194287752E+03  0.40778473471E+03  0.12700000000E+03 0.  0.
<mgrwt>
<rscale>  0 0.41218209E+03</rscale>
<asrwt>0</asrwt>
<pdfrwt beam="1">  1        2 0.10497014E+00 0.41218209E+03</pdfrwt>
<pdfrwt beam="2">  1       -2 0.82576485E-02 0.41218209E+03</pdfrwt>
<totfact> 0.39195573E+03</totfact>
</mgrwt>
</event>
<event>
 4    1  0.1399921E-004  0.6321771E+03  0.7818608E-02  0.9840809E-01
          2   -1    0    0  501    0  0.00000000000E+00  0.00000000000E+00  0.20677714281E+04  0.20677714281E+04  0.25500000000E-02 0.  1.
         -2   -1    0    0    0  501 -0.00000000000E+00 -0.00000000000E+00 -0.48318678297E+02  0.48318678364E+02  0.25500000000E-02 0. -1.
    5000001    1    1    2    0    0  0.14534605428E+03  0.18047023207E+03  0.42910629674E+03  0.50394066522E+03  0.12700000000E+03 0.  0.
   -5000001    1    1    2    0    0 -0.14534605428E+03 -0.18047023207E+03  0.15903464531E+04  0.16121494413E+04  0.12700000000E+03 0.  0.
<mgrwt>
<rscale>  0 0.63217713E+03</rscale>
<asrwt>0</asrwt>
<pdfrwt beam="1">  1        2 0.29539581E+00 0.63217713E+03</pdfrwt>
<pdfrwt beam="2">  1       -2 0.69026708E-02 0.63217713E+03</pdfrwt>
<totfact> 0.94730383E+02</totfact>
</mgrwt>
</event>
<event>
 4    1  0.1399921E-004  0.5148987E+03  0.7818608E-02  0.1009962E+00
          2   -1    0    0  501    0  0.00000000000E+00  0.00000000000E+00  0.21952068493E+03  0.21952068495E+03  0.25500000000E-02 0.  1.
         -2   -1    0    0    0  501 -0.00000000000E+00 -0.00000000000E+00 -0.30193125893E+03  0.30193125894E+03  0.25500000000E-02 0. -1.
    5000001    1    1    2    0    0  0.79361746255E+02  0.14111741948E+03  0.11548540953E+03  0.23596248148E+03  0.12700000000E+03 0.  0.
   -5000001    1    1    2    0    0 -0.79361746255E+02 -0.14111741948E+03 -0.19789598353E+03  0.28548946241E+03  0.12700000000E+03 0.  0.
<mgrwt>
<rscale>  0 0.51489866E+03</rscale>
<asrwt>0</asrwt>
<pdfrwt beam="1">  1        2 0.31360098E-01 0.51489866E+03</pdfrwt>
<pdfrwt beam="2">  1       -2 0.43133037E-01 0.51489866E+03</pdfrwt>
<totfact> 0.86549513E+02</totfact>
</mgrwt>
</event>
<event>
 4    1  0.1399921E-004  0.4932147E+03  0.7818608E-02  0.1015565E+00
         -2   -1    0    0    0  501 -0.00000000000E+00  0.00000000000E+00  0.82198190853E+02  0.82198190892E+02  0.25500000000E-02 0. -1.
          2   -1    0    0  501    0  0.00000000000E+00 -0.00000000000E+00 -0.73986043321E+03  0.73986043321E+03  0.25500000000E-02 0.  1.
    5000001    1    1    2    0    0 -0.21095164021E+03 -0.24104132638E+01 -0.30648290319E+03  0.39315032055E+03  0.12700000000E+03 0.  0.
   -5000001    1    1    2    0    0  0.21095164021E+03  0.24104132638E+01 -0.35117933917E+03  0.42890830356E+03  0.12700000000E+03 0.  0.
<mgrwt>
<rscale>  0 0.49321472E+03</rscale>
<asrwt>0</asrwt>
<pdfrwt beam="1">  1        2 0.10569434E+00 0.49321472E+03</pdfrwt>
<pdfrwt beam="2">  1       -2 0.11742599E-01 0.49321472E+03</pdfrwt>
<totfact> 0.22096007E+03</totfact>
</mgrwt>
</event>
<event>
 4    1  0.1399921E-004  0.3609562E+03  0.7818608E-02  0.1058206E+00
         -2   -1    0    0    0  501 -0.00000000000E+00  0.00000000000E+00  0.81619429044E+02  0.81619429084E+02  0.25500000000E-02 0. -1.
          2   -1    0    0  501    0  0.00000000000E+00 -0.00000000000E+00 -0.39907582685E+03  0.39907582686E+03  0.25500000000E-02 0.  1.
    5000001    1    1    2    0    0 -0.10753066038E+03  0.69857798149E+02 -0.15790053277E+03  0.23980102822E+03  0.12700000000E+03 0.  0.
   -5000001    1    1    2    0    0  0.10753066038E+03 -0.69857798149E+02 -0.15955586504E+03  0.24089422773E+03  0.12700000000E+03 0.  0.
<mgrwt>
<rscale>  0 0.36095618E+03</rscale>
<asrwt>0</asrwt>
<pdfrwt beam="1">  1        2 0.57010831E-01 0.36095618E+03</pdfrwt>
<pdfrwt beam="2">  1       -2 0.11659919E-01 0.36095618E+03</pdfrwt>
<totfact> 0.45187357E+03</totfact>
</mgrwt>
</event>
<event>
 4    1  0.1399921E-004  0.5416416E+03  0.7818608E-02  0.1003447E+00
          2   -1    0    0  501    0  0.00000000000E+00  0.00000000000E+00  0.23759340605E+03  0.23759340606E+03  0.25500000000E-02 0.  1.
         -2   -1    0    0    0  501 -0.00000000000E+00 -0.00000000000E+00 -0.30869499494E+03  0.30869499495E+03  0.25500000000E-02 0. -1.
    5000001    1    1    2    0    0 -0.94037719047E+02 -0.21460446027E+03  0.12994546004E+02  0.26682583308E+03  0.12700000000E+03 0.  0.
   -5000001    1    1    2    0    0  0.94037719047E+02  0.21460446027E+03 -0.84096134889E+02  0.27946256793E+03  0.12700000000E+03 0.  0.
<mgrwt>
<rscale>  0 0.54164156E+03</rscale>
<asrwt>0</asrwt>
<pdfrwt beam="1">  1        2 0.33941915E-01 0.54164156E+03</pdfrwt>
<pdfrwt beam="2">  1       -2 0.44099285E-01 0.54164156E+03</pdfrwt>
<totfact> 0.75860407E+02</totfact>
</mgrwt>
</event>
<event>
 4    1  0.1399921E-004  0.4514034E+03  0.7818608E-02  0.1027304E+00
         -2   -1    0    0    0  501 -0.00000000000E+00  0.00000000000E+00  0.65469435993E+02  0.65469436043E+02  0.25500000000E-02 0. -1.
          2   -1    0    0  501    0  0.00000000000E+00 -0.00000000000E+00 -0.77809216690E+03  0.77809216691E+03  0.25500000000E-02 0.  1.
    5000001    1    1    2    0    0  0.15181934848E+03  0.52154167261E+02 -0.53402070762E+03  0.57190583832E+03  0.12700000000E+03 0.  0.
   -5000001    1    1    2    0    0 -0.15181934848E+03 -0.52154167261E+02 -0.17860202329E+03  0.27165576463E+03  0.12700000000E+03 0.  0.
<mgrwt>
<rscale>  0 0.45140339E+03</rscale>
<asrwt>0</asrwt>
<pdfrwt beam="1">  1        2 0.11115602E+00 0.45140339E+03</pdfrwt>
<pdfrwt beam="2">  1       -2 0.93527770E-02 0.45140339E+03</pdfrwt>
<totfact> 0.29976515E+03</totfact>
</mgrwt>
</event>
<event>
 4    1  0.1399921E-004  0.5142070E+03  0.7818608E-02  0.1010136E+00
          2   -1    0    0  501    0  0.00000000000E+00  0.00000000000E+00  0.21565630307E+03  0.21565630309E+03  0.25500000000E-02 0.  1.
         -2   -1    0    0    0  501 -0.00000000000E+00 -0.00000000000E+00 -0.30651649022E+03  0.30651649023E+03  0.25500000000E-02 0. -1.
    5000001    1    1    2    0    0  0.20630511985E+03 -0.79395973142E+02 -0.79227656097E+02  0.26696730983E+03  0.12700000000E+03 0.  0.
   -5000001    1    1    2    0    0 -0.20630511985E+03  0.79395973142E+02 -0.11632531053E+02  0.25520548349E+03  0.12700000000E+03 0.  0.
<mgrwt>
<rscale>  0 0.51420701E+03</rscale>
<asrwt>0</asrwt>
<pdfrwt beam="1">  1        2 0.30808043E-01 0.51420701E+03</pdfrwt>
<pdfrwt beam="2">  1       -2 0.43788070E-01 0.51420701E+03</pdfrwt>
<totfact> 0.85705352E+02</totfact>
</mgrwt>
</event>
<event>
 4    1  0.1399921E-004  0.3617241E+03  0.7818608E-02  0.1057903E+00
          2   -1    0    0  501    0  0.00000000000E+00  0.00000000000E+00  0.16062454416E+04  0.16062454416E+04  0.25500000000E-02 0.  1.
         -2   -1    0    0    0  501 -0.00000000000E+00 -0.00000000000E+00 -0.20364936822E+02  0.20364936982E+02  0.25500000000E-02 0. -1.
    5000001    1    1    2    0    0  0.12734966870E+03 -0.14325597463E+02  0.73625059671E+03  0.75803502690E+03  0.12700000000E+03 0.  0.
   -5000001    1    1    2    0    0 -0.12734966870E+03  0.14325597463E+02  0.84962990806E+03  0.86857535167E+03  0.12700000000E+03 0.  0.
<mgrwt>
<rscale>  0 0.36172413E+03</rscale>
<asrwt>0</asrwt>
<pdfrwt beam="1">  1        2 0.22946373E+00 0.36172413E+03</pdfrwt>
<pdfrwt beam="2">  1       -2 0.29092755E-02 0.36172413E+03</pdfrwt>
<totfact> 0.61373013E+03</totfact>
</mgrwt>
</event>
<event>
 4    1  0.1399921E-004  0.3121926E+03  0.7818608E-02  0.1079300E+00
          2   -1    0    0  501    0  0.00000000000E+00  0.00000000000E+00  0.12434510832E+04  0.12434510832E+04  0.25500000000E-02 0.  1.
         -2   -1    0    0    0  501 -0.00000000000E+00 -0.00000000000E+00 -0.19595503270E+02  0.19595503436E+02  0.25500000000E-02 0. -1.
    5000001    1    1    2    0    0 -0.79103201781E+01 -0.86922323472E+02  0.51127232499E+03  0.53399106152E+03  0.12700000000E+03 0.  0.
   -5000001    1    1    2    0    0  0.79103201781E+01  0.86922323472E+02  0.71258325490E+03  0.72905552508E+03  0.12700000000E+03 0.  0.
<mgrwt>
<rscale>  0 0.31219257E+03</rscale>
<asrwt>0</asrwt>
<pdfrwt beam="1">  1        2 0.17763589E+00 0.31219257E+03</pdfrwt>
<pdfrwt beam="2">  1       -2 0.27993573E-02 0.31219257E+03</pdfrwt>
<totfact> 0.99950607E+03</totfact>
</mgrwt>
</event>
<event>
 4    1  0.1399921E-004  0.4771370E+03  0.7818608E-02  0.1019925E+00
         -2   -1    0    0    0  501 -0.00000000000E+00  0.00000000000E+00  0.62651998237E+03  0.62651998237E+03  0.25500000000E-02 0. -1.
          2   -1    0    0  501    0  0.00000000000E+00 -0.00000000000E+00 -0.90842961127E+02  0.90842961163E+02  0.25500000000E-02 0.  1.
    5000001    1    1    2    0    0 -0.17416305545E+03  0.53107274513E+02  0.13648637084E+03  0.26059678032E+03  0.12700000000E+03 0.  0.
   -5000001    1    1    2    0    0  0.17416305545E+03 -0.53107274513E+02  0.39919065040E+03  0.45676616321E+03  0.12700000000E+03 0.  0.
<mgrwt>
<rscale>  0 0.47713701E+03</rscale>
<asrwt>0</asrwt>
<pdfrwt beam="1">  1        2 0.12977565E-01 0.47713701E+03</pdfrwt>
<pdfrwt beam="2">  1       -2 0.89502859E-01 0.47713701E+03</pdfrwt>
<totfact> 0.51710866E+02</totfact>
</mgrwt>
</event>
<event>
 4    1  0.1399921E-004  0.5458337E+03  0.7818608E-02  0.1002463E+00
          2   -1    0    0  501    0  0.00000000000E+00  0.00000000000E+00  0.23295480560E+04  0.23295480560E+04  0.25500000000E-02 0.  1.
         -2   -1    0    0    0  501 -0.00000000000E+00 -0.00000000000E+00 -0.31973412213E+02  0.31973412315E+02  0.25500000000E-02 0. -1.
    5000001    1    1    2    0    0 -0.41666245934E+02 -0.23699143929E+03  0.10566449269E+04  0.10911134313E+04  0.12700000000E+03 0.  0.
   -5000001    1    1    2    0    0  0.41666245934E+02  0.23699143929E+03  0.12409297169E+04  0.12704080370E+04  0.12700000000E+03 0.  0.
<mgrwt>
<rscale>  0 0.54583368E+03</rscale>
<asrwt>0</asrwt>
<pdfrwt beam="1">  1        2 0.33279271E+00 0.54583368E+03</pdfrwt>
<pdfrwt beam="2">  1       -2 0.45676285E-02 0.54583368E+03</pdfrwt>
<totfact> 0.13387909E+03</totfact>
</mgrwt>
</event>
<event>
 4    1  0.1399921E-004  0.4483384E+03  0.7818608E-02  0.1028219E+00
          2   -1    0    0  501    0  0.00000000000E+00  0.00000000000E+00  0.75072978008E+03  0.75072978009E+03  0.25500000000E-02 0.  1.
         -2   -1    0    0    0  501 -0.00000000000E+00 -0.00000000000E+00 -0.66937300468E+02  0.66937300516E+02  0.25500000000E-02 0. -1.
    5000001    1    1    2    0    0 -0.10645885668E+03  0.42562117941E+01  0.66686524191E+02  0.17868322813E+03  0.12700000000E+03 0.  0.
   -5000001    1    1    2    0    0  0.10645885668E+03 -0.42562117941E+01  0.61710595542E+03  0.63898385247E+03  0.12700000000E+03 0.  0.
<mgrwt>
<rscale>  0 0.44833838E+03</rscale>
<asrwt>0</asrwt>
<pdfrwt beam="1">  1        2 0.10724711E+00 0.44833838E+03</pdfrwt>
<pdfrwt beam="2">  1       -2 0.95624717E-02 0.44833838E+03</pdfrwt>
<totfact> 0.30245866E+03</totfact>
</mgrwt>
</event>
<event>
 4    1  0.1399921E-004  0.3052417E+03  0.7818608E-02  0.1082649E+00
          2   -1    0    0  501    0  0.00000000000E+00  0.00000000000E+00  0.33340277979E+04  0.33340277979E+04  0.25500000000E-02 0.  1.
         -2   -1    0    0    0  501 -0.00000000000E+00 -0.00000000000E+00 -0.69864826796E+01  0.69864831449E+01  0.25500000000E-02 0. -1.
    5000001    1    1    2    0    0 -0.24682955010E+02 -0.71920291901E+02  0.12565681910E+04  0.12652566519E+04  0.12700000000E+03 0.  0.
   -5000001    1    1    2    0    0  0.24682955010E+02  0.71920291901E+02  0.20704731242E+04  0.20757576291E+04  0.12700000000E+03 0.  0.
<mgrwt>
<rscale>  0 0.30524173E+03</rscale>
<asrwt>0</asrwt>
<pdfrwt beam="1">  1        2 0.47629008E+00 0.30524173E+03</pdfrwt>
<pdfrwt beam="2">  1       -2 0.99806815E-03 0.30524173E+03</pdfrwt>
<totfact> 0.38944447E+03</totfact>
</mgrwt>
</event>
<event>
 4    1  0.1399921E-004  0.4730775E+03  0.7818608E-02  0.1021055E+00
         -2   -1    0    0    0  501 -0.00000000000E+00  0.00000000000E+00  0.11854384269E+03  0.11854384271E+03  0.25500000000E-02 0. -1.
          2   -1    0    0  501    0  0.00000000000E+00 -0.00000000000E+00 -0.47198212278E+03  0.47198212279E+03  0.25500000000E-02 0.  1.
    5000001    1    1    2    0    0  0.76313856104E+02 -0.18438184291E+03 -0.17803183521E+03  0.29604864968E+03  0.12700000000E+03 0.  0.
   -5000001    1    1    2    0    0 -0.76313856104E+02  0.18438184291E+03 -0.17540644489E+03  0.29447731583E+03  0.12700000000E+03 0.  0.
<mgrwt>
<rscale>  0 0.47307748E+03</rscale>
<asrwt>0</asrwt>
<pdfrwt beam="1">  1        2 0.67426017E-01 0.47307748E+03</pdfrwt>
<pdfrwt beam="2">  1       -2 0.16934835E-01 0.47307748E+03</pdfrwt>
<totfact> 0.20303599E+03</totfact>
</mgrwt>
</event>
<event>
 4    1  0.1399921E-004  0.5499586E+03  0.7818608E-02  0.1001504E+00
         -2   -1    0    0    0  501 -0.00000000000E+00  0.00000000000E+00  0.27793046256E+03  0.27793046257E+03  0.25500000000E-02 0. -1.
          2   -1    0    0  501    0  0.00000000000E+00 -0.00000000000E+00 -0.27205948588E+03  0.27205948589E+03  0.25500000000E-02 0.  1.
    5000001    1    1    2    0    0  0.19352063951E+03 -0.59677426112E+02  0.13885859482E+03  0.27644591236E+03  0.12700000000E+03 0.  0.
   -5000001    1    1    2    0    0 -0.19352063951E+03  0.59677426112E+02 -0.13298761814E+03  0.27354403610E+03  0.12700000000E+03 0.  0.
<mgrwt>
<rscale>  0 0.54995861E+03</rscale>
<asrwt>0</asrwt>
<pdfrwt beam="1">  1        2 0.38865641E-01 0.54995861E+03</pdfrwt>
<pdfrwt beam="2">  1       -2 0.39704352E-01 0.54995861E+03</pdfrwt>
<totfact> 0.80150149E+02</totfact>
</mgrwt>
</event>
<event>
 4    1  0.1399921E-004  0.4381333E+03  0.7818608E-02  0.1031321E+00
          2   -1    0    0  501    0  0.00000000000E+00  0.00000000000E+00  0.71206724985E+02  0.71206725031E+02  0.25500000000E-02 0.  1.
         -2   -1    0    0    0  501 -0.00000000000E+00 -0.00000000000E+00 -0.67395598290E+03  0.67395598291E+03  0.25500000000E-02 0. -1.
    5000001    1    1    2    0    0 -0.17772172495E+03 -0.81505634831E+01 -0.27674254536E+03  0.35265688653E+03  0.12700000000E+03 0.  0.
   -5000001    1    1    2    0    0  0.17772172495E+03  0.81505634831E+01 -0.32600671255E+03  0.39250582140E+03  0.12700000000E+03 0.  0.
<mgrwt>
<rscale>  0 0.43813331E+03</rscale>
<asrwt>0</asrwt>
<pdfrwt beam="1">  1        2 0.10172390E-01 0.43813331E+03</pdfrwt>
<pdfrwt beam="2">  1       -2 0.96279422E-01 0.43813331E+03</pdfrwt>
<totfact> 0.59147699E+02</totfact>
</mgrwt>
</event>
<event>
 4    1  0.1399921E-004  0.4759227E+03  0.7818608E-02  0.1020262E+00
         -2   -1    0    0    0  501 -0.00000000000E+00  0.00000000000E+00  0.64655022757E+02  0.64655022807E+02  0.25500000000E-02 0. -1.
          2   -1    0    0  501    0  0.00000000000E+00 -0.00000000000E+00 -0.87581142534E+03  0.87581142534E+03  0.25500000000E-02 0.  1.
    5000001    1    1    2    0    0  0.18170064206E+03  0.75635950262E+02 -0.48849604439E+03  0.54175022444E+03  0.12700000000E+03 0.  0.
   -5000001    1    1    2    0    0 -0.18170064206E+03 -0.75635950262E+02 -0.32266035819E+03  0.39871622371E+03  0.12700000000E+03 0.  0.
<mgrwt>
<rscale>  0 0.47592271E+03</rscale>
<asrwt>0</asrwt>
<pdfrwt beam="1">  1        2 0.12511591E+00 0.47592271E+03</pdfrwt>
<pdfrwt beam="2">  1       -2 0.92364324E-02 0.47592271E+03</pdfrwt>
<totfact> 0.26293068E+03</totfact>
</mgrwt>
</event>
<event>
 4    1  0.1399921E-004  0.6317517E+03  0.7818608E-02  0.9841636E-01
          2   -1    0    0  501    0  0.00000000000E+00  0.00000000000E+00  0.14247678727E+04  0.14247678727E+04  0.25500000000E-02 0.  1.
         -2   -1    0    0    0  501 -0.00000000000E+00 -0.00000000000E+00 -0.70030739720E+02  0.70030739766E+02  0.25500000000E-02 0. -1.
    5000001    1    1    2    0    0  0.73368763802E+01  0.28656726568E+03  0.58652936306E+03  0.66507166625E+03  0.12700000000E+03 0.  0.
   -5000001    1    1    2    0    0 -0.73368763802E+01 -0.28656726568E+03  0.76820776992E+03  0.82972694621E+03  0.12700000000E+03 0.  0.
<mgrwt>
<rscale>  0 0.63175169E+03</rscale>
<asrwt>0</asrwt>
<pdfrwt beam="1">  1        2 0.20353825E+00 0.63175169E+03</pdfrwt>
<pdfrwt beam="2">  1       -2 0.10004392E-01 0.63175169E+03</pdfrwt>
<totfact> 0.11137699E+03</totfact>
</mgrwt>
</event>
<event>
 4    1  0.1399921E-004  0.3446233E+03  0.7818608E-02  0.1064844E+00
          2   -1    0    0  501    0  0.00000000000E+00  0.00000000000E+00  0.85387348632E+03  0.85387348633E+03  0.25500000000E-02 0.  1.
         -2   -1    0    0    0  501 -0.00000000000E+00 -0.00000000000E+00 -0.34772483109E+02  0.34772483202E+02  0.25500000000E-02 0. -1.
    5000001    1    1    2    0    0  0.66420985244E+02  0.73037458079E+02  0.56884219084E+03  0.59114859015E+03  0.12700000000E+03 0.  0.
   -5000001    1    1    2    0    0 -0.66420985244E+02 -0.73037458079E+02  0.25025881238E+03  0.29749737938E+03  0.12700000000E+03 0.  0.
<mgrwt>
<rscale>  0 0.34462328E+03</rscale>
<asrwt>0</asrwt>
<pdfrwt beam="1">  1        2 0.12198193E+00 0.34462328E+03</pdfrwt>
<pdfrwt beam="2">  1       -2 0.49674975E-02 0.34462328E+03</pdfrwt>
<totfact> 0.71313731E+03</totfact>
</mgrwt>
</event>
<event>
 4    1  0.1399921E-004  0.3235973E+03  0.7818608E-02  0.1074006E+00
         -2   -1    0    0    0  501 -0.00000000000E+00  0.00000000000E+00  0.97172852213E+01  0.97172855559E+01  0.25500000000E-02 0. -1.
          2   -1    0    0  501    0  0.00000000000E+00 -0.00000000000E+00 -0.26940441987E+04  0.26940441987E+04  0.25500000000E-02 0.  1.
    5000001    1    1    2    0    0  0.93546689535E+02  0.34453225949E+02 -0.14305043882E+04  0.14395866811E+04  0.12700000000E+03 0.  0.
   -5000001    1    1    2    0    0 -0.93546689535E+02 -0.34453225949E+02 -0.12538225253E+04  0.12641748031E+04  0.12700000000E+03 0.  0.
<mgrwt>
<rscale>  0 0.32359726E+03</rscale>
<asrwt>0</asrwt>
<pdfrwt beam="1">  1        2 0.38486298E+00 0.32359726E+03</pdfrwt>
<pdfrwt beam="2">  1       -2 0.13881853E-02 0.32359726E+03</pdfrwt>
<totfact> 0.52834188E+03</totfact>
</mgrwt>
</event>
<event>
 4    1  0.1399921E-004  0.3679938E+03  0.7818608E-02  0.1055463E+00
         -2   -1    0    0    0  501 -0.00000000000E+00  0.00000000000E+00  0.12526890709E+03  0.12526890712E+03  0.25500000000E-02 0. -1.
          2   -1    0    0  501    0  0.00000000000E+00 -0.00000000000E+00 -0.27025749591E+03  0.27025749592E+03  0.25500000000E-02 0.  1.
    5000001    1    1    2    0    0 -0.96508575596E+02 -0.79306009989E+02 -0.12201195530E+03  0.21591494997E+03  0.12700000000E+03 0.  0.
   -5000001    1    1    2    0    0  0.96508575596E+02  0.79306009989E+02 -0.22976633513E+02  0.17961145306E+03  0.12700000000E+03 0.  0.
<mgrwt>
<rscale>  0 0.36799381E+03</rscale>
<asrwt>0</asrwt>
<pdfrwt beam="1">  1        2 0.38608213E-01 0.36799381E+03</pdfrwt>
<pdfrwt beam="2">  1       -2 0.17895558E-01 0.36799381E+03</pdfrwt>
<totfact> 0.33958404E+03</totfact>
</mgrwt>
</event>
<event>
 4    1  0.1399921E-004  0.3874809E+03  0.7818608E-02  0.1048203E+00
         -2   -1    0    0    0  501 -0.00000000000E+00  0.00000000000E+00  0.88695539368E+02  0.88695539405E+02  0.25500000000E-02 0. -1.
          2   -1    0    0  501    0  0.00000000000E+00 -0.00000000000E+00 -0.42319327747E+03  0.42319327747E+03  0.25500000000E-02 0.  1.
    5000001    1    1    2    0    0  0.11972550336E+03  0.70772903506E+02 -0.22725732573E+03  0.29515740228E+03  0.12700000000E+03 0.  0.
   -5000001    1    1    2    0    0 -0.11972550336E+03 -0.70772903506E+02 -0.10724041237E+03  0.21673141459E+03  0.12700000000E+03 0.  0.
<mgrwt>
<rscale>  0 0.38748087E+03</rscale>
<asrwt>0</asrwt>
<pdfrwt beam="1">  1        2 0.60456181E-01 0.38748087E+03</pdfrwt>
<pdfrwt beam="2">  1       -2 0.12670792E-01 0.38748087E+03</pdfrwt>
<totfact> 0.37062223E+03</totfact>
</mgrwt>
</event>
<event>
 4    1  0.1399921E-004  0.5611250E+03  0.7818608E-02  0.9989512E-01
         -2   -1    0    0    0  501 -0.00000000000E+00  0.00000000000E+00  0.64689832948E+02  0.64689832999E+02  0.25500000000E-02 0. -1.
          2   -1    0    0  501    0  0.00000000000E+00 -0.00000000000E+00 -0.12168112210E+04  0.12168112210E+04  0.25500000000E-02 0.  1.
    5000001    1    1    2    0    0 -0.24515696479E+02 -0.12058028643E+03 -0.10735202028E+04  0.10879867879E+04  0.12700000000E+03 0.  0.
   -5000001    1    1    2    0    0  0.24515696479E+02  0.12058028643E+03 -0.78601185217E+02  0.19351426606E+03  0.12700000000E+03 0.  0.
<mgrwt>
<rscale>  0 0.56112499E+03</rscale>
<asrwt>0</asrwt>
<pdfrwt beam="1">  1        2 0.17383016E+00 0.56112499E+03</pdfrwt>
<pdfrwt beam="2">  1       -2 0.92414054E-02 0.56112499E+03</pdfrwt>
<totfact> 0.16442037E+03</totfact>
</mgrwt>
</event>
<event>
 4    1  0.1399921E-004  0.4711275E+03  0.7818608E-02  0.1021602E+00
         -2   -1    0    0    0  501 -0.00000000000E+00  0.00000000000E+00  0.35759436258E+02  0.35759436349E+02  0.25500000000E-02 0. -1.
          2   -1    0    0  501    0  0.00000000000E+00 -0.00000000000E+00 -0.15517659509E+04  0.15517659509E+04  0.25500000000E-02 0.  1.
    5000001    1    1    2    0    0  0.16572471397E+03 -0.96062690687E+02 -0.93207178907E+03  0.95998934439E+03  0.12700000000E+03 0.  0.
   -5000001    1    1    2    0    0 -0.16572471397E+03  0.96062690687E+02 -0.58393472558E+03  0.62753604287E+03  0.12700000000E+03 0.  0.
<mgrwt>
<rscale>  0 0.47112748E+03</rscale>
<asrwt>0</asrwt>
<pdfrwt beam="1">  1        2 0.22168081E+00 0.47112748E+03</pdfrwt>
<pdfrwt beam="2">  1       -2 0.51084919E-02 0.47112748E+03</pdfrwt>
<totfact> 0.27793935E+03</totfact>
</mgrwt>
</event>
<event>
 4    1  0.1399921E-004  0.3772482E+03  0.7818608E-02  0.1051956E+00
          2   -1    0    0  501    0  0.00000000000E+00  0.00000000000E+00  0.23067839709E+03  0.23067839710E+03  0.25500000000E-02 0.  1.
         -2   -1    0    0    0  501 -0.00000000000E+00 -0.00000000000E+00 -0.15423658477E+03  0.15423658479E+03  0.25500000000E-02 0. -1.
    5000001    1    1    2    0    0  0.36911290482E+02 -0.12076688387E+03 -0.22167772636E+02  0.18046466067E+03  0.12700000000E+03 0.  0.
   -5000001    1    1    2    0    0 -0.36911290482E+02  0.12076688387E+03  0.98609584949E+02  0.20445032123E+03  0.12700000000E+03 0.  0.
<mgrwt>
<rscale>  0 0.37724818E+03</rscale>
<asrwt>0</asrwt>
<pdfrwt beam="1">  1        2 0.32954057E-01 0.37724818E+03</pdfrwt>
<pdfrwt beam="2">  1       -2 0.22033798E-01 0.37724818E+03</pdfrwt>
<totfact> 0.28249414E+03</totfact>
</mgrwt>
</event>
<event>
 4    1  0.1399921E-004  0.2971824E+03  0.7818608E-02  0.1086658E+00
          2   -1    0    0  501    0  0.00000000000E+00  0.00000000000E+00  0.20178518897E+03  0.20178518898E+03  0.25500000000E-02 0.  1.
         -2   -1    0    0    0  501 -0.00000000000E+00 -0.00000000000E+00 -0.10942001426E+03  0.10942001429E+03  0.25500000000E-02 0. -1.
    5000001    1    1    2    0    0 -0.31839956845E+02 -0.63560460042E+02  0.14825996110E+02  0.14629601872E+03  0.12700000000E+03 0.  0.
   -5000001    1    1    2    0    0  0.31839956845E+02  0.63560460042E+02  0.77539178599E+02  0.16490918455E+03  0.12700000000E+03 0.  0.
<mgrwt>
<rscale>  0 0.29718236E+03</rscale>
<asrwt>0</asrwt>
<pdfrwt beam="1">  1        2 0.28826455E-01 0.29718236E+03</pdfrwt>
<pdfrwt beam="2">  1       -2 0.15631431E-01 0.29718236E+03</pdfrwt>
<totfact> 0.58369440E+03</totfact>
</mgrwt>
</event>
<event>
 4    1  0.1399921E-004  0.4045888E+03  0.7818608E-02  0.1042202E+00
         -2   -1    0    0    0  501 -0.00000000000E+00  0.00000000000E+00  0.46475007794E+02  0.46475007863E+02  0.25500000000E-02 0. -1.
          2   -1    0    0  501    0  0.00000000000E+00 -0.00000000000E+00 -0.88053844029E+03  0.88053844029E+03  0.25500000000E-02 0.  1.
    5000001    1    1    2    0    0  0.82948348068E+02 -0.13383983156E+03 -0.41865502926E+03  0.46496727033E+03  0.12700000000E+03 0.  0.
   -5000001    1    1    2    0    0 -0.82948348068E+02  0.13383983156E+03 -0.41540840324E+03  0.46204617782E+03  0.12700000000E+03 0.  0.
<mgrwt>
<rscale>  0 0.40458883E+03</rscale>
<asrwt>0</asrwt>
<pdfrwt beam="1">  1        2 0.12579120E+00 0.40458883E+03</pdfrwt>
<pdfrwt beam="2">  1       -2 0.66392874E-02 0.40458883E+03</pdfrwt>
<totfact> 0.43926873E+03</totfact>
</mgrwt>
</event>
<event>
 4    1  0.1399921E-004  0.4052349E+03  0.7818608E-02  0.1041982E+00
         -2   -1    0    0    0  501 -0.00000000000E+00  0.00000000000E+00  0.13018439917E+03  0.13018439920E+03  0.25500000000E-02 0. -1.
          2   -1    0    0  501    0  0.00000000000E+00 -0.00000000000E+00 -0.31535133313E+03  0.31535133314E+03  0.25500000000E-02 0.  1.
    5000001    1    1    2    0    0  0.10746257500E+03 -0.11484956750E+03 -0.10758585916E+03  0.22900293725E+03  0.12700000000E+03 0.  0.
   -5000001    1    1    2    0    0 -0.10746257500E+03  0.11484956750E+03 -0.77581074801E+02  0.21653279509E+03  0.12700000000E+03 0.  0.
<mgrwt>
<rscale>  0 0.40523486E+03</rscale>
<asrwt>0</asrwt>
<pdfrwt beam="1">  1        2 0.45050190E-01 0.40523486E+03</pdfrwt>
<pdfrwt beam="2">  1       -2 0.18597771E-01 0.40523486E+03</pdfrwt>
<totfact> 0.26930727E+03</totfact>
</mgrwt>
</event>
<event>
 4    1  0.1399921E-004  0.7338551E+03  0.7818608E-02  0.9661025E-01
         -2   -1    0    0    0  501 -0.00000000000E+00  0.00000000000E+00  0.98919886641E+03  0.98919886641E+03  0.25500000000E-02 0. -1.
          2   -1    0    0  501    0  0.00000000000E+00 -0.00000000000E+00 -0.13610591856E+03  0.13610591858E+03  0.25500000000E-02 0.  1.
    5000001    1    1    2    0    0  0.80720755683E+02  0.24023027914E+03  0.69288977118E+02  0.29181567772E+03  0.12700000000E+03 0.  0.
   -5000001    1    1    2    0    0 -0.80720755683E+02 -0.24023027914E+03  0.78380397073E+03  0.83348910727E+03  0.12700000000E+03 0.  0.
<mgrwt>
<rscale>  0 0.73385508E+03</rscale>
<asrwt>0</asrwt>
<pdfrwt beam="1">  1        2 0.19443703E-01 0.73385508E+03</pdfrwt>
<pdfrwt beam="2">  1       -2 0.14131412E+00 0.73385508E+03</pdfrwt>
<totfact> 0.10411776E+02</totfact>
</mgrwt>
</event>
<event>
 4    1  0.1399921E-004  0.4362173E+03  0.7818608E-02  0.1031914E+00
         -2   -1    0    0    0  501 -0.00000000000E+00  0.00000000000E+00  0.15417530437E+02  0.15417530648E+02  0.25500000000E-02 0. -1.
          2   -1    0    0  501    0  0.00000000000E+00 -0.00000000000E+00 -0.30855385648E+04  0.30855385648E+04  0.25500000000E-02 0.  1.
    5000001    1    1    2    0    0  0.76875343505E+02 -0.51532981491E+02 -0.26102660377E+04  0.26149920180E+04  0.12700000000E+03 0.  0.
   -5000001    1    1    2    0    0 -0.76875343505E+02  0.51532981491E+02 -0.45985499671E+03  0.48596407750E+03  0.12700000000E+03 0.  0.
<mgrwt>
<rscale>  0 0.43621731E+03</rscale>
<asrwt>0</asrwt>
<pdfrwt beam="1">  1        2 0.44079083E+00 0.43621731E+03</pdfrwt>
<pdfrwt beam="2">  1       -2 0.22025063E-02 0.43621731E+03</pdfrwt>
<totfact> 0.16447086E+03</totfact>
</mgrwt>
</event>
<event>
 4    1  0.1399921E-004  0.6119297E+03  0.7818608E-02  0.9880960E-01
          2   -1    0    0  501    0  0.00000000000E+00  0.00000000000E+00  0.40570576039E+03  0.40570576040E+03  0.25500000000E-02 0.  1.
         -2   -1    0    0    0  501 -0.00000000000E+00 -0.00000000000E+00 -0.23074481686E+03  0.23074481687E+03  0.25500000000E-02 0. -1.
    5000001    1    1    2    0    0  0.16079205421E+03  0.22427536329E+03  0.49521742196E+02  0.30779039333E+03  0.12700000000E+03 0.  0.
   -5000001    1    1    2    0    0 -0.16079205421E+03 -0.22427536329E+03  0.12543920134E+03  0.32866018394E+03  0.12700000000E+03 0.  0.
<mgrwt>
<rscale>  0 0.61192974E+03</rscale>
<asrwt>0</asrwt>
<pdfrwt beam="1">  1        2 0.57957966E-01 0.61192974E+03</pdfrwt>
<pdfrwt beam="2">  1       -2 0.32963545E-01 0.61192974E+03</pdfrwt>
<totfact> 0.73420560E+02</totfact>
</mgrwt>
</event>
<event>
 4    1  0.1399921E-004  0.3044271E+03  0.7818608E-02  0.1083048E+00
          2   -1    0    0  501    0  0.00000000000E+00  0.00000000000E+00  0.10588357967E+04  0.10588357967E+04  0.25500000000E-02 0.  1.
         -2   -1    0    0    0  501 -0.00000000000E+00 -0.00000000000E+00 -0.21881543550E+02  0.21881543699E+02  0.25500000000E-02 0. -1.
    5000001    1    1    2    0    0  0.51703977538E+02  0.42758911781E+02  0.69733307164E+03  0.71197193668E+03  0.12700000000E+03 0.  0.
   -5000001    1    1    2    0    0 -0.51703977538E+02 -0.42758911781E+02  0.33962118153E+03  0.36874540373E+03  0.12700000000E+03 0.  0.
<mgrwt>
<rscale>  0 0.30442708E+03</rscale>
<asrwt>0</asrwt>
<pdfrwt beam="1">  1        2 0.15126227E+00 0.30442708E+03</pdfrwt>
<pdfrwt beam="2">  1       -2 0.31259344E-02 0.30442708E+03</pdfrwt>
<totfact> 0.10728530E+04</totfact>
</mgrwt>
</event>
<event>
 4    1  0.1399921E-004  0.3661008E+03  0.7818608E-02  0.1056194E+00
          2   -1    0    0  501    0  0.00000000000E+00  0.00000000000E+00  0.25805556749E+03  0.25805556750E+03  0.25500000000E-02 0.  1.
         -2   -1    0    0    0  501 -0.00000000000E+00 -0.00000000000E+00 -0.12984587914E+03  0.12984587916E+03  0.25500000000E-02 0. -1.
    5000001    1    1    2    0    0  0.38872272552E+02  0.98803574874E+02  0.14689381819E+03  0.22131424221E+03  0.12700000000E+03 0.  0.
   -5000001    1    1    2    0    0 -0.38872272552E+02 -0.98803574874E+02 -0.18684129837E+02  0.16658720446E+03  0.12700000000E+03 0.  0.
<mgrwt>
<rscale>  0 0.36610082E+03</rscale>
<asrwt>0</asrwt>
<pdfrwt beam="1">  1        2 0.36865081E-01 0.36610082E+03</pdfrwt>
<pdfrwt beam="2">  1       -2 0.18549411E-01 0.36610082E+03</pdfrwt>
<totfact> 0.33597114E+03</totfact>
</mgrwt>
</event>
<event>
 4    1  0.1399921E-004  0.3732849E+03  0.7818608E-02  0.1053444E+00
         -2   -1    0    0    0  501 -0.00000000000E+00  0.00000000000E+00  0.18565619504E+03  0.18565619506E+03  0.25500000000E-02 0. -1.
          2   -1    0    0  501    0  0.00000000000E+00 -0.00000000000E+00 -0.18763397452E+03  0.18763397453E+03  0.25500000000E-02 0.  1.
    5000001    1    1    2    0    0  0.59039238819E+02 -0.12104402491E+03 -0.24845504437E+02  0.18677148278E+03  0.12700000000E+03 0.  0.
   -5000001    1    1    2    0    0 -0.59039238819E+02  0.12104402491E+03  0.22867724963E+02  0.18651868682E+03  0.12700000000E+03 0.  0.
<mgrwt>
<rscale>  0 0.37328493E+03</rscale>
<asrwt>0</asrwt>
<pdfrwt beam="1">  1        2 0.26804854E-01 0.37328493E+03</pdfrwt>
<pdfrwt beam="2">  1       -2 0.26522313E-01 0.37328493E+03</pdfrwt>
<totfact> 0.25588664E+03</totfact>
</mgrwt>
</event>
<event>
 4    1  0.1399921E-004  0.3292222E+03  0.7818608E-02  0.1071482E+00
          2   -1    0    0  501    0  0.00000000000E+00  0.00000000000E+00  0.53579764120E+02  0.53579764181E+02  0.25500000000E-02 0.  1.
         -2   -1    0    0    0  501 -0.00000000000E+00 -0.00000000000E+00 -0.50572835815E+03  0.50572835816E+03  0.25500000000E-02 0. -1.
    5000001    1    1    2    0    0 -0.70504382112E+02  0.77174570623E+02 -0.21519300160E+03  0.27085754593E+03  0.12700000000E+03 0.  0.
   -5000001    1    1    2    0    0  0.70504382112E+02 -0.77174570623E+02 -0.23695559243E+03  0.28845057641E+03  0.12700000000E+03 0.  0.
<mgrwt>
<rscale>  0 0.32922215E+03</rscale>
<asrwt>0</asrwt>
<pdfrwt beam="1">  1        2 0.76542523E-02 0.32922215E+03</pdfrwt>
<pdfrwt beam="2">  1       -2 0.72246906E-01 0.32922215E+03</pdfrwt>
<totfact> 0.16106703E+03</totfact>
</mgrwt>
</event>
<event>
 4    1  0.1399921E-004  0.3730938E+03  0.7818608E-02  0.1053516E+00
          2   -1    0    0  501    0  0.00000000000E+00  0.00000000000E+00  0.12719886760E+04  0.12719886760E+04  0.25500000000E-02 0.  1.
         -2   -1    0    0    0  501 -0.00000000000E+00 -0.00000000000E+00 -0.27358532597E+02  0.27358532716E+02  0.25500000000E-02 0. -1.
    5000001    1    1    2    0    0  0.88579623770E+02 -0.78362761380E+02  0.38397316010E+03  0.42136855577E+03  0.12700000000E+03 0.  0.
   -5000001    1    1    2    0    0 -0.88579623770E+02  0.78362761380E+02  0.86065698332E+03  0.87797865296E+03  0.12700000000E+03 0.  0.
<mgrwt>
<rscale>  0 0.37309379E+03</rscale>
<asrwt>0</asrwt>
<pdfrwt beam="1">  1        2 0.18171278E+00 0.37309379E+03</pdfrwt>
<pdfrwt beam="2">  1       -2 0.39083594E-02 0.37309379E+03</pdfrwt>
<totfact> 0.58618949E+03</totfact>
</mgrwt>
</event>
<event>
 4    1  0.1399921E-004  0.3866395E+03  0.7818608E-02  0.1048507E+00
         -2   -1    0    0    0  501 -0.00000000000E+00  0.00000000000E+00  0.34272144448E+02  0.34272144543E+02  0.25500000000E-02 0. -1.
          2   -1    0    0  501    0  0.00000000000E+00 -0.00000000000E+00 -0.10904638580E+04  0.10904638580E+04  0.25500000000E-02 0.  1.
    5000001    1    1    2    0    0 -0.44352503251E+02  0.72684731228E+02 -0.18397998087E+03  0.23922342707E+03  0.12700000000E+03 0.  0.
   -5000001    1    1    2    0    0  0.44352503251E+02 -0.72684731228E+02 -0.87221173267E+03  0.88551257547E+03  0.12700000000E+03 0.  0.
<mgrwt>
<rscale>  0 0.38663955E+03</rscale>
<asrwt>0</asrwt>
<pdfrwt beam="1">  1        2 0.15578053E+00 0.38663955E+03</pdfrwt>
<pdfrwt beam="2">  1       -2 0.48960214E-02 0.38663955E+03</pdfrwt>
<totfact> 0.52452279E+03</totfact>
</mgrwt>
</event>
<event>
 4    1  0.1399921E-004  0.4299909E+03  0.7818608E-02  0.1033863E+00
         -2   -1    0    0    0  501 -0.00000000000E+00  0.00000000000E+00  0.33594017070E+02  0.33594017166E+02  0.25500000000E-02 0. -1.
          2   -1    0    0  501    0  0.00000000000E+00 -0.00000000000E+00 -0.13759310398E+04  0.13759310398E+04  0.25500000000E-02 0.  1.
    5000001    1    1    2    0    0 -0.11660864167E+03  0.12827475823E+03 -0.69242827596E+03  0.72500890081E+03  0.12700000000E+03 0.  0.
   -5000001    1    1    2    0    0  0.11660864167E+03 -0.12827475823E+03 -0.64990874681E+03  0.68451615620E+03  0.12700000000E+03 0.  0.
<mgrwt>
<rscale>  0 0.42999093E+03</rscale>
<asrwt>0</asrwt>
<pdfrwt beam="1">  1        2 0.19656154E+00 0.42999093E+03</pdfrwt>
<pdfrwt beam="2">  1       -2 0.47991462E-02 0.42999093E+03</pdfrwt>
<totfact> 0.37767176E+03</totfact>
</mgrwt>
</event>
<event>
 4    1  0.1399921E-004  0.3303296E+03  0.7818608E-02  0.1070991E+00
          2   -1    0    0  501    0  0.00000000000E+00  0.00000000000E+00  0.35147189499E+03  0.35147189500E+03  0.25500000000E-02 0.  1.
         -2   -1    0    0    0  501 -0.00000000000E+00 -0.00000000000E+00 -0.77614779109E+02  0.77614779151E+02  0.25500000000E-02 0. -1.
    5000001    1    1    2    0    0 -0.79207121890E+02 -0.67240860831E+02  0.11244342634E+03  0.19891612718E+03  0.12700000000E+03 0.  0.
   -5000001    1    1    2    0    0  0.79207121890E+02  0.67240860831E+02  0.16141368954E+03  0.23017054697E+03  0.12700000000E+03 0.  0.
<mgrwt>
<rscale>  0 0.33032961E+03</rscale>
<asrwt>0</asrwt>
<pdfrwt beam="1">  1        2 0.50210269E-01 0.33032961E+03</pdfrwt>
<pdfrwt beam="2">  1       -2 0.11087826E-01 0.33032961E+03</pdfrwt>
<totfact> 0.56149805E+03</totfact>
</mgrwt>
</event>
<event>
 4    1  0.1399921E-004  0.3213680E+03  0.7818608E-02  0.1075021E+00
          2   -1    0    0  501    0  0.00000000000E+00  0.00000000000E+00  0.11727629940E+04  0.11727629940E+04  0.25500000000E-02 0.  1.
         -2   -1    0    0    0  501 -0.00000000000E+00 -0.00000000000E+00 -0.22015822583E+02  0.22015822730E+02  0.25500000000E-02 0. -1.
    5000001    1    1    2    0    0 -0.47899535656E+02  0.85214332788E+02  0.53225778079E+03  0.55586256687E+03  0.12700000000E+03 0.  0.
   -5000001    1    1    2    0    0  0.47899535656E+02 -0.85214332788E+02  0.61848939061E+03  0.63891624985E+03  0.12700000000E+03 0.  0.
<mgrwt>
<rscale>  0 0.32136796E+03</rscale>
<asrwt>0</asrwt>
<pdfrwt beam="1">  1        2 0.16753756E+00 0.32136796E+03</pdfrwt>
<pdfrwt beam="2">  1       -2 0.31451177E-02 0.32136796E+03</pdfrwt>
<totfact> 0.91840368E+03</totfact>
</mgrwt>
</event>
<event>
 4    1  0.1399921E-004  0.4515550E+03  0.7818608E-02  0.1027259E+00
          2   -1    0    0  501    0  0.00000000000E+00  0.00000000000E+00  0.14628427003E+04  0.14628427003E+04  0.25500000000E-02 0.  1.
         -2   -1    0    0    0  501 -0.00000000000E+00 -0.00000000000E+00 -0.34846865074E+02  0.34846865168E+02  0.25500000000E-02 0. -1.
    5000001    1    1    2    0    0 -0.13543120419E+03 -0.12082836602E+03  0.85877559845E+03  0.88688535538E+03  0.12700000000E+03 0.  0.
   -5000001    1    1    2    0    0  0.13543120419E+03  0.12082836602E+03  0.56922023679E+03  0.61080421010E+03  0.12700000000E+03 0.  0.
<mgrwt>
<rscale>  0 0.45155501E+03</rscale>
<asrwt>0</asrwt>
<pdfrwt beam="1">  1        2 0.20897753E+00 0.45155501E+03</pdfrwt>
<pdfrwt beam="2">  1       -2 0.49781235E-02 0.45155501E+03</pdfrwt>
<totfact> 0.32151722E+03</totfact>
</mgrwt>
</event>
<event>
 4    1  0.1399921E-004  0.5029312E+03  0.7818608E-02  0.1013017E+00
          2   -1    0    0  501    0  0.00000000000E+00  0.00000000000E+00  0.48794359993E+03  0.48794359994E+03  0.25500000000E-02 0.  1.
         -2   -1    0    0    0  501 -0.00000000000E+00 -0.00000000000E+00 -0.12959476489E+03  0.12959476492E+03  0.25500000000E-02 0. -1.
    5000001    1    1    2    0    0  0.14150878413E+03 -0.15695433746E+03  0.23990832436E+03  0.34401221509E+03  0.12700000000E+03 0.  0.
   -5000001    1    1    2    0    0 -0.14150878413E+03  0.15695433746E+03  0.11844051068E+03  0.27352614977E+03  0.12700000000E+03 0.  0.
<mgrwt>
<rscale>  0 0.50293115E+03</rscale>
<asrwt>0</asrwt>
<pdfrwt beam="1">  1        2 0.69706230E-01 0.50293115E+03</pdfrwt>
<pdfrwt beam="2">  1       -2 0.18513538E-01 0.50293115E+03</pdfrwt>
<totfact> 0.16803920E+03</totfact>
</mgrwt>
</event>
<event>
 4    1  0.1399921E-004  0.3330399E+03  0.7818608E-02  0.1069800E+00
         -2   -1    0    0    0  501 -0.00000000000E+00  0.00000000000E+00  0.35032457283E+03  0.35032457283E+03  0.25500000000E-02 0. -1.
          2   -1    0    0  501    0  0.00000000000E+00 -0.00000000000E+00 -0.79152030948E+02  0.79152030989E+02  0.25500000000E-02 0.  1.
    5000001    1    1    2    0    0  0.15378828536E+02 -0.44449228344E+02  0.26053212194E+03  0.29362940730E+03  0.12700000000E+03 0.  0.
   -5000001    1    1    2    0    0 -0.15378828536E+02  0.44449228344E+02  0.10640419939E+02  0.13584719653E+03  0.12700000000E+03 0.  0.
<mgrwt>
<rscale>  0 0.33303995E+03</rscale>
<asrwt>0</asrwt>
<pdfrwt beam="1">  1        2 0.11307433E-01 0.33303995E+03</pdfrwt>
<pdfrwt beam="2">  1       -2 0.50046367E-01 0.33303995E+03</pdfrwt>
<totfact> 0.21167770E+03</totfact>
</mgrwt>
</event>
<event>
 4    1  0.1399921E-004  0.6012593E+03  0.7818608E-02  0.9902797E-01
          2   -1    0    0  501    0  0.00000000000E+00  0.00000000000E+00  0.10203988947E+04  0.10203988947E+04  0.25500000000E-02 0.  1.
         -2   -1    0    0    0  501 -0.00000000000E+00 -0.00000000000E+00 -0.88571423466E+02  0.88571423502E+02  0.25500000000E-02 0. -1.
    5000001    1    1    2    0    0 -0.19974048491E+03  0.31251086145E+02  0.12895465789E+03  0.27135068728E+03  0.12700000000E+03 0.  0.
   -5000001    1    1    2    0    0  0.19974048491E+03 -0.31251086145E+02  0.80287281335E+03  0.83761963093E+03  0.12700000000E+03 0.  0.
<mgrwt>
<rscale>  0 0.60125929E+03</rscale>
<asrwt>0</asrwt>
<pdfrwt beam="1">  1        2 0.14577127E+00 0.60125929E+03</pdfrwt>
<pdfrwt beam="2">  1       -2 0.12653060E-01 0.60125929E+03</pdfrwt>
<totfact> 0.12780363E+03</totfact>
</mgrwt>
</event>
<event>
 4    1  0.1399921E-004  0.2857826E+03  0.7818608E-02  0.1092572E+00
         -2   -1    0    0    0  501 -0.00000000000E+00  0.00000000000E+00  0.12476185064E+03  0.12476185066E+03  0.25500000000E-02 0. -1.
          2   -1    0    0  501    0  0.00000000000E+00 -0.00000000000E+00 -0.16365522906E+03  0.16365522908E+03  0.25500000000E-02 0.  1.
    5000001    1    1    2    0    0 -0.22600332235E+02 -0.46795519367E+02 -0.59667979072E+02  0.14963242756E+03  0.12700000000E+03 0.  0.
   -5000001    1    1    2    0    0  0.22600332235E+02  0.46795519367E+02  0.20774600648E+02  0.13878465218E+03  0.12700000000E+03 0.  0.
<mgrwt>
<rscale>  0 0.28578264E+03</rscale>
<asrwt>0</asrwt>
<pdfrwt beam="1">  1        2 0.23379318E-01 0.28578264E+03</pdfrwt>
<pdfrwt beam="2">  1       -2 0.17823122E-01 0.28578264E+03</pdfrwt>
<totfact> 0.59104273E+03</totfact>
</mgrwt>
</event>
<event>
 4    1  0.1399921E-004  0.4291536E+03  0.7818608E-02  0.1034128E+00
          2   -1    0    0  501    0  0.00000000000E+00  0.00000000000E+00  0.39520109059E+03  0.39520109059E+03  0.25500000000E-02 0.  1.
         -2   -1    0    0    0  501 -0.00000000000E+00 -0.00000000000E+00 -0.11650573684E+03  0.11650573687E+03  0.25500000000E-02 0. -1.
    5000001    1    1    2    0    0 -0.15324239364E+03  0.37517881720E+02  0.54838057298E+02  0.20982620233E+03  0.12700000000E+03 0.  0.
   -5000001    1    1    2    0    0  0.15324239364E+03 -0.37517881720E+02  0.22385729644E+03  0.30188062513E+03  0.12700000000E+03 0.  0.
<mgrwt>
<rscale>  0 0.42915356E+03</rscale>
<asrwt>0</asrwt>
<pdfrwt beam="1">  1        2 0.56457298E-01 0.42915356E+03</pdfrwt>
<pdfrwt beam="2">  1       -2 0.16643677E-01 0.42915356E+03</pdfrwt>
<totfact> 0.25429602E+03</totfact>
</mgrwt>
</event>
<event>
 4    1  0.1399921E-004  0.3305195E+03  0.7818608E-02  0.1070907E+00
         -2   -1    0    0    0  501 -0.00000000000E+00  0.00000000000E+00  0.48381721799E+02  0.48381721866E+02  0.25500000000E-02 0. -1.
          2   -1    0    0  501    0  0.00000000000E+00 -0.00000000000E+00 -0.56448570322E+03  0.56448570323E+03  0.25500000000E-02 0.  1.
    5000001    1    1    2    0    0  0.79800613050E+02 -0.68544785035E+02 -0.23814443667E+03  0.28966929094E+03  0.12700000000E+03 0.  0.
   -5000001    1    1    2    0    0 -0.79800613050E+02  0.68544785035E+02 -0.27795954476E+03  0.32319813415E+03  0.12700000000E+03 0.  0.
<mgrwt>
<rscale>  0 0.33051953E+03</rscale>
<asrwt>0</asrwt>
<pdfrwt beam="1">  1        2 0.80640811E-01 0.33051953E+03</pdfrwt>
<pdfrwt beam="2">  1       -2 0.69116749E-02 0.33051953E+03</pdfrwt>
<totfact> 0.70320307E+03</totfact>
</mgrwt>
</event>
<event>
 4    1  0.1399921E-004  0.3313127E+03  0.7818608E-02  0.1070558E+00
          2   -1    0    0  501    0  0.00000000000E+00  0.00000000000E+00  0.11115941350E+04  0.11115941350E+04  0.25500000000E-02 0.  1.
         -2   -1    0    0    0  501 -0.00000000000E+00 -0.00000000000E+00 -0.24687088839E+02  0.24687088971E+02  0.25500000000E-02 0. -1.
    5000001    1    1    2    0    0 -0.77085545749E+02 -0.44068822526E+02  0.74427845534E+03  0.76023921338E+03  0.12700000000E+03 0.  0.
   -5000001    1    1    2    0    0  0.77085545749E+02  0.44068822526E+02  0.34262859084E+03  0.37604201061E+03  0.12700000000E+03 0.  0.
<mgrwt>
<rscale>  0 0.33131268E+03</rscale>
<asrwt>0</asrwt>
<pdfrwt beam="1">  1        2 0.15879922E+00 0.33131268E+03</pdfrwt>
<pdfrwt beam="2">  1       -2 0.35267258E-02 0.33131268E+03</pdfrwt>
<totfact> 0.83720931E+03</totfact>
</mgrwt>
</event>
<event>
 4    1  0.1399921E-004  0.3588516E+03  0.7818608E-02  0.1059040E+00
         -2   -1    0    0    0  501 -0.00000000000E+00  0.00000000000E+00  0.96475104292E+02  0.96475104326E+02  0.25500000000E-02 0. -1.
          2   -1    0    0  501    0  0.00000000000E+00 -0.00000000000E+00 -0.33369864639E+03  0.33369864640E+03  0.25500000000E-02 0.  1.
    5000001    1    1    2    0    0 -0.32475613430E+02  0.11755107339E+03 -0.77229820050E+02  0.19226639183E+03  0.12700000000E+03 0.  0.
   -5000001    1    1    2    0    0  0.32475613430E+02 -0.11755107339E+03 -0.15999372205E+03  0.23790735890E+03  0.12700000000E+03 0.  0.
<mgrwt>
<rscale>  0 0.35885157E+03</rscale>
<asrwt>0</asrwt>
<pdfrwt beam="1">  1        2 0.47671235E-01 0.35885157E+03</pdfrwt>
<pdfrwt beam="2">  1       -2 0.13782158E-01 0.35885157E+03</pdfrwt>
<totfact> 0.41768827E+03</totfact>
</mgrwt>
</event>
<event>
 4    1  0.1399921E-004  0.9549810E+03  0.7818608E-02  0.9359347E-01
          2   -1    0    0  501    0  0.00000000000E+00  0.00000000000E+00  0.11328671986E+04  0.11328671986E+04  0.25500000000E-02 0.  1.
         -2   -1    0    0    0  501 -0.00000000000E+00 -0.00000000000E+00 -0.20125675327E+03  0.20125675328E+03  0.25500000000E-02 0. -1.
    5000001    1    1    2    0    0  0.30821056761E+03 -0.18055932152E+03  0.60254629661E+02  0.38386852303E+03  0.12700000000E+03 0.  0.
   -5000001    1    1    2    0    0 -0.30821056761E+03  0.18055932152E+03  0.87135581569E+03  0.95025542888E+03  0.12700000000E+03 0.  0.
<mgrwt>
<rscale>  0 0.95498099E+03</rscale>
<asrwt>0</asrwt>
<pdfrwt beam="1">  1        2 0.16183817E+00 0.95498099E+03</pdfrwt>
<pdfrwt beam="2">  1       -2 0.28750965E-01 0.95498099E+03</pdfrwt>
<totfact> 0.25867361E+02</totfact>
</mgrwt>
</event>
<event>
 4    1  0.1399921E-004  0.2756290E+03  0.7818608E-02  0.1098101E+00
         -2   -1    0    0    0  501 -0.00000000000E+00  0.00000000000E+00  0.26208531151E+02  0.26208531275E+02  0.25500000000E-02 0. -1.
          2   -1    0    0  501    0  0.00000000000E+00 -0.00000000000E+00 -0.72468128131E+03  0.72468128131E+03  0.25500000000E-02 0.  1.
    5000001    1    1    2    0    0  0.10001321142E+02  0.18433419499E+02 -0.21510852311E+03  0.25068006321E+03  0.12700000000E+03 0.  0.
   -5000001    1    1    2    0    0 -0.10001321142E+02 -0.18433419499E+02 -0.48336422705E+03  0.50020974938E+03  0.12700000000E+03 0.  0.
<mgrwt>
<rscale>  0 0.27562897E+03</rscale>
<asrwt>0</asrwt>
<pdfrwt beam="1">  1        2 0.10352589E+00 0.27562897E+03</pdfrwt>
<pdfrwt beam="2">  1       -2 0.37440763E-02 0.27562897E+03</pdfrwt>
<totfact> 0.13308849E+04</totfact>
</mgrwt>
</event>
<event>
 4    1  0.1399921E-004  0.7815864E+03  0.7818608E-02  0.9587059E-01
          2   -1    0    0  501    0  0.00000000000E+00  0.00000000000E+00  0.94830755953E+03  0.94830755953E+03  0.25500000000E-02 0.  1.
         -2   -1    0    0    0  501 -0.00000000000E+00 -0.00000000000E+00 -0.16104408567E+03  0.16104408569E+03  0.25500000000E-02 0. -1.
    5000001    1    1    2    0    0  0.27784575387E+03  0.21555243410E+03  0.55502233058E+03  0.66920841465E+03  0.12700000000E+03 0.  0.
   -5000001    1    1    2    0    0 -0.27784575387E+03 -0.21555243410E+03  0.23224114328E+03  0.44014323057E+03  0.12700000000E+03 0.  0.
<mgrwt>
<rscale>  0 0.78158640E+03</rscale>
<asrwt>0</asrwt>
<pdfrwt beam="1">  1        2 0.13547251E+00 0.78158640E+03</pdfrwt>
<pdfrwt beam="2">  1       -2 0.23006298E-01 0.78158640E+03</pdfrwt>
<totfact> 0.50523662E+02</totfact>
</mgrwt>
</event>
<event>
 4    1  0.1399921E-004  0.6124408E+03  0.7818608E-02  0.9879926E-01
          2   -1    0    0  501    0  0.00000000000E+00  0.00000000000E+00  0.24752288688E+03  0.24752288689E+03  0.25500000000E-02 0.  1.
         -2   -1    0    0    0  501 -0.00000000000E+00 -0.00000000000E+00 -0.37883738660E+03  0.37883738661E+03  0.25500000000E-02 0. -1.
    5000001    1    1    2    0    0 -0.32212651868E+02 -0.27575688042E+03 -0.41403034372E+02  0.30809531527E+03  0.12700000000E+03 0.  0.
   -5000001    1    1    2    0    0  0.32212651868E+02  0.27575688042E+03 -0.89911465350E+02  0.31826495823E+03  0.12700000000E+03 0.  0.
<mgrwt>
<rscale>  0 0.61244077E+03</rscale>
<asrwt>0</asrwt>
<pdfrwt beam="1">  1        2 0.35360412E-01 0.61244077E+03</pdfrwt>
<pdfrwt beam="2">  1       -2 0.54119627E-01 0.61244077E+03</pdfrwt>
<totfact> 0.47930449E+02</totfact>
</mgrwt>
</event>
<event>
 4    1  0.1399921E-004  0.4036858E+03  0.7818608E-02  0.1042511E+00
          2   -1    0    0  501    0  0.00000000000E+00  0.00000000000E+00  0.41168084187E+04  0.41168084187E+04  0.25500000000E-02 0.  1.
         -2   -1    0    0    0  501 -0.00000000000E+00 -0.00000000000E+00 -0.98961516994E+01  0.98961520280E+01  0.25500000000E-02 0. -1.
    5000001    1    1    2    0    0  0.11612422063E+03  0.10489086677E+03  0.21675798706E+04  0.21769286677E+04  0.12700000000E+03 0.  0.
   -5000001    1    1    2    0    0 -0.11612422063E+03 -0.10489086677E+03  0.19393323964E+04  0.19497759031E+04  0.12700000000E+03 0.  0.
<mgrwt>
<rscale>  0 0.40368582E+03</rscale>
<asrwt>0</asrwt>
<pdfrwt beam="1">  1        2 0.58811786E+00 0.40368582E+03</pdfrwt>
<pdfrwt beam="2">  1       -2 0.14137303E-02 0.40368582E+03</pdfrwt>
<totfact> 0.75949807E+02</totfact>
</mgrwt>
</event>
<event>
 4    1  0.1399921E-004  0.3945929E+03  0.7818608E-02  0.1045668E+00
         -2   -1    0    0    0  501 -0.00000000000E+00  0.00000000000E+00  0.53766631800E+02  0.53766631860E+02  0.25500000000E-02 0. -1.
          2   -1    0    0  501    0  0.00000000000E+00 -0.00000000000E+00 -0.72397854474E+03  0.72397854475E+03  0.25500000000E-02 0.  1.
    5000001    1    1    2    0    0  0.83996334267E+02  0.12236676362E+03 -0.28048812869E+03  0.34180637698E+03  0.12700000000E+03 0.  0.
   -5000001    1    1    2    0    0 -0.83996334267E+02 -0.12236676362E+03 -0.38972378426E+03  0.43593879963E+03  0.12700000000E+03 0.  0.
<mgrwt>
<rscale>  0 0.39459289E+03</rscale>
<asrwt>0</asrwt>
<pdfrwt beam="1">  1        2 0.10342550E+00 0.39459289E+03</pdfrwt>
<pdfrwt beam="2">  1       -2 0.76809478E-02 0.39459289E+03</pdfrwt>
<totfact> 0.44709641E+03</totfact>
</mgrwt>
</event>
<event>
 4    1  0.1399921E-004  0.6015341E+03  0.7818608E-02  0.9902228E-01
         -2   -1    0    0    0  501 -0.00000000000E+00  0.00000000000E+00  0.93280045225E+02  0.93280045260E+02  0.25500000000E-02 0. -1.
          2   -1    0    0  501    0  0.00000000000E+00 -0.00000000000E+00 -0.96977674783E+03  0.96977674784E+03  0.25500000000E-02 0.  1.
    5000001    1    1    2    0    0 -0.12308875008E+03 -0.23982825461E+03 -0.36617199219E+03  0.47210100612E+03  0.12700000000E+03 0.  0.
   -5000001    1    1    2    0    0  0.12308875008E+03  0.23982825461E+03 -0.51032471041E+03  0.59095578698E+03  0.12700000000E+03 0.  0.
<mgrwt>
<rscale>  0 0.60153410E+03</rscale>
<asrwt>0</asrwt>
<pdfrwt beam="1">  1        2 0.13853953E+00 0.60153410E+03</pdfrwt>
<pdfrwt beam="2">  1       -2 0.13325721E-01 0.60153410E+03</pdfrwt>
<totfact> 0.12593897E+03</totfact>
</mgrwt>
</event>
<event>
 4    1  0.1399921E-004  0.5071536E+03  0.7818608E-02  0.1011928E+00
          2   -1    0    0  501    0  0.00000000000E+00  0.00000000000E+00  0.93062877176E+03  0.93062877176E+03  0.25500000000E-02 0.  1.
         -2   -1    0    0    0  501 -0.00000000000E+00 -0.00000000000E+00 -0.69094341345E+02  0.69094341392E+02  0.25500000000E-02 0. -1.
    5000001    1    1    2    0    0 -0.21213056994E+03  0.44631254820E+02  0.36302826808E+03  0.44148595791E+03  0.12700000000E+03 0.  0.
   -5000001    1    1    2    0    0  0.21213056994E+03 -0.44631254820E+02  0.49850616233E+03  0.55823715524E+03  0.12700000000E+03 0.  0.
<mgrwt>
<rscale>  0 0.50715355E+03</rscale>
<asrwt>0</asrwt>
<pdfrwt beam="1">  1        2 0.13294695E+00 0.50715355E+03</pdfrwt>
<pdfrwt beam="2">  1       -2 0.98706213E-02 0.50715355E+03</pdfrwt>
<totfact> 0.21800232E+03</totfact>
</mgrwt>
</event>
<event>
 4    1  0.1399921E-004  0.3083382E+03  0.7818608E-02  0.1081145E+00
         -2   -1    0    0    0  501 -0.00000000000E+00  0.00000000000E+00  0.21647142188E+02  0.21647142338E+02  0.25500000000E-02 0. -1.
          2   -1    0    0  501    0  0.00000000000E+00 -0.00000000000E+00 -0.10979789234E+04  0.10979789234E+04  0.25500000000E-02 0.  1.
    5000001    1    1    2    0    0 -0.75008459734E+02 -0.13075619719E+02 -0.69400434296E+03  0.70962544269E+03  0.12700000000E+03 0.  0.
   -5000001    1    1    2    0    0  0.75008459734E+02  0.13075619719E+02 -0.38232743824E+03  0.41000062304E+03  0.12700000000E+03 0.  0.
<mgrwt>
<rscale>  0 0.30833816E+03</rscale>
<asrwt>0</asrwt>
<pdfrwt beam="1">  1        2 0.15685410E+00 0.30833816E+03</pdfrwt>
<pdfrwt beam="2">  1       -2 0.30924496E-02 0.30833816E+03</pdfrwt>
<totfact> 0.10359279E+04</totfact>
</mgrwt>
</event>
<event>
 4    1  0.1399921E-004  0.5503156E+03  0.7818608E-02  0.1001421E+00
          2   -1    0    0  501    0  0.00000000000E+00  0.00000000000E+00  0.12583582072E+04  0.12583582072E+04  0.25500000000E-02 0.  1.
         -2   -1    0    0    0  501 -0.00000000000E+00 -0.00000000000E+00 -0.60167145381E+02  0.60167145435E+02  0.25500000000E-02 0. -1.
    5000001    1    1    2    0    0  0.21830109822E+03 -0.26411119551E+02  0.85299668468E+03  0.88999171951E+03  0.12700000000E+03 0.  0.
   -5000001    1    1    2    0    0 -0.21830109822E+03  0.26411119551E+02  0.34519437717E+03  0.42853363316E+03  0.12700000000E+03 0.  0.
<mgrwt>
<rscale>  0 0.55031562E+03</rscale>
<asrwt>0</asrwt>
<pdfrwt beam="1">  1        2 0.17976545E+00 0.55031562E+03</pdfrwt>
<pdfrwt beam="2">  1       -2 0.85953067E-02 0.55031562E+03</pdfrwt>
<totfact> 0.17522280E+03</totfact>
</mgrwt>
</event>
<event>
 4    1  0.1399921E-004  0.2714549E+03  0.7818608E-02  0.1100450E+00
         -2   -1    0    0    0  501 -0.00000000000E+00  0.00000000000E+00  0.35297327488E+02  0.35297327580E+02  0.25500000000E-02 0. -1.
          2   -1    0    0  501    0  0.00000000000E+00 -0.00000000000E+00 -0.52190751872E+03  0.52190751872E+03  0.25500000000E-02 0.  1.
    5000001    1    1    2    0    0  0.22919705204E+02  0.40582608713E+02 -0.22075573862E+03  0.25890994023E+03  0.12700000000E+03 0.  0.
   -5000001    1    1    2    0    0 -0.22919705204E+02 -0.40582608713E+02 -0.26585445261E+03  0.29829490607E+03  0.12700000000E+03 0.  0.
<mgrwt>
<rscale>  0 0.27145490E+03</rscale>
<asrwt>0</asrwt>
<pdfrwt beam="1">  1        2 0.74558212E-01 0.27145490E+03</pdfrwt>
<pdfrwt beam="2">  1       -2 0.50424757E-02 0.27145490E+03</pdfrwt>
<totfact> 0.12378938E+04</totfact>
</mgrwt>
</event>
<event>
 4    1  0.1399921E-004  0.3594871E+03  0.7818608E-02  0.1058787E+00
          2   -1    0    0  501    0  0.00000000000E+00  0.00000000000E+00  0.21921728352E+04  0.21921728352E+04  0.25500000000E-02 0.  1.
         -2   -1    0    0    0  501 -0.00000000000E+00 -0.00000000000E+00 -0.14737771498E+02  0.14737771719E+02  0.25500000000E-02 0. -1.
    5000001    1    1    2    0    0 -0.80280338670E+02 -0.83954420308E+02  0.14068523452E+04  0.14173411018E+04  0.12700000000E+03 0.  0.
   -5000001    1    1    2    0    0  0.80280338670E+02  0.83954420308E+02  0.77058271845E+03  0.78956950513E+03  0.12700000000E+03 0.  0.
<mgrwt>
<rscale>  0 0.35948709E+03</rscale>
<asrwt>0</asrwt>
<pdfrwt beam="1">  1        2 0.31316734E+00 0.35948709E+03</pdfrwt>
<pdfrwt beam="2">  1       -2 0.21053974E-02 0.35948709E+03</pdfrwt>
<totfact> 0.50971127E+03</totfact>
</mgrwt>
</event>
<event>
 4    1  0.1399921E-004  0.3682066E+03  0.7818608E-02  0.1055381E+00
         -2   -1    0    0    0  501 -0.00000000000E+00  0.00000000000E+00  0.20149041289E+02  0.20149041451E+02  0.25500000000E-02 0. -1.
          2   -1    0    0  501    0  0.00000000000E+00 -0.00000000000E+00 -0.16821660779E+04  0.16821660779E+04  0.25500000000E-02 0.  1.
    5000001    1    1    2    0    0  0.80312773165E+02 -0.10208625429E+03 -0.96918824707E+03  0.98606622653E+03  0.12700000000E+03 0.  0.
   -5000001    1    1    2    0    0 -0.80312773165E+02  0.10208625429E+03 -0.69282878951E+03  0.71624889279E+03  0.12700000000E+03 0.  0.
<mgrwt>
<rscale>  0 0.36820665E+03</rscale>
<asrwt>0</asrwt>
<pdfrwt beam="1">  1        2 0.24030935E+00 0.36820665E+03</pdfrwt>
<pdfrwt beam="2">  1       -2 0.28784355E-02 0.36820665E+03</pdfrwt>
<totfact> 0.57132702E+03</totfact>
</mgrwt>
</event>
<event>
 4    1  0.1399921E-004  0.7002760E+03  0.7818608E-02  0.9716760E-01
         -2   -1    0    0    0  501 -0.00000000000E+00  0.00000000000E+00  0.79753007994E+02  0.79753008035E+02  0.25500000000E-02 0. -1.
          2   -1    0    0  501    0  0.00000000000E+00 -0.00000000000E+00 -0.15372038303E+04  0.15372038303E+04  0.25500000000E-02 0.  1.
    5000001    1    1    2    0    0  0.29385572740E+03 -0.69702844442E+02 -0.10139436687E+04  0.10655610908E+04  0.12700000000E+03 0.  0.
   -5000001    1    1    2    0    0 -0.29385572740E+03  0.69702844442E+02 -0.44350715364E+03  0.55139574751E+03  0.12700000000E+03 0.  0.
<mgrwt>
<rscale>  0 0.70027603E+03</rscale>
<asrwt>0</asrwt>
<pdfrwt beam="1">  1        2 0.21960053E+00 0.70027603E+03</pdfrwt>
<pdfrwt beam="2">  1       -2 0.11393288E-01 0.70027603E+03</pdfrwt>
<totfact> 0.78400561E+02</totfact>
</mgrwt>
</event>
<event>
 4    1  0.1399921E-004  0.6249533E+03  0.7818608E-02  0.9854947E-01
          2   -1    0    0  501    0  0.00000000000E+00  0.00000000000E+00  0.13606871732E+04  0.13606871732E+04  0.25500000000E-02 0. -1.
         -2   -1    0    0    0  501 -0.00000000000E+00 -0.00000000000E+00 -0.71759079738E+02  0.71759079783E+02  0.25500000000E-02 0.  1.
    5000001    1    1    2    0    0 -0.21050198333E+03  0.19060998906E+02  0.20453739246E+03  0.32037314429E+03  0.12700000000E+03 0.  0.
   -5000001    1    1    2    0    0  0.21050198333E+03 -0.19060998906E+02  0.10843907010E+04  0.11120731087E+04  0.12700000000E+03 0.  0.
<mgrwt>
<rscale>  0 0.62495331E+03</rscale>
<asrwt>0</asrwt>
<pdfrwt beam="1">  1        2 0.19438387E+00 0.62495331E+03</pdfrwt>
<pdfrwt beam="2">  1       -2 0.10251298E-01 0.62495331E+03</pdfrwt>
<totfact> 0.11583723E+03</totfact>
</mgrwt>
</event>
<event>
 4    1  0.1399921E-004  0.4778016E+03  0.7818608E-02  0.1019741E+00
          2   -1    0    0  501    0  0.00000000000E+00  0.00000000000E+00  0.48764879090E+03  0.48764879091E+03  0.25500000000E-02 0.  1.
         -2   -1    0    0    0  501 -0.00000000000E+00 -0.00000000000E+00 -0.11703830316E+03  0.11703830319E+03  0.25500000000E-02 0. -1.
    5000001    1    1    2    0    0 -0.13533739597E+03  0.15031871898E+03  0.17807280689E+03  0.29791081313E+03  0.12700000000E+03 0.  0.
   -5000001    1    1    2    0    0  0.13533739597E+03 -0.15031871898E+03  0.19253768084E+03  0.30677628097E+03  0.12700000000E+03 0.  0.
<mgrwt>
<rscale>  0 0.47780158E+03</rscale>
<asrwt>0</asrwt>
<pdfrwt beam="1">  1        2 0.69664115E-01 0.47780158E+03</pdfrwt>
<pdfrwt beam="2">  1       -2 0.16719757E-01 0.47780158E+03</pdfrwt>
<totfact> 0.20003115E+03</totfact>
</mgrwt>
</event>
<event>
 4    1  0.1399921E-004  0.4064918E+03  0.7818608E-02  0.1041555E+00
          2   -1    0    0  501    0  0.00000000000E+00  0.00000000000E+00  0.14995311891E+04  0.14995311891E+04  0.25500000000E-02 0.  1.
         -2   -1    0    0    0  501 -0.00000000000E+00 -0.00000000000E+00 -0.27547879293E+02  0.27547879411E+02  0.25500000000E-02 0. -1.
    5000001    1    1    2    0    0 -0.15764025695E+03 -0.16661665508E+02  0.70894254489E+03  0.73746633392E+03  0.12700000000E+03 0.  0.
   -5000001    1    1    2    0    0  0.15764025695E+03  0.16661665508E+02  0.76304076493E+03  0.78961273460E+03  0.12700000000E+03 0.  0.
<mgrwt>
<rscale>  0 0.40649184E+03</rscale>
<asrwt>0</asrwt>
<pdfrwt beam="1">  1        2 0.21421877E+00 0.40649184E+03</pdfrwt>
<pdfrwt beam="2">  1       -2 0.39354109E-02 0.40649184E+03</pdfrwt>
<totfact> 0.44102765E+03</totfact>
</mgrwt>
</event>
<event>
 4    1  0.1399921E-004  0.3257488E+03  0.7818608E-02  0.1073034E+00
          2   -1    0    0  501    0  0.00000000000E+00  0.00000000000E+00  0.11444483279E+04  0.11444483279E+04  0.25500000000E-02 0.  1.
         -2   -1    0    0    0  501 -0.00000000000E+00 -0.00000000000E+00 -0.23179788879E+02  0.23179789019E+02  0.25500000000E-02 0. -1.
    5000001    1    1    2    0    0  0.95849937485E+02  0.34608065068E+02  0.57411388513E+03  0.59675847860E+03  0.12700000000E+03 0.  0.
   -5000001    1    1    2    0    0 -0.95849937485E+02 -0.34608065068E+02  0.54715465393E+03  0.57086963836E+03  0.12700000000E+03 0.  0.
<mgrwt>
<rscale>  0 0.32574880E+03</rscale>
<asrwt>0</asrwt>
<pdfrwt beam="1">  1        2 0.16349262E+00 0.32574880E+03</pdfrwt>
<pdfrwt beam="2">  1       -2 0.33113984E-02 0.32574880E+03</pdfrwt>
<totfact> 0.88172686E+03</totfact>
</mgrwt>
</event>
<event>
 4    1  0.1399921E-004  0.3006854E+03  0.7818608E-02  0.1084898E+00
          2   -1    0    0  501    0  0.00000000000E+00  0.00000000000E+00  0.78358935146E+03  0.78358935146E+03  0.25500000000E-02 0.  1.
         -2   -1    0    0    0  501 -0.00000000000E+00 -0.00000000000E+00 -0.28845380406E+02  0.28845380519E+02  0.25500000000E-02 0. -1.
    5000001    1    1    2    0    0 -0.42309665567E+02  0.52604879779E+02  0.49565880854E+03  0.51610467510E+03  0.12700000000E+03 0.  0.
   -5000001    1    1    2    0    0  0.42309665567E+02 -0.52604879779E+02  0.25908516251E+03  0.29633005688E+03  0.12700000000E+03 0.  0.
<mgrwt>
<rscale>  0 0.30068544E+03</rscale>
<asrwt>0</asrwt>
<pdfrwt beam="1">  1        2 0.11194134E+00 0.30068544E+03</pdfrwt>
<pdfrwt beam="2">  1       -2 0.41207684E-02 0.30068544E+03</pdfrwt>
<totfact> 0.10510402E+04</totfact>
</mgrwt>
</event>
<event>
 4    1  0.1399921E-004  0.6834470E+03  0.7818608E-02  0.9745966E-01
          2   -1    0    0  501    0  0.00000000000E+00  0.00000000000E+00  0.27542243284E+04  0.27542243284E+04  0.25500000000E-02 0.  1.
         -2   -1    0    0    0  501 -0.00000000000E+00 -0.00000000000E+00 -0.42398483033E+02  0.42398483110E+02  0.25500000000E-02 0. -1.
    5000001    1    1    2    0    0 -0.40677217477E+02 -0.29650531273E+03  0.17865570620E+04  0.18158978970E+04  0.12700000000E+03 0.  0.
   -5000001    1    1    2    0    0  0.40677217477E+02  0.29650531273E+03  0.92526878343E+03  0.98072491459E+03  0.12700000000E+03 0.  0.
<mgrwt>
<rscale>  0 0.68344695E+03</rscale>
<asrwt>0</asrwt>
<pdfrwt beam="1">  1        2 0.39346075E+00 0.68344695E+03</pdfrwt>
<pdfrwt beam="2">  1       -2 0.60569241E-02 0.68344695E+03</pdfrwt>
<totfact> 0.51566028E+02</totfact>
</mgrwt>
</event>
<event>
 4    1  0.1399921E-004  0.1461186E+04  0.7818608E-02  0.8910682E-01
         -2   -1    0    0    0  501 -0.00000000000E+00  0.00000000000E+00  0.49899688601E+03  0.49899688601E+03  0.25500000000E-02 0. -1.
          2   -1    0    0  501    0  0.00000000000E+00 -0.00000000000E+00 -0.10696788313E+04  0.10696788313E+04  0.25500000000E-02 0.  1.
    5000001    1    1    2    0    0 -0.27577275915E+03 -0.66447975324E+03 -0.29318964486E+03  0.78719319421E+03  0.12700000000E+03 0.  0.
   -5000001    1    1    2    0    0  0.27577275915E+03  0.66447975324E+03 -0.27749230048E+03  0.78148252315E+03  0.12700000000E+03 0.  0.
<mgrwt>
<rscale>  0 0.14611864E+04</rscale>
<asrwt>0</asrwt>
<pdfrwt beam="1">  1        2 0.15281126E+00 0.14611864E+04</pdfrwt>
<pdfrwt beam="2">  1       -2 0.71285270E-01 0.14611864E+04</pdfrwt>
<totfact> 0.44163131E+01</totfact>
</mgrwt>
</event>
<event>
 4    1  0.1399921E-004  0.3355473E+03  0.7818608E-02  0.1068708E+00
         -2   -1    0    0    0  501 -0.00000000000E+00  0.00000000000E+00  0.16486126637E+02  0.16486126834E+02  0.25500000000E-02 0. -1.
          2   -1    0    0  501    0  0.00000000000E+00 -0.00000000000E+00 -0.17073743596E+04  0.17073743596E+04  0.25500000000E-02 0.  1.
    5000001    1    1    2    0    0 -0.21630201946E+02  0.10644169352E+03 -0.76902013859E+03  0.78696802559E+03  0.12700000000E+03 0.  0.
   -5000001    1    1    2    0    0  0.21630201946E+02 -0.10644169352E+03 -0.92186809442E+03  0.93689246089E+03  0.12700000000E+03 0.  0.
<mgrwt>
<rscale>  0 0.33554725E+03</rscale>
<asrwt>0</asrwt>
<pdfrwt beam="1">  1        2 0.24391051E+00 0.33554725E+03</pdfrwt>
<pdfrwt beam="2">  1       -2 0.23551620E-02 0.33554725E+03</pdfrwt>
<totfact> 0.74826193E+03</totfact>
</mgrwt>
</event>
<event>
 4    1  0.1399921E-004  0.3224491E+03  0.7818608E-02  0.1074528E+00
         -2   -1    0    0    0  501 -0.00000000000E+00  0.00000000000E+00  0.14010056876E+02  0.14010057108E+02  0.25500000000E-02 0. -1.
          2   -1    0    0  501    0  0.00000000000E+00 -0.00000000000E+00 -0.18553357915E+04  0.18553357916E+04  0.25500000000E-02 0.  1.
    5000001    1    1    2    0    0 -0.97696912339E+02 -0.12635222410E+02 -0.84732607675E+03  0.86243539808E+03  0.12700000000E+03 0.  0.
   -5000001    1    1    2    0    0  0.97696912339E+02  0.12635222410E+02 -0.99399965793E+03  0.10069104506E+04  0.12700000000E+03 0.  0.
<mgrwt>
<rscale>  0 0.32244913E+03</rscale>
<asrwt>0</asrwt>
<pdfrwt beam="1">  1        2 0.26504781E+00 0.32244913E+03</pdfrwt>
<pdfrwt beam="2">  1       -2 0.20014379E-02 0.32244913E+03</pdfrwt>
<totfact> 0.80452038E+03</totfact>
</mgrwt>
</event>
<event>
 4    1  0.1399921E-004  0.2881350E+03  0.7818608E-02  0.1091327E+00
         -2   -1    0    0    0  501 -0.00000000000E+00  0.00000000000E+00  0.74082658629E+01  0.74082663018E+01  0.25500000000E-02 0. -1.
          2   -1    0    0  501    0  0.00000000000E+00 -0.00000000000E+00 -0.28016602726E+04  0.28016602726E+04  0.25500000000E-02 0.  1.
    5000001    1    1    2    0    0  0.47791172461E+02 -0.47514734314E+02 -0.14869021052E+04  0.14938368440E+04  0.12700000000E+03 0.  0.
   -5000001    1    1    2    0    0 -0.47791172461E+02  0.47514734314E+02 -0.13073499016E+04  0.13152316949E+04  0.12700000000E+03 0.  0.
<mgrwt>
<rscale>  0 0.28813500E+03</rscale>
<asrwt>0</asrwt>
<pdfrwt beam="1">  1        2 0.40023651E+00 0.28813500E+03</pdfrwt>
<pdfrwt beam="2">  1       -2 0.10583255E-02 0.28813500E+03</pdfrwt>
<totfact> 0.69206890E+03</totfact>
</mgrwt>
</event>
<event>
 4    1  0.1399921E-004  0.3507443E+03  0.7818608E-02  0.1062310E+00
          2   -1    0    0  501    0  0.00000000000E+00  0.00000000000E+00  0.65411527614E+03  0.65411527614E+03  0.25500000000E-02 0.  1.
         -2   -1    0    0    0  501 -0.00000000000E+00 -0.00000000000E+00 -0.47018313032E+02  0.47018313102E+02  0.25500000000E-02 0. -1.
    5000001    1    1    2    0    0  0.11312076641E+03  0.38366530079E+02  0.26572066197E+03  0.31781247399E+03  0.12700000000E+03 0.  0.
   -5000001    1    1    2    0    0 -0.11312076641E+03 -0.38366530079E+02  0.34137630113E+03  0.38332111526E+03  0.12700000000E+03 0.  0.
<mgrwt>
<rscale>  0 0.35074433E+03</rscale>
<asrwt>0</asrwt>
<pdfrwt beam="1">  1        2 0.93445027E-01 0.35074433E+03</pdfrwt>
<pdfrwt beam="2">  1       -2 0.67169027E-02 0.35074433E+03</pdfrwt>
<totfact> 0.62106063E+03</totfact>
</mgrwt>
</event>
<event>
 4    1  0.1399921E-004  0.3713985E+03  0.7818608E-02  0.1054160E+00
         -2   -1    0    0    0  501 -0.00000000000E+00  0.00000000000E+00  0.60625574125E+02  0.60625574179E+02  0.25500000000E-02 0. -1.
          2   -1    0    0  501    0  0.00000000000E+00 -0.00000000000E+00 -0.56880627724E+03  0.56880627725E+03  0.25500000000E-02 0.  1.
    5000001    1    1    2    0    0 -0.95850092842E+02 -0.95172686227E+02 -0.23630531369E+03  0.30035692397E+03  0.12700000000E+03 0.  0.
   -5000001    1    1    2    0    0  0.95850092842E+02  0.95172686227E+02 -0.27187538943E+03  0.32907492745E+03  0.12700000000E+03 0.  0.
<mgrwt>
<rscale>  0 0.37139848E+03</rscale>
<asrwt>0</asrwt>
<pdfrwt beam="1">  1        2 0.81258036E-01 0.37139848E+03</pdfrwt>
<pdfrwt beam="2">  1       -2 0.86607966E-02 0.37139848E+03</pdfrwt>
<totfact> 0.49076740E+03</totfact>
</mgrwt>
</event>
<event>
 4    1  0.1399921E-004  0.4311662E+03  0.7818608E-02  0.1033492E+00
          2   -1    0    0  501    0  0.00000000000E+00  0.00000000000E+00  0.33090183172E+04  0.33090183172E+04  0.25500000000E-02 0. -1.
         -2   -1    0    0    0  501 -0.00000000000E+00 -0.00000000000E+00 -0.14045272540E+02  0.14045272772E+02  0.25500000000E-02 0.  1.
    5000001    1    1    2    0    0  0.16322112645E+03  0.60461386374E+01  0.21143499875E+04  0.21244487665E+04  0.12700000000E+03 0.  0.
   -5000001    1    1    2    0    0 -0.16322112645E+03 -0.60461386374E+01  0.11806230571E+04  0.11986148234E+04  0.12700000000E+03 0.  0.
<mgrwt>
<rscale>  0 0.43116616E+03</rscale>
<asrwt>0</asrwt>
<pdfrwt beam="1">  1        2 0.47271629E+00 0.43116616E+03</pdfrwt>
<pdfrwt beam="2">  1       -2 0.20064701E-02 0.43116616E+03</pdfrwt>
<totfact> 0.14207716E+03</totfact>
</mgrwt>
</event>
<event>
 4    1  0.1399921E-004  0.3151977E+03  0.7818608E-02  0.1077881E+00
          2   -1    0    0  501    0  0.00000000000E+00  0.00000000000E+00  0.53643755907E+03  0.53643755907E+03  0.25500000000E-02 0.  1.
         -2   -1    0    0    0  501 -0.00000000000E+00 -0.00000000000E+00 -0.46300640323E+02  0.46300640393E+02  0.25500000000E-02 0. -1.
    5000001    1    1    2    0    0  0.57636152137E+02 -0.13879139053E+02  0.37830855547E+03  0.40343638864E+03  0.12700000000E+03 0.  0.
   -5000001    1    1    2    0    0 -0.57636152137E+02  0.13879139053E+02  0.11182836327E+03  0.17930181083E+03  0.12700000000E+03 0.  0.
<mgrwt>
<rscale>  0 0.31519773E+03</rscale>
<asrwt>0</asrwt>
<pdfrwt beam="1">  1        2 0.76633928E-01 0.31519773E+03</pdfrwt>
<pdfrwt beam="2">  1       -2 0.66143780E-02 0.31519773E+03</pdfrwt>
<totfact> 0.79629851E+03</totfact>
</mgrwt>
</event>
<event>
 4    1  0.1399921E-004  0.3267481E+03  0.7818608E-02  0.1072585E+00
          2   -1    0    0  501    0  0.00000000000E+00  0.00000000000E+00  0.21330263901E+04  0.21330263901E+04  0.25500000000E-02 0.  1.
         -2   -1    0    0    0  501 -0.00000000000E+00 -0.00000000000E+00 -0.12513246982E+02  0.12513247242E+02  0.25500000000E-02 0. -1.
    5000001    1    1    2    0    0 -0.62726060203E+02  0.63736865109E+02  0.13928234042E+04  0.14014574492E+04  0.12700000000E+03 0.  0.
   -5000001    1    1    2    0    0  0.62726060203E+02 -0.63736865109E+02  0.72768973894E+03  0.74408218818E+03  0.12700000000E+03 0.  0.
<mgrwt>
<rscale>  0 0.32674814E+03</rscale>
<asrwt>0</asrwt>
<pdfrwt beam="1">  1        2 0.30471777E+00 0.32674814E+03</pdfrwt>
<pdfrwt beam="2">  1       -2 0.17876084E-02 0.32674814E+03</pdfrwt>
<totfact> 0.69452835E+03</totfact>
</mgrwt>
</event>
<event>
 4    1  0.1399921E-004  0.6086310E+03  0.7818608E-02  0.9887659E-01
          2   -1    0    0  501    0  0.00000000000E+00  0.00000000000E+00  0.17177545008E+04  0.17177545008E+04  0.25500000000E-02 0.  1.
         -2   -1    0    0    0  501 -0.00000000000E+00 -0.00000000000E+00 -0.53912204067E+02  0.53912204127E+02  0.25500000000E-02 0. -1.
    5000001    1    1    2    0    0 -0.27533813704E+03 -0.14895445052E+02  0.77044885471E+03  0.82810228941E+03  0.12700000000E+03 0.  0.
   -5000001    1    1    2    0    0  0.27533813704E+03  0.14895445052E+02  0.89339344202E+03  0.94356441552E+03  0.12700000000E+03 0.  0.
<mgrwt>
<rscale>  0 0.60863103E+03</rscale>
<asrwt>0</asrwt>
<pdfrwt beam="1">  1        2 0.24539344E+00 0.60863103E+03</pdfrwt>
<pdfrwt beam="2">  1       -2 0.77017453E-02 0.60863103E+03</pdfrwt>
<totfact> 0.11970480E+03</totfact>
</mgrwt>
</event>
<event>
 4    1  0.1399921E-004  0.4531797E+03  0.7818608E-02  0.1026778E+00
         -2   -1    0    0    0  501 -0.00000000000E+00  0.00000000000E+00  0.29510271011E+03  0.29510271013E+03  0.25500000000E-02 0. -1.
          2   -1    0    0  501    0  0.00000000000E+00 -0.00000000000E+00 -0.17398332885E+03  0.17398332887E+03  0.25500000000E-02 0.  1.
    5000001    1    1    2    0    0 -0.14069302486E+03 -0.30946778677E+02  0.18503754450E+03  0.26668356385E+03  0.12700000000E+03 0.  0.
   -5000001    1    1    2    0    0  0.14069302486E+03  0.30946778677E+02 -0.63918163236E+02  0.20240247515E+03  0.12700000000E+03 0.  0.
<mgrwt>
<rscale>  0 0.45317966E+03</rscale>
<asrwt>0</asrwt>
<pdfrwt beam="1">  1        2 0.24854761E-01 0.45317966E+03</pdfrwt>
<pdfrwt beam="2">  1       -2 0.42157530E-01 0.45317966E+03</pdfrwt>
<totfact> 0.11752459E+03</totfact>
</mgrwt>
</event>
<event>
 4    1  0.1399921E-004  0.6714251E+03  0.7818608E-02  0.9767387E-01
         -2   -1    0    0    0  501 -0.00000000000E+00  0.00000000000E+00  0.25636881714E+02  0.25636881841E+02  0.25500000000E-02 0. -1.
          2   -1    0    0  501    0  0.00000000000E+00 -0.00000000000E+00 -0.43961247586E+04  0.43961247586E+04  0.25500000000E-02 0.  1.
    5000001    1    1    2    0    0 -0.73661533390E+02  0.20522073147E+03 -0.72696995269E+03  0.76951665495E+03  0.12700000000E+03 0.  0.
   -5000001    1    1    2    0    0  0.73661533390E+02 -0.20522073147E+03 -0.36435179242E+04  0.36522449855E+04  0.12700000000E+03 0.  0.
<mgrwt>
<rscale>  0 0.67142514E+03</rscale>
<asrwt>0</asrwt>
<pdfrwt beam="1">  1        2 0.62801734E+00 0.67142514E+03</pdfrwt>
<pdfrwt beam="2">  1       -2 0.36624145E-02 0.67142514E+03</pdfrwt>
<totfact> 0.10963777E+02</totfact>
</mgrwt>
</event>
<event>
 4    1  0.1399921E-004  0.5094886E+03  0.7818608E-02  0.1011332E+00
         -2   -1    0    0    0  501 -0.00000000000E+00  0.00000000000E+00  0.10787302652E+03  0.10787302655E+03  0.25500000000E-02 0. -1.
          2   -1    0    0  501    0  0.00000000000E+00 -0.00000000000E+00 -0.60158376691E+03  0.60158376692E+03  0.25500000000E-02 0.  1.
    5000001    1    1    2    0    0 -0.14056089278E+03  0.13588222341E+03 -0.38984374377E+03  0.45423395709E+03  0.12700000000E+03 0.  0.
   -5000001    1    1    2    0    0  0.14056089278E+03 -0.13588222341E+03 -0.10386699662E+03  0.25522283637E+03  0.12700000000E+03 0.  0.
<mgrwt>
<rscale>  0 0.50948861E+03</rscale>
<asrwt>0</asrwt>
<pdfrwt beam="1">  1        2 0.85940536E-01 0.50948861E+03</pdfrwt>
<pdfrwt beam="2">  1       -2 0.15410433E-01 0.50948861E+03</pdfrwt>
<totfact> 0.18050765E+03</totfact>
</mgrwt>
</event>
<event>
 4    1  0.1399921E-004  0.2710101E+03  0.7818608E-02  0.1100703E+00
          2   -1    0    0  501    0  0.00000000000E+00  0.00000000000E+00  0.55787459452E+03  0.55787459452E+03  0.25500000000E-02 0.  1.
         -2   -1    0    0    0  501 -0.00000000000E+00 -0.00000000000E+00 -0.32913515478E+02  0.32913515577E+02  0.25500000000E-02 0. -1.
    5000001    1    1    2    0    0 -0.41445458288E+02  0.57208897068E+01  0.31034814521E+03  0.33792813707E+03  0.12700000000E+03 0.  0.
   -5000001    1    1    2    0    0  0.41445458288E+02 -0.57208897068E+01  0.21461293383E+03  0.25285997303E+03  0.12700000000E+03 0.  0.
<mgrwt>
<rscale>  0 0.27101007E+03</rscale>
<asrwt>0</asrwt>
<pdfrwt beam="1">  1        2 0.79696367E-01 0.27101007E+03</pdfrwt>
<pdfrwt beam="2">  1       -2 0.47019310E-02 0.27101007E+03</pdfrwt>
<totfact> 0.12774407E+04</totfact>
</mgrwt>
</event>
<event>
 4    1  0.1399921E-004  0.3745539E+03  0.7818608E-02  0.1052965E+00
         -2   -1    0    0    0  501 -0.00000000000E+00  0.00000000000E+00  0.13357341577E+03  0.13357341579E+03  0.25500000000E-02 0. -1.
          2   -1    0    0  501    0  0.00000000000E+00 -0.00000000000E+00 -0.26257217841E+03  0.26257217842E+03  0.25500000000E-02 0.  1.
    5000001    1    1    2    0    0  0.29697282400E+02 -0.12801418468E+03 -0.10777382702E+03  0.21216445944E+03  0.12700000000E+03 0.  0.
   -5000001    1    1    2    0    0 -0.29697282400E+02  0.12801418468E+03 -0.21224935626E+02  0.18398113477E+03  0.12700000000E+03 0.  0.
<mgrwt>
<rscale>  0 0.37455394E+03</rscale>
<asrwt>0</asrwt>
<pdfrwt beam="1">  1        2 0.37510311E-01 0.37455394E+03</pdfrwt>
<pdfrwt beam="2">  1       -2 0.19081916E-01 0.37455394E+03</pdfrwt>
<totfact> 0.31423917E+03</totfact>
</mgrwt>
</event>
<event>
 4    1  0.1399921E-004  0.5552471E+03  0.7818608E-02  0.1000287E+00
          2   -1    0    0  501    0  0.00000000000E+00  0.00000000000E+00  0.16057048559E+04  0.16057048559E+04  0.25500000000E-02 0.  1.
         -2   -1    0    0    0  501 -0.00000000000E+00 -0.00000000000E+00 -0.48000630155E+02  0.48000630222E+02  0.25500000000E-02 0. -1.
    5000001    1    1    2    0    0 -0.14490765220E+03  0.18864799525E+03  0.58220266426E+03  0.64161922980E+03  0.12700000000E+03 0.  0.
   -5000001    1    1    2    0    0  0.14490765220E+03 -0.18864799525E+03  0.97550156147E+03  0.10120862563E+04  0.12700000000E+03 0.  0.
<mgrwt>
<rscale>  0 0.55524713E+03</rscale>
<asrwt>0</asrwt>
<pdfrwt beam="1">  1        2 0.22938635E+00 0.55524713E+03</pdfrwt>
<pdfrwt beam="2">  1       -2 0.68572347E-02 0.55524713E+03</pdfrwt>
<totfact> 0.16444172E+03</totfact>
</mgrwt>
</event>
<event>
 4    1  0.1399921E-004  0.5409444E+03  0.7818608E-02  0.1003612E+00
          2   -1    0    0  501    0  0.00000000000E+00  0.00000000000E+00  0.42136719021E+03  0.42136719022E+03  0.25500000000E-02 0.  1.
         -2   -1    0    0    0  501 -0.00000000000E+00 -0.00000000000E+00 -0.17361391574E+03  0.17361391576E+03  0.25500000000E-02 0. -1.
    5000001    1    1    2    0    0  0.23746399630E+03 -0.21668122010E+02  0.13811381239E+03  0.30341898791E+03  0.12700000000E+03 0.  0.
   -5000001    1    1    2    0    0 -0.23746399630E+03  0.21668122010E+02  0.10963946208E+03  0.29156211807E+03  0.12700000000E+03 0.  0.
<mgrwt>
<rscale>  0 0.54094439E+03</rscale>
<asrwt>0</asrwt>
<pdfrwt beam="1">  1        2 0.60195312E-01 0.54094439E+03</pdfrwt>
<pdfrwt beam="2">  1       -2 0.24801988E-01 0.54094439E+03</pdfrwt>
<totfact> 0.11861098E+03</totfact>
</mgrwt>
</event>
<event>
 4    1  0.1399921E-004  0.4490230E+03  0.7818608E-02  0.1028014E+00
         -2   -1    0    0    0  501 -0.00000000000E+00  0.00000000000E+00  0.84189457035E+02  0.84189457073E+02  0.25500000000E-02 0. -1.
          2   -1    0    0  501    0  0.00000000000E+00 -0.00000000000E+00 -0.59871420564E+03  0.59871420564E+03  0.25500000000E-02 0.  1.
    5000001    1    1    2    0    0 -0.16495018555E+03 -0.66495475222E+02 -0.17902700711E+03  0.28250642686E+03  0.12700000000E+03 0.  0.
   -5000001    1    1    2    0    0  0.16495018555E+03  0.66495475222E+02 -0.33549774149E+03  0.40039723586E+03  0.12700000000E+03 0.  0.
<mgrwt>
<rscale>  0 0.44902305E+03</rscale>
<asrwt>0</asrwt>
<pdfrwt beam="1">  1        2 0.85530598E-01 0.44902305E+03</pdfrwt>
<pdfrwt beam="2">  1       -2 0.12027066E-01 0.44902305E+03</pdfrwt>
<totfact> 0.27358695E+03</totfact>
</mgrwt>
</event>
<event>
 4    1  0.1399921E-004  0.7968802E+03  0.7818608E-02  0.9564544E-01
         -2   -1    0    0    0  501 -0.00000000000E+00  0.00000000000E+00  0.59845821850E+03  0.59845821851E+03  0.25500000000E-02 0. -1.
          2   -1    0    0  501    0  0.00000000000E+00 -0.00000000000E+00 -0.26527248767E+03  0.26527248768E+03  0.25500000000E-02 0.  1.
    5000001    1    1    2    0    0  0.13991443583E+03  0.34777890341E+03  0.21625450820E+03  0.45102242442E+03  0.12700000000E+03 0.  0.
   -5000001    1    1    2    0    0 -0.13991443583E+03 -0.34777890341E+03  0.11693122263E+03  0.41270828177E+03  0.12700000000E+03 0.  0.
<mgrwt>
<rscale>  0 0.79688017E+03</rscale>
<asrwt>0</asrwt>
<pdfrwt beam="1">  1        2 0.37896070E-01 0.79688017E+03</pdfrwt>
<pdfrwt beam="2">  1       -2 0.85494031E-01 0.79688017E+03</pdfrwt>
<totfact> 0.16388908E+02</totfact>
</mgrwt>
</event>
<event>
 4    1  0.1399921E-004  0.4583729E+03  0.7818608E-02  0.1025254E+00
          2   -1    0    0  501    0  0.00000000000E+00  0.00000000000E+00  0.16898236116E+04  0.16898236116E+04  0.25500000000E-02 0.  1.
         -2   -1    0    0    0  501 -0.00000000000E+00 -0.00000000000E+00 -0.31083972124E+02  0.31083972229E+02  0.25500000000E-02 0. -1.
    5000001    1    1    2    0    0 -0.93730455513E+02  0.15423911840E+03  0.59725520648E+03  0.63672434036E+03  0.12700000000E+03 0.  0.
   -5000001    1    1    2    0    0  0.93730455513E+02 -0.15423911840E+03  0.10614844330E+04  0.10841832435E+04  0.12700000000E+03 0.  0.
<mgrwt>
<rscale>  0 0.45837291E+03</rscale>
<asrwt>0</asrwt>
<pdfrwt beam="1">  1        2 0.24140340E+00 0.45837291E+03</pdfrwt>
<pdfrwt beam="2">  1       -2 0.44405670E-02 0.45837291E+03</pdfrwt>
<totfact> 0.29345983E+03</totfact>
</mgrwt>
</event>
<event>
 4    1  0.1399921E-004  0.3110880E+03  0.7818608E-02  0.1079826E+00
         -2   -1    0    0    0  501 -0.00000000000E+00  0.00000000000E+00  0.23129723178E+02  0.23129723318E+02  0.25500000000E-02 0. -1.
          2   -1    0    0  501    0  0.00000000000E+00 -0.00000000000E+00 -0.10460108923E+04  0.10460108923E+04  0.25500000000E-02 0.  1.
    5000001    1    1    2    0    0 -0.60842490971E+02  0.33746683149E+02 -0.70659074126E+03  0.72127673120E+03  0.12700000000E+03 0.  0.
   -5000001    1    1    2    0    0  0.60842490971E+02 -0.33746683149E+02 -0.31629042788E+03  0.34786388444E+03  0.12700000000E+03 0.  0.
<mgrwt>
<rscale>  0 0.31108804E+03</rscale>
<asrwt>0</asrwt>
<pdfrwt beam="1">  1        2 0.14943010E+00 0.31108804E+03</pdfrwt>
<pdfrwt beam="2">  1       -2 0.33042468E-02 0.31108804E+03</pdfrwt>
<totfact> 0.10049996E+04</totfact>
</mgrwt>
</event>
<event>
 4    1  0.1399921E-004  0.3758084E+03  0.7818608E-02  0.1052494E+00
         -2   -1    0    0    0  501 -0.00000000000E+00  0.00000000000E+00  0.66764723575E+02  0.66764723623E+02  0.25500000000E-02 0. -1.
          2   -1    0    0  501    0  0.00000000000E+00 -0.00000000000E+00 -0.52884207214E+03  0.52884207214E+03  0.25500000000E-02 0.  1.
    5000001    1    1    2    0    0 -0.36386972539E+02 -0.58215743452E+02 -0.40419754311E+02  0.14991944869E+03  0.12700000000E+03 0.  0.
   -5000001    1    1    2    0    0  0.36386972539E+02  0.58215743452E+02 -0.42165759425E+03  0.44568734708E+03  0.12700000000E+03 0.  0.
<mgrwt>
<rscale>  0 0.37580843E+03</rscale>
<asrwt>0</asrwt>
<pdfrwt beam="1">  1        2 0.75548865E-01 0.37580843E+03</pdfrwt>
<pdfrwt beam="2">  1       -2 0.95378180E-02 0.37580843E+03</pdfrwt>
<totfact> 0.45742942E+03</totfact>
</mgrwt>
</event>
<event>
 4    1  0.1399921E-004  0.5348306E+03  0.7818608E-02  0.1005067E+00
         -2   -1    0    0    0  501 -0.00000000000E+00  0.00000000000E+00  0.29381299412E+03  0.29381299413E+03  0.25500000000E-02 0. -1.
          2   -1    0    0  501    0  0.00000000000E+00 -0.00000000000E+00 -0.24338931731E+03  0.24338931732E+03  0.25500000000E-02 0.  1.
    5000001    1    1    2    0    0 -0.23247222419E+03 -0.36457810112E+02  0.28297451772E+02  0.26889078213E+03  0.12700000000E+03 0.  0.
   -5000001    1    1    2    0    0  0.23247222419E+03  0.36457810112E+02  0.22126225038E+02  0.26831152933E+03  0.12700000000E+03 0.  0.
<mgrwt>
<rscale>  0 0.53483061E+03</rscale>
<asrwt>0</asrwt>
<pdfrwt beam="1">  1        2 0.34769902E-01 0.53483061E+03</pdfrwt>
<pdfrwt beam="2">  1       -2 0.41973285E-01 0.53483061E+03</pdfrwt>
<totfact> 0.81385776E+02</totfact>
</mgrwt>
</event>
<event>
 4    1  0.1399921E-004  0.3969078E+03  0.7818608E-02  0.1044856E+00
          2   -1    0    0  501    0  0.00000000000E+00  0.00000000000E+00  0.53741276317E+03  0.53741276317E+03  0.25500000000E-02 0.  1.
         -2   -1    0    0    0  501 -0.00000000000E+00 -0.00000000000E+00 -0.73284363409E+02  0.73284363453E+02  0.25500000000E-02 0. -1.
    5000001    1    1    2    0    0 -0.45501137286E+01  0.14984923786E+03  0.27502097332E+03  0.33799561149E+03  0.12700000000E+03 0.  0.
   -5000001    1    1    2    0    0  0.45501137286E+01 -0.14984923786E+03  0.18910742644E+03  0.27270151513E+03  0.12700000000E+03 0.  0.
<mgrwt>
<rscale>  0 0.39690781E+03</rscale>
<asrwt>0</asrwt>
<pdfrwt beam="1">  1        2 0.76773254E-01 0.39690781E+03</pdfrwt>
<pdfrwt beam="2">  1       -2 0.10469194E-01 0.39690781E+03</pdfrwt>
<totfact> 0.38727147E+03</totfact>
</mgrwt>
</event>
<event>
 4    1  0.1399921E-004  0.2849450E+03  0.7818608E-02  0.1093018E+00
         -2   -1    0    0    0  501 -0.00000000000E+00  0.00000000000E+00  0.25730403354E+02  0.25730403481E+02  0.25500000000E-02 0. -1.
          2   -1    0    0  501    0  0.00000000000E+00 -0.00000000000E+00 -0.78888826486E+03  0.78888826487E+03  0.25500000000E-02 0.  1.
    5000001    1    1    2    0    0  0.38806832056E+02  0.49139671502E+02 -0.33649077744E+03  0.36506947398E+03  0.12700000000E+03 0.  0.
   -5000001    1    1    2    0    0 -0.38806832056E+02 -0.49139671502E+02 -0.42666708407E+03  0.44954919437E+03  0.12700000000E+03 0.  0.
<mgrwt>
<rscale>  0 0.28494500E+03</rscale>
<asrwt>0</asrwt>
<pdfrwt beam="1">  1        2 0.11269831E+00 0.28494500E+03</pdfrwt>
<pdfrwt beam="2">  1       -2 0.36757724E-02 0.28494500E+03</pdfrwt>
<totfact> 0.12355996E+04</totfact>
</mgrwt>
</event>
<event>
 4    1  0.1399921E-004  0.8151730E+03  0.7818608E-02  0.9538311E-01
         -2   -1    0    0    0  501 -0.00000000000E+00  0.00000000000E+00  0.54325009269E+02  0.54325009329E+02  0.25500000000E-02 0. -1.
          2   -1    0    0  501    0  0.00000000000E+00 -0.00000000000E+00 -0.30580159427E+04  0.30580159427E+04  0.25500000000E-02 0.  1.
    5000001    1    1    2    0    0  0.17069116319E+03 -0.31977825880E+03 -0.98108002886E+03  0.10535846577E+04  0.12700000000E+03 0.  0.
   -5000001    1    1    2    0    0 -0.17069116319E+03  0.31977825880E+03 -0.20226109045E+04  0.20587562942E+04  0.12700000000E+03 0.  0.
<mgrwt>
<rscale>  0 0.81517297E+03</rscale>
<asrwt>0</asrwt>
<pdfrwt beam="1">  1        2 0.43685931E+00 0.81517297E+03</pdfrwt>
<pdfrwt beam="2">  1       -2 0.77607175E-02 0.81517297E+03</pdfrwt>
<totfact> 0.23560587E+02</totfact>
</mgrwt>
</event>
<event>
 4    1  0.1399921E-004  0.4136432E+03  0.7818608E-02  0.1039155E+00
         -2   -1    0    0    0  501 -0.00000000000E+00  0.00000000000E+00  0.72586994445E+03  0.72586994446E+03  0.25500000000E-02 0. -1.
          2   -1    0    0  501    0  0.00000000000E+00 -0.00000000000E+00 -0.58929520440E+02  0.58929520495E+02  0.25500000000E-02 0.  1.
    5000001    1    1    2    0    0 -0.13560308576E+03  0.39721973864E+02  0.17840103444E+03  0.26061842062E+03  0.12700000000E+03 0.  0.
   -5000001    1    1    2    0    0  0.13560308576E+03 -0.39721973864E+02  0.48853938957E+03  0.52418104433E+03  0.12700000000E+03 0.  0.
<mgrwt>
<rscale>  0 0.41364317E+03</rscale>
<asrwt>0</asrwt>
<pdfrwt beam="1">  1        2 0.84185031E-02 0.41364317E+03</pdfrwt>
<pdfrwt beam="2">  1       -2 0.10369570E+00 0.41364317E+03</pdfrwt>
<totfact> 0.63186230E+02</totfact>
</mgrwt>
</event>
<event>
 4    1  0.1399921E-004  0.5432225E+03  0.7818608E-02  0.1003075E+00
          2   -1    0    0  501    0  0.00000000000E+00  0.00000000000E+00  0.83985235469E+03  0.83985235469E+03  0.25500000000E-02 0.  1.
         -2   -1    0    0    0  501 -0.00000000000E+00 -0.00000000000E+00 -0.87840043788E+02  0.87840043825E+02  0.25500000000E-02 0. -1.
    5000001    1    1    2    0    0 -0.10812178166E+03 -0.19028684582E+03  0.54458411204E+03  0.60050000704E+03  0.12700000000E+03 0.  0.
   -5000001    1    1    2    0    0  0.10812178166E+03  0.19028684582E+03  0.20742819885E+03  0.32719239148E+03  0.12700000000E+03 0.  0.
<mgrwt>
<rscale>  0 0.54322249E+03</rscale>
<asrwt>0</asrwt>
<pdfrwt beam="1">  1        2 0.11997891E+00 0.54322249E+03</pdfrwt>
<pdfrwt beam="2">  1       -2 0.12548578E-01 0.54322249E+03</pdfrwt>
<totfact> 0.16877431E+03</totfact>
</mgrwt>
</event>
<event>
 4    1  0.1399921E-004  0.4537611E+03  0.7818608E-02  0.1026606E+00
          2   -1    0    0  501    0  0.00000000000E+00  0.00000000000E+00  0.22749975971E+04  0.22749975971E+04  0.25500000000E-02 0.  1.
         -2   -1    0    0    0  501 -0.00000000000E+00 -0.00000000000E+00 -0.22626301619E+02  0.22626301763E+02  0.25500000000E-02 0. -1.
    5000001    1    1    2    0    0 -0.46711907998E+02 -0.14730046056E+03  0.16683916966E+04  0.16803390376E+04  0.12700000000E+03 0.  0.
   -5000001    1    1    2    0    0  0.46711907998E+02  0.14730046056E+03  0.58397959894E+03  0.61728486132E+03  0.12700000000E+03 0.  0.
<mgrwt>
<rscale>  0 0.45376109E+03</rscale>
<asrwt>0</asrwt>
<pdfrwt beam="1">  1        2 0.32499954E+00 0.45376109E+03</pdfrwt>
<pdfrwt beam="2">  1       -2 0.32323299E-02 0.45376109E+03</pdfrwt>
<totfact> 0.24306878E+03</totfact>
</mgrwt>
</event>
<event>
 4    1  0.1399921E-004  0.4452613E+03  0.7818608E-02  0.1029145E+00
         -2   -1    0    0    0  501 -0.00000000000E+00  0.00000000000E+00  0.50530283768E+02  0.50530283833E+02  0.25500000000E-02 0. -1.
          2   -1    0    0  501    0  0.00000000000E+00 -0.00000000000E+00 -0.98088534783E+03  0.98088534783E+03  0.25500000000E-02 0.  1.
    5000001    1    1    2    0    0 -0.15661788829E+03 -0.27893181052E+02 -0.67401889234E+03  0.70408640074E+03  0.12700000000E+03 0.  0.
   -5000001    1    1    2    0    0  0.15661788829E+03  0.27893181052E+02 -0.25633617172E+03  0.32732923092E+03  0.12700000000E+03 0.  0.
<mgrwt>
<rscale>  0 0.44526134E+03</rscale>
<asrwt>0</asrwt>
<pdfrwt beam="1">  1        2 0.14012647E+00 0.44526134E+03</pdfrwt>
<pdfrwt beam="2">  1       -2 0.72186126E-02 0.44526134E+03</pdfrwt>
<totfact> 0.33380137E+03</totfact>
</mgrwt>
</event>
<event>
 4    1  0.1399921E-004  0.2869216E+03  0.7818608E-02  0.1091967E+00
         -2   -1    0    0    0  501 -0.00000000000E+00  0.00000000000E+00  0.20629538511E+03  0.20629538512E+03  0.25500000000E-02 0. -1.
          2   -1    0    0  501    0  0.00000000000E+00 -0.00000000000E+00 -0.99764695122E+02  0.99764695155E+02  0.25500000000E-02 0.  1.
    5000001    1    1    2    0    0  0.62918416049E+02 -0.51015749704E+01  0.76322988837E+02  0.16105574119E+03  0.12700000000E+03 0.  0.
   -5000001    1    1    2    0    0 -0.62918416049E+02  0.51015749704E+01  0.30207701147E+02  0.14500433909E+03  0.12700000000E+03 0.  0.
<mgrwt>
<rscale>  0 0.28692157E+03</rscale>
<asrwt>0</asrwt>
<pdfrwt beam="1">  1        2 0.14252099E-01 0.28692157E+03</pdfrwt>
<pdfrwt beam="2">  1       -2 0.29470769E-01 0.28692157E+03</pdfrwt>
<totfact> 0.43612332E+03</totfact>
</mgrwt>
</event>
<event>
 4    1  0.1399921E-004  0.2944863E+03  0.7818608E-02  0.1088030E+00
         -2   -1    0    0    0  501 -0.00000000000E+00  0.00000000000E+00  0.18489312709E+02  0.18489312885E+02  0.25500000000E-02 0. -1.
          2   -1    0    0  501    0  0.00000000000E+00 -0.00000000000E+00 -0.11725986717E+04  0.11725986718E+04  0.25500000000E-02 0.  1.
    5000001    1    1    2    0    0  0.62758903447E+02 -0.24088336702E+02 -0.44708318082E+03  0.46960760055E+03  0.12700000000E+03 0.  0.
   -5000001    1    1    2    0    0 -0.62758903447E+02  0.24088336702E+02 -0.70702617822E+03  0.72148038408E+03  0.12700000000E+03 0.  0.
<mgrwt>
<rscale>  0 0.29448629E+03</rscale>
<asrwt>0</asrwt>
<pdfrwt beam="1">  1        2 0.16751405E+00 0.29448629E+03</pdfrwt>
<pdfrwt beam="2">  1       -2 0.26413311E-02 0.29448629E+03</pdfrwt>
<totfact> 0.11889364E+04</totfact>
</mgrwt>
</event>
<event>
 4    1  0.1399921E-004  0.7702231E+03  0.7818608E-02  0.9604147E-01
          2   -1    0    0  501    0  0.00000000000E+00  0.00000000000E+00  0.64700294161E+03  0.64700294161E+03  0.25500000000E-02 0. -1.
         -2   -1    0    0    0  501 -0.00000000000E+00 -0.00000000000E+00 -0.22922758974E+03  0.22922758975E+03  0.25500000000E-02 0.  1.
    5000001    1    1    2    0    0  0.31108854253E+03  0.18078115575E+03  0.14951224905E+03  0.40980583230E+03  0.12700000000E+03 0.  0.
   -5000001    1    1    2    0    0 -0.31108854253E+03 -0.18078115575E+03  0.26826310282E+03  0.46642469907E+03  0.12700000000E+03 0.  0.
<mgrwt>
<rscale>  0 0.77022315E+03</rscale>
<asrwt>0</asrwt>
<pdfrwt beam="1">  1        2 0.92428995E-01 0.77022315E+03</pdfrwt>
<pdfrwt beam="2">  1       -2 0.32746797E-01 0.77022315E+03</pdfrwt>
<totfact> 0.43270568E+02</totfact>
</mgrwt>
</event>
<event>
 4    1  0.1399921E-004  0.3164351E+03  0.7818608E-02  0.1077302E+00
         -2   -1    0    0    0  501 -0.00000000000E+00  0.00000000000E+00  0.91394663110E+01  0.91394666668E+01  0.25500000000E-02 0. -1.
          2   -1    0    0  501    0  0.00000000000E+00 -0.00000000000E+00 -0.27389771791E+04  0.27389771791E+04  0.25500000000E-02 0.  1.
    5000001    1    1    2    0    0 -0.57974028443E+02  0.23307113118E+02 -0.75084963933E+03  0.76407355037E+03  0.12700000000E+03 0.  0.
   -5000001    1    1    2    0    0  0.57974028443E+02 -0.23307113118E+02 -0.19789880735E+04  0.19840430954E+04  0.12700000000E+03 0.  0.
<mgrwt>
<rscale>  0 0.31643508E+03</rscale>
<asrwt>0</asrwt>
<pdfrwt beam="1">  1        2 0.39128193E+00 0.31643508E+03</pdfrwt>
<pdfrwt beam="2">  1       -2 0.13056398E-02 0.31643508E+03</pdfrwt>
<totfact> 0.54826368E+03</totfact>
</mgrwt>
</event>
<event>
 4    1  0.1399921E-004  0.4614800E+03  0.7818608E-02  0.1024353E+00
         -2   -1    0    0    0  501 -0.00000000000E+00  0.00000000000E+00  0.15052986685E+03  0.15052986687E+03  0.25500000000E-02 0. -1.
          2   -1    0    0  501    0  0.00000000000E+00 -0.00000000000E+00 -0.35369020432E+03  0.35369020433E+03  0.25500000000E-02 0.  1.
    5000001    1    1    2    0    0  0.18917583225E+03  0.35891219890E+02 -0.95000465473E+02  0.24945894174E+03  0.12700000000E+03 0.  0.
   -5000001    1    1    2    0    0 -0.18917583225E+03 -0.35891219890E+02 -0.10815987200E+03  0.25476112946E+03  0.12700000000E+03 0.  0.
<mgrwt>
<rscale>  0 0.46147996E+03</rscale>
<asrwt>0</asrwt>
<pdfrwt beam="1">  1        2 0.50527172E-01 0.46147996E+03</pdfrwt>
<pdfrwt beam="2">  1       -2 0.21504267E-01 0.46147996E+03</pdfrwt>
<totfact> 0.18509733E+03</totfact>
</mgrwt>
</event>
<event>
 4    1  0.1399921E-004  0.7247867E+03  0.7818608E-02  0.9675758E-01
         -2   -1    0    0    0  501 -0.00000000000E+00  0.00000000000E+00  0.12755465729E+03  0.12755465732E+03  0.25500000000E-02 0. -1.
          2   -1    0    0  501    0  0.00000000000E+00 -0.00000000000E+00 -0.10295894093E+04  0.10295894093E+04  0.25500000000E-02 0.  1.
    5000001    1    1    2    0    0  0.25954976285E+03  0.77619824683E+02 -0.77746399402E+03  0.83304872521E+03  0.12700000000E+03 0.  0.
   -5000001    1    1    2    0    0 -0.25954976285E+03 -0.77619824683E+02 -0.12457075799E+03  0.32409534141E+03  0.12700000000E+03 0.  0.
<mgrwt>
<rscale>  0 0.72478666E+03</rscale>
<asrwt>0</asrwt>
<pdfrwt beam="1">  1        2 0.14708420E+00 0.72478666E+03</pdfrwt>
<pdfrwt beam="2">  1       -2 0.18222094E-01 0.72478666E+03</pdfrwt>
<totfact> 0.67892098E+02</totfact>
</mgrwt>
</event>
<event>
 4    1  0.1399921E-004  0.2613837E+03  0.7818608E-02  0.1106315E+00
          2   -1    0    0  501    0  0.00000000000E+00  0.00000000000E+00  0.22772103076E+04  0.22772103076E+04  0.25500000000E-02 0.  1.
         -2   -1    0    0    0  501 -0.00000000000E+00 -0.00000000000E+00 -0.75005607410E+01  0.75005611745E+01  0.25500000000E-02 0. -1.
    5000001    1    1    2    0    0  0.26903535088E+02 -0.91826562468E+00  0.12664650311E+04  0.12731014564E+04  0.12700000000E+03 0.  0.
   -5000001    1    1    2    0    0 -0.26903535088E+02  0.91826562468E+00  0.10032447158E+04  0.10116094124E+04  0.12700000000E+03 0.  0.
<mgrwt>
<rscale>  0 0.26138366E+03</rscale>
<asrwt>0</asrwt>
<pdfrwt beam="1">  1        2 0.32531553E+00 0.26138366E+03</pdfrwt>
<pdfrwt beam="2">  1       -2 0.10715095E-02 0.26138366E+03</pdfrwt>
<totfact> 0.12452209E+04</totfact>
</mgrwt>
</event>
<event>
 4    1  0.1399921E-004  0.3345773E+03  0.7818608E-02  0.1069129E+00
          2   -1    0    0  501    0  0.00000000000E+00  0.00000000000E+00  0.50883175522E+03  0.50883175523E+03  0.25500000000E-02 0.  1.
         -2   -1    0    0    0  501 -0.00000000000E+00 -0.00000000000E+00 -0.54999492717E+02  0.54999492776E+02  0.25500000000E-02 0. -1.
    5000001    1    1    2    0    0 -0.29567954932E+02  0.21582834855E+02  0.39973309323E+03  0.42101737320E+03  0.12700000000E+03 0.  0.
   -5000001    1    1    2    0    0  0.29567954932E+02 -0.21582834855E+02  0.54099169282E+02  0.14281387480E+03  0.12700000000E+03 0.  0.
<mgrwt>
<rscale>  0 0.33457728E+03</rscale>
<asrwt>0</asrwt>
<pdfrwt beam="1">  1        2 0.72690251E-01 0.33457728E+03</pdfrwt>
<pdfrwt beam="2">  1       -2 0.78570704E-02 0.33457728E+03</pdfrwt>
<totfact> 0.64725341E+03</totfact>
</mgrwt>
</event>
<event>
 4    1  0.1399921E-004  0.3438642E+03  0.7818608E-02  0.1065162E+00
          2   -1    0    0  501    0  0.00000000000E+00  0.00000000000E+00  0.37512200644E+04  0.37512200644E+04  0.25500000000E-02 0. -1.
         -2   -1    0    0    0  501 -0.00000000000E+00 -0.00000000000E+00 -0.78802734724E+01  0.78802738850E+01  0.25500000000E-02 0.  1.
    5000001    1    1    2    0    0 -0.39081797313E+02 -0.10909970773E+03  0.18582470459E+04  0.18661835967E+04  0.12700000000E+03 0.  0.
   -5000001    1    1    2    0    0  0.39081797313E+02  0.10909970773E+03  0.18850927451E+04  0.18929167416E+04  0.12700000000E+03 0.  0.
<mgrwt>
<rscale>  0 0.34386416E+03</rscale>
<asrwt>0</asrwt>
<pdfrwt beam="1">  1        2 0.53589043E+00 0.34386416E+03</pdfrwt>
<pdfrwt beam="2">  1       -2 0.11257495E-02 0.34386416E+03</pdfrwt>
<totfact> 0.18478477E+03</totfact>
</mgrwt>
</event>
<event>
 4    1  0.1399921E-004  0.2690011E+03  0.7818608E-02  0.1101853E+00
         -2   -1    0    0    0  501 -0.00000000000E+00  0.00000000000E+00  0.18042777231E+03  0.18042777233E+03  0.25500000000E-02 0. -1.
          2   -1    0    0  501    0  0.00000000000E+00 -0.00000000000E+00 -0.10026396328E+03  0.10026396331E+03  0.25500000000E-02 0.  1.
    5000001    1    1    2    0    0 -0.41056475147E+02  0.15754071532E+02  0.45561667780E+02  0.14191085403E+03  0.12700000000E+03 0.  0.
   -5000001    1    1    2    0    0  0.41056475147E+02 -0.15754071532E+02  0.34602141252E+02  0.13878088161E+03  0.12700000000E+03 0.  0.
<mgrwt>
<rscale>  0 0.26900114E+03</rscale>
<asrwt>0</asrwt>
<pdfrwt beam="1">  1        2 0.14323423E-01 0.26900114E+03</pdfrwt>
<pdfrwt beam="2">  1       -2 0.25775396E-01 0.26900114E+03</pdfrwt>
<totfact> 0.54989620E+03</totfact>
</mgrwt>
</event>
<event>
 4    1  0.1399921E-004  0.5887345E+03  0.7818608E-02  0.9929058E-01
          2   -1    0    0  501    0  0.00000000000E+00  0.00000000000E+00  0.12755871418E+03  0.12755871421E+03  0.25500000000E-02 0.  1.
         -2   -1    0    0    0  501 -0.00000000000E+00 -0.00000000000E+00 -0.67931124539E+03  0.67931124540E+03  0.25500000000E-02 0. -1.
    5000001    1    1    2    0    0 -0.20565766761E+03  0.14876602625E+03 -0.38288769093E+03  0.47661136230E+03  0.12700000000E+03 0.  0.
   -5000001    1    1    2    0    0  0.20565766761E+03 -0.14876602625E+03 -0.16886484028E+03  0.33025859731E+03  0.12700000000E+03 0.  0.
<mgrwt>
<rscale>  0 0.58873447E+03</rscale>
<asrwt>0</asrwt>
<pdfrwt beam="1">  1        2 0.18222674E-01 0.58873447E+03</pdfrwt>
<pdfrwt beam="2">  1       -2 0.97044461E-01 0.58873447E+03</pdfrwt>
<totfact> 0.28448834E+02</totfact>
</mgrwt>
</event>
<event>
 4    1  0.1399921E-004  0.2790005E+03  0.7818608E-02  0.1096236E+00
         -2   -1    0    0    0  501 -0.00000000000E+00  0.00000000000E+00  0.13378227011E+02  0.13378227254E+02  0.25500000000E-02 0. -1.
          2   -1    0    0  501    0  0.00000000000E+00 -0.00000000000E+00 -0.14546263916E+04  0.14546263916E+04  0.25500000000E-02 0.  1.
    5000001    1    1    2    0    0 -0.31239835265E+02  0.26682317269E+02 -0.50731933807E+03  0.52458534496E+03  0.12700000000E+03 0.  0.
   -5000001    1    1    2    0    0  0.31239835265E+02 -0.26682317269E+02 -0.93392882649E+03  0.94341927387E+03  0.12700000000E+03 0.  0.
<mgrwt>
<rscale>  0 0.27900052E+03</rscale>
<asrwt>0</asrwt>
<pdfrwt beam="1">  1        2 0.20780367E+00 0.27900052E+03</pdfrwt>
<pdfrwt beam="2">  1       -2 0.19111762E-02 0.27900052E+03</pdfrwt>
<totfact> 0.13598041E+04</totfact>
</mgrwt>
</event>
<event>
 4    1  0.1399921E-004  0.3751693E+03  0.7818608E-02  0.1052734E+00
          2   -1    0    0  501    0  0.00000000000E+00  0.00000000000E+00  0.20638527018E+03  0.20638527020E+03  0.25500000000E-02 0.  1.
         -2   -1    0    0    0  501 -0.00000000000E+00 -0.00000000000E+00 -0.17049667511E+03  0.17049667513E+03  0.25500000000E-02 0. -1.
    5000001    1    1    2    0    0 -0.11215579088E+03 -0.37945509589E+02 -0.53374291876E+02  0.18164965775E+03  0.12700000000E+03 0.  0.
   -5000001    1    1    2    0    0  0.11215579088E+03  0.37945509589E+02  0.89262886947E+02  0.19523228758E+03  0.12700000000E+03 0.  0.
<mgrwt>
<rscale>  0 0.37516931E+03</rscale>
<asrwt>0</asrwt>
<pdfrwt beam="1">  1        2 0.29483610E-01 0.37516931E+03</pdfrwt>
<pdfrwt beam="2">  1       -2 0.24356668E-01 0.37516931E+03</pdfrwt>
<totfact> 0.26783753E+03</totfact>
</mgrwt>
</event>
<event>
 4    1  0.1399921E-004  0.4280301E+03  0.7818608E-02  0.1034484E+00
          2   -1    0    0  501    0  0.00000000000E+00  0.00000000000E+00  0.64472810600E+02  0.64472810650E+02  0.25500000000E-02 0.  1.
         -2   -1    0    0    0  501 -0.00000000000E+00 -0.00000000000E+00 -0.71041495216E+03  0.71041495217E+03  0.25500000000E-02 0. -1.
    5000001    1    1    2    0    0 -0.15569088147E+03 -0.64841085704E+02 -0.25949403128E+03  0.33452977332E+03  0.12700000000E+03 0.  0.
   -5000001    1    1    2    0    0  0.15569088147E+03  0.64841085704E+02 -0.38644811028E+03  0.44035798949E+03  0.12700000000E+03 0.  0.
<mgrwt>
<rscale>  0 0.42803013E+03</rscale>
<asrwt>0</asrwt>
<pdfrwt beam="1">  1        2 0.92104019E-02 0.42803013E+03</pdfrwt>
<pdfrwt beam="2">  1       -2 0.10148785E+00 0.42803013E+03</pdfrwt>
<totfact> 0.59286517E+02</totfact>
</mgrwt>
</event>
<event>
 4    1  0.1399921E-004  0.6233098E+03  0.7818608E-02  0.9858192E-01
         -2   -1    0    0    0  501 -0.00000000000E+00  0.00000000000E+00  0.58114643563E+02  0.58114643619E+02  0.25500000000E-02 0.  1.
          2   -1    0    0  501    0  0.00000000000E+00 -0.00000000000E+00 -0.16713306453E+04  0.16713306453E+04  0.25500000000E-02 0. -1.
    5000001    1    1    2    0    0 -0.27292147477E+03  0.78658415322E+02 -0.85674394064E+03  0.91148914284E+03  0.12700000000E+03 0.  0.
   -5000001    1    1    2    0    0  0.27292147477E+03 -0.78658415322E+02 -0.75647206114E+03  0.81795614612E+03  0.12700000000E+03 0.  0.
<mgrwt>
<rscale>  0 0.62330983E+03</rscale>
<asrwt>0</asrwt>
<pdfrwt beam="1">  1        2 0.23876149E+00 0.62330983E+03</pdfrwt>
<pdfrwt beam="2">  1       -2 0.83020930E-02 0.62330983E+03</pdfrwt>
<totfact> 0.11207003E+03</totfact>
</mgrwt>
</event>
<event>
 4    1  0.1399921E-004  0.3020627E+03  0.7818608E-02  0.1084214E+00
         -2   -1    0    0    0  501 -0.00000000000E+00  0.00000000000E+00  0.11811155666E+03  0.11811155669E+03  0.25500000000E-02 0. -1.
          2   -1    0    0  501    0  0.00000000000E+00 -0.00000000000E+00 -0.19312645594E+03  0.19312645596E+03  0.25500000000E-02 0.  1.
    5000001    1    1    2    0    0  0.28851693250E+02  0.73349028173E+02 -0.15194019722E+02  0.15024100097E+03  0.12700000000E+03 0.  0.
   -5000001    1    1    2    0    0 -0.28851693250E+02 -0.73349028173E+02 -0.59820879558E+02  0.16099701168E+03  0.12700000000E+03 0.  0.
<mgrwt>
<rscale>  0 0.30206268E+03</rscale>
<asrwt>0</asrwt>
<pdfrwt beam="1">  1        2 0.27589494E-01 0.30206268E+03</pdfrwt>
<pdfrwt beam="2">  1       -2 0.16873079E-01 0.30206268E+03</pdfrwt>
<totfact> 0.53957248E+03</totfact>
</mgrwt>
</event>
<event>
 4    1  0.1399921E-004  0.2959475E+03  0.7818608E-02  0.1087284E+00
         -2   -1    0    0    0  501 -0.00000000000E+00  0.00000000000E+00  0.43923463065E+03  0.43923463065E+03  0.25500000000E-02 0. -1.
          2   -1    0    0  501    0  0.00000000000E+00 -0.00000000000E+00 -0.49850862277E+02  0.49850862342E+02  0.25500000000E-02 0.  1.
    5000001    1    1    2    0    0  0.50086905410E+02  0.68027224888E+01  0.10102742542E+03  0.16997210305E+03  0.12700000000E+03 0.  0.
   -5000001    1    1    2    0    0 -0.50086905410E+02 -0.68027224888E+01  0.28835634294E+03  0.31911338995E+03  0.12700000000E+03 0.  0.
<mgrwt>
<rscale>  0 0.29594746E+03</rscale>
<asrwt>0</asrwt>
<pdfrwt beam="1">  1        2 0.71215512E-02 0.29594746E+03</pdfrwt>
<pdfrwt beam="2">  1       -2 0.62747809E-01 0.29594746E+03</pdfrwt>
<totfact> 0.23796151E+03</totfact>
</mgrwt>
</event>
<event>
 4    1  0.1399921E-004  0.3885073E+03  0.7818608E-02  0.1047833E+00
         -2   -1    0    0    0  501 -0.00000000000E+00  0.00000000000E+00  0.44081082038E+02  0.44081082112E+02  0.25500000000E-02 0. -1.
          2   -1    0    0  501    0  0.00000000000E+00 -0.00000000000E+00 -0.85602435077E+03  0.85602435077E+03  0.25500000000E-02 0.  1.
    5000001    1    1    2    0    0 -0.18458584183E+02  0.12916695646E+03 -0.24916727806E+03  0.30860679583E+03  0.12700000000E+03 0.  0.
   -5000001    1    1    2    0    0  0.18458584183E+02 -0.12916695646E+03 -0.56277599067E+03  0.59149863706E+03  0.12700000000E+03 0.  0.
<mgrwt>
<rscale>  0 0.38850730E+03</rscale>
<asrwt>0</asrwt>
<pdfrwt beam="1">  1        2 0.12228918E+00 0.38850730E+03</pdfrwt>
<pdfrwt beam="2">  1       -2 0.62972980E-02 0.38850730E+03</pdfrwt>
<totfact> 0.49443884E+03</totfact>
</mgrwt>
</event>
<event>
 4    1  0.1399921E-004  0.1009049E+04  0.7818608E-02  0.9298676E-01
         -2   -1    0    0    0  501 -0.00000000000E+00  0.00000000000E+00  0.36244155849E+03  0.36244155850E+03  0.25500000000E-02 0. -1.
          2   -1    0    0  501    0  0.00000000000E+00 -0.00000000000E+00 -0.70230593320E+03  0.70230593320E+03  0.25500000000E-02 0.  1.
    5000001    1    1    2    0    0  0.19781005836E+03 -0.44547788408E+03 -0.13941352365E+03  0.52263227509E+03  0.12700000000E+03 0.  0.
   -5000001    1    1    2    0    0 -0.19781005836E+03  0.44547788408E+03 -0.20045085105E+03  0.54211521661E+03  0.12700000000E+03 0.  0.
<mgrwt>
<rscale>  0 0.10090488E+04</rscale>
<asrwt>0</asrwt>
<pdfrwt beam="1">  1        2 0.10032942E+00 0.10090488E+04</pdfrwt>
<pdfrwt beam="2">  1       -2 0.51777365E-01 0.10090488E+04</pdfrwt>
<totfact> 0.15756836E+02</totfact>
</mgrwt>
</event>
<event>
 4    1  0.1399921E-004  0.3180797E+03  0.7818608E-02  0.1076537E+00
          2   -1    0    0  501    0  0.00000000000E+00  0.00000000000E+00  0.62621787994E+03  0.62621787995E+03  0.25500000000E-02 0.  1.
         -2   -1    0    0    0  501 -0.00000000000E+00 -0.00000000000E+00 -0.40391165059E+02  0.40391165140E+02  0.25500000000E-02 0. -1.
    5000001    1    1    2    0    0  0.39003161013E+02  0.52726730913E+02  0.43906425506E+03  0.46174427423E+03  0.12700000000E+03 0.  0.
   -5000001    1    1    2    0    0 -0.39003161013E+02 -0.52726730913E+02  0.14676245983E+03  0.20486477085E+03  0.12700000000E+03 0.  0.
<mgrwt>
<rscale>  0 0.31807967E+03</rscale>
<asrwt>0</asrwt>
<pdfrwt beam="1">  1        2 0.89459690E-01 0.31807967E+03</pdfrwt>
<pdfrwt beam="2">  1       -2 0.57701669E-02 0.31807967E+03</pdfrwt>
<totfact> 0.82418132E+03</totfact>
</mgrwt>
</event>
<event>
 4    1  0.1399921E-004  0.3977735E+03  0.7818608E-02  0.1044553E+00
         -2   -1    0    0    0  501 -0.00000000000E+00  0.00000000000E+00  0.11640053372E+03  0.11640053375E+03  0.25500000000E-02 0. -1.
          2   -1    0    0  501    0  0.00000000000E+00 -0.00000000000E+00 -0.33982615620E+03  0.33982615621E+03  0.25500000000E-02 0.  1.
    5000001    1    1    2    0    0  0.12365729380E+03  0.88814441480E+02 -0.12976825982E+03  0.23695554981E+03  0.12700000000E+03 0.  0.
   -5000001    1    1    2    0    0 -0.12365729380E+03 -0.88814441480E+02 -0.93657362658E+02  0.21927114016E+03  0.12700000000E+03 0.  0.
<mgrwt>
<rscale>  0 0.39777353E+03</rscale>
<asrwt>0</asrwt>
<pdfrwt beam="1">  1        2 0.48546593E-01 0.39777353E+03</pdfrwt>
<pdfrwt beam="2">  1       -2 0.16628648E-01 0.39777353E+03</pdfrwt>
<totfact> 0.30009009E+03</totfact>
</mgrwt>
</event>
<event>
 4    1  0.1399921E-004  0.3607103E+03  0.7818608E-02  0.1058303E+00
         -2   -1    0    0    0  501 -0.00000000000E+00  0.00000000000E+00  0.18959019753E+02  0.18959019925E+02  0.25500000000E-02 0. -1.
          2   -1    0    0  501    0  0.00000000000E+00 -0.00000000000E+00 -0.17156993224E+04  0.17156993224E+04  0.25500000000E-02 0.  1.
    5000001    1    1    2    0    0  0.71516918922E+02  0.99109795416E+02 -0.10322199637E+04  0.10471601953E+04  0.12700000000E+03 0.  0.
   -5000001    1    1    2    0    0 -0.71516918922E+02 -0.99109795416E+02 -0.66452033896E+03  0.68749814700E+03  0.12700000000E+03 0.  0.
<mgrwt>
<rscale>  0 0.36071029E+03</rscale>
<asrwt>0</asrwt>
<pdfrwt beam="1">  1        2 0.24509981E+00 0.36071029E+03</pdfrwt>
<pdfrwt beam="2">  1       -2 0.27084325E-02 0.36071029E+03</pdfrwt>
<totfact> 0.60212341E+03</totfact>
</mgrwt>
</event>
<event>
 4    1  0.1399921E-004  0.3943443E+03  0.7818608E-02  0.1045756E+00
         -2   -1    0    0    0  501 -0.00000000000E+00  0.00000000000E+00  0.13410057687E+04  0.13410057687E+04  0.25500000000E-02 0. -1.
          2   -1    0    0  501    0  0.00000000000E+00 -0.00000000000E+00 -0.28990825856E+02  0.28990825968E+02  0.25500000000E-02 0.  1.
    5000001    1    1    2    0    0  0.69701168901E+02 -0.13325517584E+03  0.69602314865E+03  0.72332041191E+03  0.12700000000E+03 0.  0.
   -5000001    1    1    2    0    0 -0.69701168901E+02  0.13325517584E+03  0.61599179423E+03  0.64667618280E+03  0.12700000000E+03 0.  0.
<mgrwt>
<rscale>  0 0.39434434E+03</rscale>
<asrwt>0</asrwt>
<pdfrwt beam="1">  1        2 0.41415462E-02 0.39434434E+03</pdfrwt>
<pdfrwt beam="2">  1       -2 0.19157227E+00 0.39434434E+03</pdfrwt>
<totfact> 0.33094908E+02</totfact>
</mgrwt>
</event>
<event>
 4    1  0.1399921E-004  0.6061625E+03  0.7818608E-02  0.9892703E-01
         -2   -1    0    0    0  501 -0.00000000000E+00  0.00000000000E+00  0.24977534612E+03  0.24977534614E+03  0.25500000000E-02 0. -1.
          2   -1    0    0  501    0  0.00000000000E+00 -0.00000000000E+00 -0.36776346411E+03  0.36776346412E+03  0.25500000000E-02 0.  1.
    5000001    1    1    2    0    0  0.19072971112E+03  0.58970363580E+02  0.13396474722E+03  0.27190233537E+03  0.12700000000E+03 0.  0.
   -5000001    1    1    2    0    0 -0.19072971112E+03 -0.58970363580E+02 -0.25195286520E+03  0.34563647488E+03  0.12700000000E+03 0.  0.
<mgrwt>
<rscale>  0 0.60616251E+03</rscale>
<asrwt>0</asrwt>
<pdfrwt beam="1">  1        2 0.52537638E-01 0.60616251E+03</pdfrwt>
<pdfrwt beam="2">  1       -2 0.35682192E-01 0.60616251E+03</pdfrwt>
<totfact> 0.70500537E+02</totfact>
</mgrwt>
</event>
<event>
 4    1  0.1399921E-004  0.7509537E+03  0.7818608E-02  0.9633855E-01
         -2   -1    0    0    0  501 -0.00000000000E+00  0.00000000000E+00  0.12289641848E+03  0.12289641851E+03  0.25500000000E-02 0. -1.
          2   -1    0    0  501    0  0.00000000000E+00 -0.00000000000E+00 -0.11471682455E+04  0.11471682455E+04  0.25500000000E-02 0.  1.
    5000001    1    1    2    0    0  0.18113692079E+03 -0.63831116774E+02 -0.10513214742E+02  0.23048757716E+03  0.12700000000E+03 0.  0.
   -5000001    1    1    2    0    0 -0.18113692079E+03  0.63831116774E+02 -0.10137586122E+04  0.10395770868E+04  0.12700000000E+03 0.  0.
<mgrwt>
<rscale>  0 0.75095371E+03</rscale>
<asrwt>0</asrwt>
<pdfrwt beam="1">  1        2 0.16388117E+00 0.75095371E+03</pdfrwt>
<pdfrwt beam="2">  1       -2 0.17556632E-01 0.75095371E+03</pdfrwt>
<totfact> 0.61654514E+02</totfact>
</mgrwt>
</event>
<event>
 4    1  0.1399921E-004  0.5102108E+03  0.7818608E-02  0.1011148E+00
          2   -1    0    0  501    0  0.00000000000E+00  0.00000000000E+00  0.30648382295E+03  0.30648382296E+03  0.25500000000E-02 0.  1.
         -2   -1    0    0    0  501 -0.00000000000E+00 -0.00000000000E+00 -0.21233998930E+03  0.21233998932E+03  0.25500000000E-02 0. -1.
    5000001    1    1    2    0    0 -0.34384280476E+01  0.13366817678E+03 -0.13217274113E+03  0.22688683913E+03  0.12700000000E+03 0.  0.
   -5000001    1    1    2    0    0  0.34384280476E+01 -0.13366817678E+03  0.22631657478E+03  0.29193697315E+03  0.12700000000E+03 0.  0.
<mgrwt>
<rscale>  0 0.51021083E+03</rscale>
<asrwt>0</asrwt>
<pdfrwt beam="1">  1        2 0.43783403E-01 0.51021083E+03</pdfrwt>
<pdfrwt beam="2">  1       -2 0.30334284E-01 0.51021083E+03</pdfrwt>
<totfact> 0.11689018E+03</totfact>
</mgrwt>
</event>
<event>
 4    1  0.1399921E-004  0.3446189E+03  0.7818608E-02  0.1064846E+00
          2   -1    0    0  501    0  0.00000000000E+00  0.00000000000E+00  0.95865516432E+03  0.95865516433E+03  0.25500000000E-02 0.  1.
         -2   -1    0    0    0  501 -0.00000000000E+00 -0.00000000000E+00 -0.30971043165E+02  0.30971043270E+02  0.25500000000E-02 0. -1.
    5000001    1    1    2    0    0  0.53665576865E+02  0.88585515149E+02  0.61671987696E+03  0.63812208414E+03  0.12700000000E+03 0.  0.
   -5000001    1    1    2    0    0 -0.53665576865E+02 -0.88585515149E+02  0.31096424420E+03  0.35150412346E+03  0.12700000000E+03 0.  0.
<mgrwt>
<rscale>  0 0.34461892E+03</rscale>
<asrwt>0</asrwt>
<pdfrwt beam="1">  1        2 0.13695074E+00 0.34461892E+03</pdfrwt>
<pdfrwt beam="2">  1       -2 0.44244347E-02 0.34461892E+03</pdfrwt>
<totfact> 0.73093136E+03</totfact>
</mgrwt>
</event>
<event>
 4    1  0.1399921E-004  0.6803978E+03  0.7818608E-02  0.9751354E-01
         -2   -1    0    0    0  501 -0.00000000000E+00  0.00000000000E+00  0.17507015239E+03  0.17507015241E+03  0.25500000000E-02 0. -1.
          2   -1    0    0  501    0  0.00000000000E+00 -0.00000000000E+00 -0.66107950235E+03  0.66107950235E+03  0.25500000000E-02 0.  1.
    5000001    1    1    2    0    0  0.31445056751E+03 -0.23068781389E+01 -0.20998810106E+03  0.39888404791E+03  0.12700000000E+03 0.  0.
   -5000001    1    1    2    0    0 -0.31445056751E+03  0.23068781389E+01 -0.27602124890E+03  0.43726560685E+03  0.12700000000E+03 0.  0.
<mgrwt>
<rscale>  0 0.68039779E+03</rscale>
<asrwt>0</asrwt>
<pdfrwt beam="1">  1        2 0.94439928E-01 0.68039779E+03</pdfrwt>
<pdfrwt beam="2">  1       -2 0.25010022E-01 0.68039779E+03</pdfrwt>
<totfact> 0.69403993E+02</totfact>
</mgrwt>
</event>
<event>
 4    1  0.1399921E-004  0.3591652E+03  0.7818608E-02  0.1058915E+00
          2   -1    0    0  501    0  0.00000000000E+00  0.00000000000E+00  0.23004058409E+04  0.23004058409E+04  0.25500000000E-02 0.  1.
         -2   -1    0    0    0  501 -0.00000000000E+00 -0.00000000000E+00 -0.14019225567E+02  0.14019225799E+02  0.25500000000E-02 0. -1.
    5000001    1    1    2    0    0 -0.85461637962E+02  0.87628937313E+02  0.92577618705E+03  0.94242934521E+03  0.12700000000E+03 0.  0.
   -5000001    1    1    2    0    0  0.85461637962E+02 -0.87628937313E+02  0.13606104283E+04  0.13719957215E+04  0.12700000000E+03 0.  0.
<mgrwt>
<rscale>  0 0.35916519E+03</rscale>
<asrwt>0</asrwt>
<pdfrwt beam="1">  1        2 0.32862926E+00 0.35916519E+03</pdfrwt>
<pdfrwt beam="2">  1       -2 0.20027474E-02 0.35916519E+03</pdfrwt>
<totfact> 0.48519106E+03</totfact>
</mgrwt>
</event>
<event>
 4    1  0.1399921E-004  0.6023174E+03  0.7818608E-02  0.9900610E-01
          2   -1    0    0  501    0  0.00000000000E+00  0.00000000000E+00  0.17372746537E+04  0.17372746537E+04  0.25500000000E-02 0.  1.
         -2   -1    0    0    0  501 -0.00000000000E+00 -0.00000000000E+00 -0.52206233203E+02  0.52206233265E+02  0.25500000000E-02 0. -1.
    5000001    1    1    2    0    0 -0.22462539653E+03 -0.12160667231E+03  0.11293976243E+04  0.11648659774E+04  0.12700000000E+03 0.  0.
   -5000001    1    1    2    0    0  0.22462539653E+03  0.12160667231E+03  0.55567079622E+03  0.62461490960E+03  0.12700000000E+03 0.  0.
<mgrwt>
<rscale>  0 0.60231741E+03</rscale>
<asrwt>0</asrwt>
<pdfrwt beam="1">  1        2 0.24818216E+00 0.60231741E+03</pdfrwt>
<pdfrwt beam="2">  1       -2 0.74580312E-02 0.60231741E+03</pdfrwt>
<totfact> 0.12317056E+03</totfact>
</mgrwt>
</event>
<event>
 4    1  0.1399921E-004  0.3953905E+03  0.7818608E-02  0.1045388E+00
          2   -1    0    0  501    0  0.00000000000E+00  0.00000000000E+00  0.22697596468E+04  0.22697596468E+04  0.25500000000E-02 0.  1.
         -2   -1    0    0    0  501 -0.00000000000E+00 -0.00000000000E+00 -0.17219183721E+02  0.17219183910E+02  0.25500000000E-02 0. -1.
    5000001    1    1    2    0    0  0.14911302481E+03  0.59236621983E+01  0.12776131811E+04  0.12925533739E+04  0.12700000000E+03 0.  0.
   -5000001    1    1    2    0    0 -0.14911302481E+03 -0.59236621983E+01  0.97492728200E+03  0.99442545680E+03  0.12700000000E+03 0.  0.
<mgrwt>
<rscale>  0 0.39539048E+03</rscale>
<asrwt>0</asrwt>
<pdfrwt beam="1">  1        2 0.32425119E+00 0.39539048E+03</pdfrwt>
<pdfrwt beam="2">  1       -2 0.24598848E-02 0.39539048E+03</pdfrwt>
<totfact> 0.36962910E+03</totfact>
</mgrwt>
</event>
<event>
 4    1  0.1399921E-004  0.3859732E+03  0.7818608E-02  0.1048748E+00
          2   -1    0    0  501    0  0.00000000000E+00  0.00000000000E+00  0.18898632647E+04  0.18898632647E+04  0.25500000000E-02 0.  1.
         -2   -1    0    0    0  501 -0.00000000000E+00 -0.00000000000E+00 -0.19707159396E+02  0.19707159561E+02  0.25500000000E-02 0. -1.
    5000001    1    1    2    0    0 -0.93235592490E+02  0.11104874017E+03  0.98204942907E+03  0.10007870800E+04  0.12700000000E+03 0.  0.
   -5000001    1    1    2    0    0  0.93235592490E+02 -0.11104874017E+03  0.88810667625E+03  0.90878334425E+03  0.12700000000E+03 0.  0.
<mgrwt>
<rscale>  0 0.38597325E+03</rscale>
<asrwt>0</asrwt>
<pdfrwt beam="1">  1        2 0.26998051E+00 0.38597325E+03</pdfrwt>
<pdfrwt beam="2">  1       -2 0.28153081E-02 0.38597325E+03</pdfrwt>
<totfact> 0.46575884E+03</totfact>
</mgrwt>
</event>
<event>
 4    1  0.1399921E-004  0.6226315E+03  0.7818608E-02  0.9859534E-01
         -2   -1    0    0    0  501 -0.00000000000E+00  0.00000000000E+00  0.35889796399E+02  0.35889796489E+02  0.25500000000E-02 0. -1.
          2   -1    0    0  501    0  0.00000000000E+00 -0.00000000000E+00 -0.27004193826E+04  0.27004193826E+04  0.25500000000E-02 0.  1.
    5000001    1    1    2    0    0  0.94502526738E+02  0.13112123425E+03 -0.30474847560E+03  0.36759235440E+03  0.12700000000E+03 0.  0.
   -5000001    1    1    2    0    0 -0.94502526738E+02 -0.13112123425E+03 -0.23597811106E+04  0.23687168247E+04  0.12700000000E+03 0.  0.
<mgrwt>
<rscale>  0 0.62263152E+03</rscale>
<asrwt>0</asrwt>
<pdfrwt beam="1">  1        2 0.38577407E+00 0.62263152E+03</pdfrwt>
<pdfrwt beam="2">  1       -2 0.51271155E-02 0.62263152E+03</pdfrwt>
<totfact> 0.71783283E+02</totfact>
</mgrwt>
</event>
<event>
 4    1  0.1399921E-004  0.4339980E+03  0.7818608E-02  0.1032604E+00
         -2   -1    0    0    0  501 -0.00000000000E+00  0.00000000000E+00  0.28637736513E+02  0.28637736627E+02  0.25500000000E-02 0. -1.
          2   -1    0    0  501    0  0.00000000000E+00 -0.00000000000E+00 -0.16442834227E+04  0.16442834227E+04  0.25500000000E-02 0.  1.
    5000001    1    1    2    0    0 -0.91176816238E+01  0.16944866731E+03 -0.62852563604E+03  0.66330193588E+03  0.12700000000E+03 0.  0.
   -5000001    1    1    2    0    0  0.91176816238E+01 -0.16944866731E+03 -0.98712005018E+03  0.10096192235E+04  0.12700000000E+03 0.  0.
<mgrwt>
<rscale>  0 0.43399795E+03</rscale>
<asrwt>0</asrwt>
<pdfrwt beam="1">  1        2 0.23489757E+00 0.43399795E+03</pdfrwt>
<pdfrwt beam="2">  1       -2 0.40911063E-02 0.43399795E+03</pdfrwt>
<totfact> 0.35084404E+03</totfact>
</mgrwt>
</event>
<event>
 4    1  0.1399921E-004  0.3374649E+03  0.7818608E-02  0.1067881E+00
         -2   -1    0    0    0  501 -0.00000000000E+00  0.00000000000E+00  0.91584149176E+01  0.91584152726E+01  0.25500000000E-02 0. -1.
          2   -1    0    0  501    0  0.00000000000E+00 -0.00000000000E+00 -0.31086871678E+04  0.31086871678E+04  0.25500000000E-02 0.  1.
    5000001    1    1    2    0    0 -0.10717837620E+03  0.87319833832E+01 -0.18074975536E+04  0.18151418286E+04  0.12700000000E+03 0.  0.
   -5000001    1    1    2    0    0  0.10717837620E+03 -0.87319833832E+01 -0.12920311993E+04  0.13027037544E+04  0.12700000000E+03 0.  0.
<mgrwt>
<rscale>  0 0.33746495E+03</rscale>
<asrwt>0</asrwt>
<pdfrwt beam="1">  1        2 0.44409749E+00 0.33746495E+03</pdfrwt>
<pdfrwt beam="2">  1       -2 0.13083470E-02 0.33746495E+03</pdfrwt>
<totfact> 0.34833242E+03</totfact>
</mgrwt>
</event>
<event>
 4    1  0.1399921E-004  0.6009394E+03  0.7818608E-02  0.9903459E-01
          2   -1    0    0  501    0  0.00000000000E+00  0.00000000000E+00  0.58186160245E+03  0.58186160245E+03  0.25500000000E-02 0.  1.
         -2   -1    0    0    0  501 -0.00000000000E+00 -0.00000000000E+00 -0.15516067849E+03  0.15516067852E+03  0.25500000000E-02 0. -1.
    5000001    1    1    2    0    0 -0.83591759239E+02  0.24674489255E+03  0.11613993198E+03  0.31223085692E+03  0.12700000000E+03 0.  0.
   -5000001    1    1    2    0    0  0.83591759239E+02 -0.24674489255E+03  0.31056099197E+03  0.42479142405E+03  0.12700000000E+03 0.  0.
<mgrwt>
<rscale>  0 0.60093940E+03</rscale>
<asrwt>0</asrwt>
<pdfrwt beam="1">  1        2 0.83123084E-01 0.60093940E+03</pdfrwt>
<pdfrwt beam="2">  1       -2 0.22165812E-01 0.60093940E+03</pdfrwt>
<totfact> 0.10031762E+03</totfact>
</mgrwt>
</event>
<event>
 4    1  0.1399921E-004  0.7518629E+03  0.7818608E-02  0.9632432E-01
         -2   -1    0    0    0  501 -0.00000000000E+00  0.00000000000E+00  0.10305345086E+04  0.10305345086E+04  0.25500000000E-02 0. -1.
          2   -1    0    0  501    0  0.00000000000E+00 -0.00000000000E+00 -0.13713703817E+03  0.13713703820E+03  0.25500000000E-02 0.  1.
    5000001    1    1    2    0    0  0.30325502658E+03 -0.11319947282E+03  0.66861322250E+03  0.75362482251E+03  0.12700000000E+03 0.  0.
   -5000001    1    1    2    0    0 -0.30325502658E+03  0.11319947282E+03  0.22478424795E+03  0.41404672432E+03  0.12700000000E+03 0.  0.
<mgrwt>
<rscale>  0 0.75186289E+03</rscale>
<asrwt>0</asrwt>
<pdfrwt beam="1">  1        2 0.19591006E-01 0.75186289E+03</pdfrwt>
<pdfrwt beam="2">  1       -2 0.14721921E+00 0.75186289E+03</pdfrwt>
<totfact> 0.92658006E+01</totfact>
</mgrwt>
</event>
<event>
 4    1  0.1399921E-004  0.3222808E+03  0.7818608E-02  0.1074604E+00
          2   -1    0    0  501    0  0.00000000000E+00  0.00000000000E+00  0.43371637520E+03  0.43371637521E+03  0.25500000000E-02 0.  1.
         -2   -1    0    0    0  501 -0.00000000000E+00 -0.00000000000E+00 -0.59869126369E+02  0.59869126424E+02  0.25500000000E-02 0. -1.
    5000001    1    1    2    0    0 -0.31418736220E+02  0.70933464441E+02  0.92283354858E+02  0.17511113884E+03  0.12700000000E+03 0.  0.
   -5000001    1    1    2    0    0  0.31418736220E+02 -0.70933464441E+02  0.28156389397E+03  0.31847436279E+03  0.12700000000E+03 0.  0.
<mgrwt>
<rscale>  0 0.32228075E+03</rscale>
<asrwt>0</asrwt>
<pdfrwt beam="1">  1        2 0.61959480E-01 0.32228075E+03</pdfrwt>
<pdfrwt beam="2">  1       -2 0.85527326E-02 0.32228075E+03</pdfrwt>
<totfact> 0.67495985E+03</totfact>
</mgrwt>
</event>
<event>
 4    1  0.1399921E-004  0.3629820E+03  0.7818608E-02  0.1057409E+00
         -2   -1    0    0    0  501 -0.00000000000E+00  0.00000000000E+00  0.66215838461E+03  0.66215838462E+03  0.25500000000E-02 0. -1.
          2   -1    0    0  501    0  0.00000000000E+00 -0.00000000000E+00 -0.49744879179E+02  0.49744879244E+02  0.25500000000E-02 0.  1.
    5000001    1    1    2    0    0 -0.50929792648E+02 -0.11445071162E+03  0.37176047749E+03  0.41234410605E+03  0.12700000000E+03 0.  0.
   -5000001    1    1    2    0    0  0.50929792648E+02  0.11445071162E+03  0.24065302795E+03  0.29955915782E+03  0.12700000000E+03 0.  0.
<mgrwt>
<rscale>  0 0.36298203E+03</rscale>
<asrwt>0</asrwt>
<pdfrwt beam="1">  1        2 0.71064118E-02 0.36298203E+03</pdfrwt>
<pdfrwt beam="2">  1       -2 0.94594048E-01 0.36298203E+03</pdfrwt>
<totfact> 0.97287537E+02</totfact>
</mgrwt>
</event>
<event>
 4    1  0.1399921E-004  0.5265248E+03  0.7818608E-02  0.1007078E+00
          2   -1    0    0  501    0  0.00000000000E+00  0.00000000000E+00  0.49583311912E+03  0.49583311913E+03  0.25500000000E-02 0.  1.
         -2   -1    0    0    0  501 -0.00000000000E+00 -0.00000000000E+00 -0.13977905758E+03  0.13977905760E+03  0.25500000000E-02 0. -1.
    5000001    1    1    2    0    0  0.22247006491E+03 -0.13811233185E+01  0.10476331812E+03  0.27676558693E+03  0.12700000000E+03 0.  0.
   -5000001    1    1    2    0    0 -0.22247006491E+03  0.13811233185E+01  0.25129074342E+03  0.35884658980E+03  0.12700000000E+03 0.  0.
<mgrwt>
<rscale>  0 0.52652478E+03</rscale>
<asrwt>0</asrwt>
<pdfrwt beam="1">  1        2 0.70833304E-01 0.52652478E+03</pdfrwt>
<pdfrwt beam="2">  1       -2 0.19968436E-01 0.52652478E+03</pdfrwt>
<totfact> 0.14481898E+03</totfact>
</mgrwt>
</event>
<event>
 4    1  0.1399921E-004  0.4051923E+03  0.7818608E-02  0.1041996E+00
         -2   -1    0    0    0  501 -0.00000000000E+00  0.00000000000E+00  0.31948704399E+02  0.31948704500E+02  0.25500000000E-02 0. -1.
          2   -1    0    0  501    0  0.00000000000E+00 -0.00000000000E+00 -0.12847218957E+04  0.12847218957E+04  0.25500000000E-02 0.  1.
    5000001    1    1    2    0    0  0.42338129351E+02 -0.14286387800E+03 -0.79565990860E+03  0.81939385828E+03  0.12700000000E+03 0.  0.
   -5000001    1    1    2    0    0 -0.42338129351E+02  0.14286387800E+03 -0.45711328270E+03  0.49727674192E+03  0.12700000000E+03 0.  0.
<mgrwt>
<rscale>  0 0.40519230E+03</rscale>
<asrwt>0</asrwt>
<pdfrwt beam="1">  1        2 0.18353167E+00 0.40519230E+03</pdfrwt>
<pdfrwt beam="2">  1       -2 0.45641015E-02 0.40519230E+03</pdfrwt>
<totfact> 0.45600711E+03</totfact>
</mgrwt>
</event>
<event>
 4    1  0.1399921E-004  0.4631918E+03  0.7818608E-02  0.1023860E+00
         -2   -1    0    0    0  501 -0.00000000000E+00  0.00000000000E+00  0.21082225372E+03  0.21082225374E+03  0.25500000000E-02 0. -1.
          2   -1    0    0  501    0  0.00000000000E+00 -0.00000000000E+00 -0.25441652554E+03  0.25441652555E+03  0.25500000000E-02 0.  1.
    5000001    1    1    2    0    0 -0.10869396297E+01  0.12420010446E+03 -0.17104997657E+03  0.24660482937E+03  0.12700000000E+03 0.  0.
   -5000001    1    1    2    0    0  0.10869396297E+01 -0.12420010446E+03  0.12745570475E+03  0.21863394992E+03  0.12700000000E+03 0.  0.
<mgrwt>
<rscale>  0 0.46319182E+03</rscale>
<asrwt>0</asrwt>
<pdfrwt beam="1">  1        2 0.36345218E-01 0.46319182E+03</pdfrwt>
<pdfrwt beam="2">  1       -2 0.30117465E-01 0.46319182E+03</pdfrwt>
<totfact> 0.14529482E+03</totfact>
</mgrwt>
</event>
<event>
 4    1  0.1399921E-004  0.3827561E+03  0.7818608E-02  0.1049920E+00
          2   -1    0    0  501    0  0.00000000000E+00  0.00000000000E+00  0.88667038490E+03  0.88667038490E+03  0.25500000000E-02 0.  1.
         -2   -1    0    0    0  501 -0.00000000000E+00 -0.00000000000E+00 -0.41306856698E+02  0.41306856777E+02  0.25500000000E-02 0. -1.
    5000001    1    1    2    0    0  0.91371907333E+02 -0.27508900238E+02  0.68144114831E+03  0.69971180043E+03  0.12700000000E+03 0.  0.
   -5000001    1    1    2    0    0 -0.91371907333E+02  0.27508900238E+02  0.16392237989E+03  0.22826544125E+03  0.12700000000E+03 0.  0.
<mgrwt>
<rscale>  0 0.38275614E+03</rscale>
<asrwt>0</asrwt>
<pdfrwt beam="1">  1        2 0.12666719E+00 0.38275614E+03</pdfrwt>
<pdfrwt beam="2">  1       -2 0.59009799E-02 0.38275614E+03</pdfrwt>
<totfact> 0.52232257E+03</totfact>
</mgrwt>
</event>
<event>
 4    1  0.1399921E-004  0.4362577E+03  0.7818608E-02  0.1031901E+00
          2   -1    0    0  501    0  0.00000000000E+00  0.00000000000E+00  0.72268802436E+02  0.72268802481E+02  0.25500000000E-02 0.  1.
         -2   -1    0    0    0  501 -0.00000000000E+00 -0.00000000000E+00 -0.65837814899E+03  0.65837814900E+03  0.25500000000E-02 0. -1.
    5000001    1    1    2    0    0 -0.13398577483E+03 -0.47172206528E+02 -0.11522692747E+03  0.22267386407E+03  0.12700000000E+03 0.  0.
   -5000001    1    1    2    0    0  0.13398577483E+03  0.47172206528E+02 -0.47088241909E+03  0.50797308741E+03  0.12700000000E+03 0.  0.
<mgrwt>
<rscale>  0 0.43625772E+03</rscale>
<asrwt>0</asrwt>
<pdfrwt beam="1">  1        2 0.10324115E-01 0.43625772E+03</pdfrwt>
<pdfrwt beam="2">  1       -2 0.94054018E-01 0.43625772E+03</pdfrwt>
<totfact> 0.61286000E+02</totfact>
</mgrwt>
</event>
<event>
 4    1  0.1399921E-004  0.3601239E+03  0.7818608E-02  0.1058535E+00
         -2   -1    0    0    0  501 -0.00000000000E+00  0.00000000000E+00  0.11321205894E+04  0.11321205894E+04  0.25500000000E-02 0. -1.
          2   -1    0    0  501    0  0.00000000000E+00 -0.00000000000E+00 -0.28638569616E+02  0.28638569730E+02  0.25500000000E-02 0.  1.
    5000001    1    1    2    0    0 -0.56827725191E+02  0.68660914500E+02  0.84626659447E+03  0.86037193146E+03  0.12700000000E+03 0.  0.
   -5000001    1    1    2    0    0  0.56827725191E+02 -0.68660914500E+02  0.25721542533E+03  0.30038722769E+03  0.12700000000E+03 0.  0.
<mgrwt>
<rscale>  0 0.36012395E+03</rscale>
<asrwt>0</asrwt>
<pdfrwt beam="1">  1        2 0.40912233E-02 0.36012395E+03</pdfrwt>
<pdfrwt beam="2">  1       -2 0.16173155E+00 0.36012395E+03</pdfrwt>
<totfact> 0.53773842E+02</totfact>
</mgrwt>
</event>
<event>
 4    1  0.1399921E-004  0.5335769E+03  0.7818608E-02  0.1005368E+00
         -2   -1    0    0    0  501 -0.00000000000E+00  0.00000000000E+00  0.26743429898E+03  0.26743429899E+03  0.25500000000E-02 0. -1.
          2   -1    0    0  501    0  0.00000000000E+00 -0.00000000000E+00 -0.26614418328E+03  0.26614418329E+03  0.25500000000E-02 0.  1.
    5000001    1    1    2    0    0  0.17522586650E+03  0.86319845036E+02  0.13061413842E+03  0.26710348761E+03  0.12700000000E+03 0.  0.
   -5000001    1    1    2    0    0 -0.17522586650E+03 -0.86319845036E+02 -0.12932402272E+03  0.26647499468E+03  0.12700000000E+03 0.  0.
<mgrwt>
<rscale>  0 0.53357692E+03</rscale>
<asrwt>0</asrwt>
<pdfrwt beam="1">  1        2 0.38020598E-01 0.53357692E+03</pdfrwt>
<pdfrwt beam="2">  1       -2 0.38204900E-01 0.53357692E+03</pdfrwt>
<totfact> 0.88455201E+02</totfact>
</mgrwt>
</event>
<event>
 4    1  0.1399921E-004  0.4288192E+03  0.7818608E-02  0.1034234E+00
          2   -1    0    0  501    0  0.00000000000E+00  0.00000000000E+00  0.16498361178E+04  0.16498361178E+04  0.25500000000E-02 0.  1.
         -2   -1    0    0    0  501 -0.00000000000E+00 -0.00000000000E+00 -0.27864272289E+02  0.27864272405E+02  0.25500000000E-02 0. -1.
    5000001    1    1    2    0    0  0.31083017670E+02  0.11464902590E+03  0.13017029787E+04  0.13132669941E+04  0.12700000000E+03 0.  0.
   -5000001    1    1    2    0    0 -0.31083017670E+02 -0.11464902590E+03  0.32026886685E+03  0.36443339611E+03  0.12700000000E+03 0.  0.
<mgrwt>
<rscale>  0 0.42881923E+03</rscale>
<asrwt>0</asrwt>
<pdfrwt beam="1">  1        2 0.23569097E+00 0.42881923E+03</pdfrwt>
<pdfrwt beam="2">  1       -2 0.39806087E-02 0.42881923E+03</pdfrwt>
<totfact> 0.36345895E+03</totfact>
</mgrwt>
</event>
<event>
 4    1  0.1399921E-004  0.3208886E+03  0.7818608E-02  0.1075241E+00
         -2   -1    0    0    0  501 -0.00000000000E+00  0.00000000000E+00  0.25754537932E+02  0.25754538058E+02  0.25500000000E-02 0. -1.
          2   -1    0    0  501    0  0.00000000000E+00 -0.00000000000E+00 -0.99952763536E+03  0.99952763537E+03  0.25500000000E-02 0.  1.
    5000001    1    1    2    0    0 -0.73971063167E+02  0.68496624187E+01 -0.28242949387E+03  0.31845573487E+03  0.12700000000E+03 0.  0.
   -5000001    1    1    2    0    0  0.73971063167E+02 -0.68496624187E+01 -0.69134360356E+03  0.70682643856E+03  0.12700000000E+03 0.  0.
<mgrwt>
<rscale>  0 0.32088859E+03</rscale>
<asrwt>0</asrwt>
<pdfrwt beam="1">  1        2 0.14278964E+00 0.32088859E+03</pdfrwt>
<pdfrwt beam="2">  1       -2 0.36792203E-02 0.32088859E+03</pdfrwt>
<totfact> 0.91138090E+03</totfact>
</mgrwt>
</event>
<event>
 4    1  0.1399921E-004  0.5503929E+03  0.7818608E-02  0.1001403E+00
          2   -1    0    0  501    0  0.00000000000E+00  0.00000000000E+00  0.40755101482E+03  0.40755101482E+03  0.25500000000E-02 0.  1.
         -2   -1    0    0    0  501 -0.00000000000E+00 -0.00000000000E+00 -0.18582478367E+03  0.18582478369E+03  0.25500000000E-02 0. -1.
    5000001    1    1    2    0    0 -0.75677249962E+02 -0.22263031642E+03  0.40062760147E+02  0.27023199052E+03  0.12700000000E+03 0.  0.
   -5000001    1    1    2    0    0  0.75677249962E+02  0.22263031642E+03  0.18166347100E+03  0.32314380799E+03  0.12700000000E+03 0.  0.
<mgrwt>
<rscale>  0 0.55039287E+03</rscale>
<asrwt>0</asrwt>
<pdfrwt beam="1">  1        2 0.58221573E-01 0.55039287E+03</pdfrwt>
<pdfrwt beam="2">  1       -2 0.26546398E-01 0.55039287E+03</pdfrwt>
<totfact> 0.10891617E+03</totfact>
</mgrwt>
</event>
<event>
 4    1  0.1399921E-004  0.4435646E+03  0.7818608E-02  0.1029659E+00
         -2   -1    0    0    0  501 -0.00000000000E+00  0.00000000000E+00  0.33928562869E+02  0.33928562965E+02  0.25500000000E-02 0. -1.
          2   -1    0    0  501    0  0.00000000000E+00 -0.00000000000E+00 -0.14497341362E+04  0.14497341362E+04  0.25500000000E-02 0.  1.
    5000001    1    1    2    0    0  0.85980088458E+02 -0.15211153698E+03 -0.53972901631E+03  0.58134921204E+03  0.12700000000E+03 0.  0.
   -5000001    1    1    2    0    0 -0.85980088458E+02  0.15211153698E+03 -0.87607655705E+03  0.90231348716E+03  0.12700000000E+03 0.  0.
<mgrwt>
<rscale>  0 0.44356463E+03</rscale>
<asrwt>0</asrwt>
<pdfrwt beam="1">  1        2 0.20710484E+00 0.44356463E+03</pdfrwt>
<pdfrwt beam="2">  1       -2 0.48469385E-02 0.44356463E+03</pdfrwt>
<totfact> 0.34031557E+03</totfact>
</mgrwt>
</event>
<event>
 4    1  0.1399921E-004  0.3062005E+03  0.7818608E-02  0.1082181E+00
         -2   -1    0    0    0  501 -0.00000000000E+00  0.00000000000E+00  0.34490068962E+02  0.34490069056E+02  0.25500000000E-02 0. -1.
          2   -1    0    0  501    0  0.00000000000E+00 -0.00000000000E+00 -0.67960700267E+03  0.67960700267E+03  0.25500000000E-02 0.  1.
    5000001    1    1    2    0    0 -0.32999261288E+02  0.78407431604E+02 -0.34262228868E+03  0.37517423856E+03  0.12700000000E+03 0.  0.
   -5000001    1    1    2    0    0  0.32999261288E+02 -0.78407431604E+02 -0.30249464502E+03  0.33892283317E+03  0.12700000000E+03 0.  0.
<mgrwt>
<rscale>  0 0.30620054E+03</rscale>
<asrwt>0</asrwt>
<pdfrwt beam="1">  1        2 0.97086706E-01 0.30620054E+03</pdfrwt>
<pdfrwt beam="2">  1       -2 0.49271531E-02 0.30620054E+03</pdfrwt>
<totfact> 0.95239055E+03</totfact>
</mgrwt>
</event>
<event>
 4    1  0.1399921E-004  0.3799967E+03  0.7818608E-02  0.1050935E+00
         -2   -1    0    0    0  501 -0.00000000000E+00  0.00000000000E+00  0.46234027159E+02  0.46234027229E+02  0.25500000000E-02 0. -1.
          2   -1    0    0  501    0  0.00000000000E+00 -0.00000000000E+00 -0.78079677863E+03  0.78079677864E+03  0.25500000000E-02 0.  1.
    5000001    1    1    2    0    0 -0.13094118664E+03 -0.53148522715E+02 -0.36758664591E+03  0.41378654168E+03  0.12700000000E+03 0.  0.
   -5000001    1    1    2    0    0  0.13094118664E+03  0.53148522715E+02 -0.36697610557E+03  0.41324426419E+03  0.12700000000E+03 0.  0.
<mgrwt>
<rscale>  0 0.37999673E+03</rscale>
<asrwt>0</asrwt>
<pdfrwt beam="1">  1        2 0.11154239E+00 0.37999673E+03</pdfrwt>
<pdfrwt beam="2">  1       -2 0.66048615E-02 0.37999673E+03</pdfrwt>
<totfact> 0.51559518E+03</totfact>
</mgrwt>
</event>
<event>
 4    1  0.1399921E-004  0.4930748E+03  0.7818608E-02  0.1015602E+00
         -2   -1    0    0    0  501 -0.00000000000E+00  0.00000000000E+00  0.34602903635E+03  0.34602903636E+03  0.25500000000E-02 0. -1.
          2   -1    0    0  501    0  0.00000000000E+00 -0.00000000000E+00 -0.17565196482E+03  0.17565196484E+03  0.25500000000E-02 0.  1.
    5000001    1    1    2    0    0 -0.14038317181E+03 -0.15075519876E+03  0.13500654647E+03  0.27711068631E+03  0.12700000000E+03 0.  0.
   -5000001    1    1    2    0    0  0.14038317181E+03  0.15075519876E+03  0.35370525062E+02  0.24457031488E+03  0.12700000000E+03 0.  0.
<mgrwt>
<rscale>  0 0.49307476E+03</rscale>
<asrwt>0</asrwt>
<pdfrwt beam="1">  1        2 0.25093138E-01 0.49307476E+03</pdfrwt>
<pdfrwt beam="2">  1       -2 0.49432720E-01 0.49307476E+03</pdfrwt>
<totfact> 0.84829650E+02</totfact>
</mgrwt>
</event>
<event>
 4    1  0.1399921E-004  0.4836372E+03  0.7818608E-02  0.1018140E+00
         -2   -1    0    0    0  501 -0.00000000000E+00  0.00000000000E+00  0.33772906597E+03  0.33772906598E+03  0.25500000000E-02 0. -1.
          2   -1    0    0  501    0  0.00000000000E+00 -0.00000000000E+00 -0.17314539424E+03  0.17314539426E+03  0.25500000000E-02 0.  1.
    5000001    1    1    2    0    0 -0.76804263247E+02 -0.14882686327E+03 -0.44020525078E+02  0.21474435199E+03  0.12700000000E+03 0.  0.
   -5000001    1    1    2    0    0  0.76804263247E+02  0.14882686327E+03  0.20860419681E+03  0.29613010825E+03  0.12700000000E+03 0.  0.
<mgrwt>
<rscale>  0 0.48363719E+03</rscale>
<asrwt>0</asrwt>
<pdfrwt beam="1">  1        2 0.24735056E-01 0.48363719E+03</pdfrwt>
<pdfrwt beam="2">  1       -2 0.48247010E-01 0.48363719E+03</pdfrwt>
<totfact> 0.90535264E+02</totfact>
</mgrwt>
</event>
<event>
 4    1  0.1399921E-004  0.4730715E+03  0.7818608E-02  0.1021057E+00
          2   -1    0    0  501    0  0.00000000000E+00  0.00000000000E+00  0.16384382305E+03  0.16384382307E+03  0.25500000000E-02 0.  1.
         -2   -1    0    0    0  501 -0.00000000000E+00 -0.00000000000E+00 -0.34147856754E+03  0.34147856755E+03  0.25500000000E-02 0. -1.
    5000001    1    1    2    0    0 -0.82290992629E+02  0.16962532649E+03 -0.15866313624E+03  0.27721390596E+03  0.12700000000E+03 0.  0.
   -5000001    1    1    2    0    0  0.82290992629E+02 -0.16962532649E+03 -0.18971608255E+02  0.22810848466E+03  0.12700000000E+03 0.  0.
<mgrwt>
<rscale>  0 0.47307147E+03</rscale>
<asrwt>0</asrwt>
<pdfrwt beam="1">  1        2 0.23406261E-01 0.47307147E+03</pdfrwt>
<pdfrwt beam="2">  1       -2 0.48782652E-01 0.47307147E+03</pdfrwt>
<totfact> 0.94305748E+02</totfact>
</mgrwt>
</event>
<event>
 4    1  0.1399921E-004  0.2575590E+03  0.7818608E-02  0.1108619E+00
         -2   -1    0    0    0  501 -0.00000000000E+00  0.00000000000E+00  0.52976773712E+01  0.52976779849E+01  0.25500000000E-02 0. -1.
          2   -1    0    0  501    0  0.00000000000E+00 -0.00000000000E+00 -0.31304580783E+04  0.31304580783E+04  0.25500000000E-02 0.  1.
    5000001    1    1    2    0    0  0.60713882053E+01 -0.14303599403E+02 -0.17405601211E+04  0.17452564253E+04  0.12700000000E+03 0.  0.
   -5000001    1    1    2    0    0 -0.60713882053E+01  0.14303599403E+02 -0.13846002798E+04  0.13904993310E+04  0.12700000000E+03 0.  0.
<mgrwt>
<rscale>  0 0.25755899E+03</rscale>
<asrwt>0</asrwt>
<pdfrwt beam="1">  1        2 0.44720711E+00 0.25755899E+03</pdfrwt>
<pdfrwt beam="2">  1       -2 0.75681310E-03 0.25755899E+03</pdfrwt>
<totfact> 0.75527964E+03</totfact>
</mgrwt>
</event>
<event>
 4    1  0.1399921E-004  0.1041269E+04  0.7818608E-02  0.9264405E-01
         -2   -1    0    0    0  501 -0.00000000000E+00  0.00000000000E+00  0.49161275785E+03  0.49161275786E+03  0.25500000000E-02 0. -1.
          2   -1    0    0  501    0  0.00000000000E+00 -0.00000000000E+00 -0.55136901562E+03  0.55136901563E+03  0.25500000000E-02 0.  1.
    5000001    1    1    2    0    0  0.40397608753E+03  0.30156537393E+03 -0.16770838015E+01  0.51987514526E+03  0.12700000000E+03 0.  0.
   -5000001    1    1    2    0    0 -0.40397608753E+03 -0.30156537393E+03 -0.58079173964E+02  0.52310662823E+03  0.12700000000E+03 0.  0.
<mgrwt>
<rscale>  0 0.10412685E+04</rscale>
<asrwt>0</asrwt>
<pdfrwt beam="1">  1        2 0.78767002E-01 0.10412685E+04</pdfrwt>
<pdfrwt beam="2">  1       -2 0.70230394E-01 0.10412685E+04</pdfrwt>
<totfact> 0.11032631E+02</totfact>
</mgrwt>
</event>
<event>
 4    1  0.1399921E-004  0.5288730E+03  0.7818608E-02  0.1006506E+00
         -2   -1    0    0    0  501 -0.00000000000E+00  0.00000000000E+00  0.23431754914E+02  0.23431755053E+02  0.25500000000E-02 0. -1.
          2   -1    0    0  501    0  0.00000000000E+00 -0.00000000000E+00 -0.29842690894E+04  0.29842690894E+04  0.25500000000E-02 0.  1.
    5000001    1    1    2    0    0 -0.16838071185E+03 -0.15875959647E+03 -0.13921347861E+04  0.14169421076E+04  0.12700000000E+03 0.  0.
   -5000001    1    1    2    0    0  0.16838071185E+03  0.15875959647E+03 -0.15687025484E+04  0.15907587369E+04  0.12700000000E+03 0.  0.
<mgrwt>
<rscale>  0 0.52887300E+03</rscale>
<asrwt>0</asrwt>
<pdfrwt beam="1">  1        2 0.42632391E+00 0.52887300E+03</pdfrwt>
<pdfrwt beam="2">  1       -2 0.33473955E-02 0.52887300E+03</pdfrwt>
<totfact> 0.98466737E+02</totfact>
</mgrwt>
</event>
<event>
 4    1  0.1399921E-004  0.3194236E+03  0.7818608E-02  0.1075915E+00
         -2   -1    0    0    0  501 -0.00000000000E+00  0.00000000000E+00  0.76257761138E+01  0.76257765401E+01  0.25500000000E-02 0. -1.
          2   -1    0    0  501    0  0.00000000000E+00 -0.00000000000E+00 -0.33449515493E+04  0.33449515493E+04  0.25500000000E-02 0.  1.
    5000001    1    1    2    0    0 -0.47855080351E+02  0.54672238619E+02 -0.23406908852E+04  0.23452594701E+04  0.12700000000E+03 0.  0.
   -5000001    1    1    2    0    0  0.47855080351E+02 -0.54672238619E+02 -0.99663488800E+03  0.10073178557E+04  0.12700000000E+03 0.  0.
<mgrwt>
<rscale>  0 0.31942356E+03</rscale>
<asrwt>0</asrwt>
<pdfrwt beam="1">  1        2 0.47784928E+00 0.31942356E+03</pdfrwt>
<pdfrwt beam="2">  1       -2 0.10893988E-02 0.31942356E+03</pdfrwt>
<totfact> 0.33751478E+03</totfact>
</mgrwt>
</event>
<event>
 4    1  0.1399921E-004  0.4802020E+03  0.7818608E-02  0.1019080E+00
          2   -1    0    0  501    0  0.00000000000E+00  0.00000000000E+00  0.37543221898E+03  0.37543221899E+03  0.25500000000E-02 0.  1.
         -2   -1    0    0    0  501 -0.00000000000E+00 -0.00000000000E+00 -0.15355230224E+03  0.15355230226E+03  0.25500000000E-02 0. -1.
    5000001    1    1    2    0    0 -0.11182051375E+03  0.33127768151E+02 -0.73121466664E+02  0.18728861473E+03  0.12700000000E+03 0.  0.
   -5000001    1    1    2    0    0  0.11182051375E+03 -0.33127768151E+02  0.29500138341E+03  0.34169590652E+03  0.12700000000E+03 0.  0.
<mgrwt>
<rscale>  0 0.48020196E+03</rscale>
<asrwt>0</asrwt>
<pdfrwt beam="1">  1        2 0.53633174E-01 0.48020196E+03</pdfrwt>
<pdfrwt beam="2">  1       -2 0.21936043E-01 0.48020196E+03</pdfrwt>
<totfact> 0.16747270E+03</totfact>
</mgrwt>
</event>
<event>
 4    1  0.1399921E-004  0.4729666E+03  0.7818608E-02  0.1021086E+00
         -2   -1    0    0    0  501 -0.00000000000E+00  0.00000000000E+00  0.28098139624E+02  0.28098139740E+02  0.25500000000E-02 0. -1.
          2   -1    0    0  501    0  0.00000000000E+00 -0.00000000000E+00 -0.19903221131E+04  0.19903221131E+04  0.25500000000E-02 0.  1.
    5000001    1    1    2    0    0 -0.18215122768E+03 -0.57164628265E+02 -0.73416412842E+03  0.76913771974E+03  0.12700000000E+03 0.  0.
   -5000001    1    1    2    0    0  0.18215122768E+03  0.57164628265E+02 -0.12280598451E+04  0.12492825331E+04  0.12700000000E+03 0.  0.
<mgrwt>
<rscale>  0 0.47296659E+03</rscale>
<asrwt>0</asrwt>
<pdfrwt beam="1">  1        2 0.28433164E+00 0.47296659E+03</pdfrwt>
<pdfrwt beam="2">  1       -2 0.40140212E-02 0.47296659E+03</pdfrwt>
<totfact> 0.24225376E+03</totfact>
</mgrwt>
</event>
<event>
 4    1  0.1399921E-004  0.1023001E+04  0.7818608E-02  0.9283672E-01
         -2   -1    0    0    0  501 -0.00000000000E+00  0.00000000000E+00  0.80054596537E+02  0.80054596577E+02  0.25500000000E-02 0. -1.
          2   -1    0    0  501    0  0.00000000000E+00 -0.00000000000E+00 -0.32681770744E+04  0.32681770744E+04  0.25500000000E-02 0.  1.
    5000001    1    1    2    0    0 -0.14677830606E+03 -0.45233231165E+03 -0.11387184368E+04  0.12405470848E+04  0.12700000000E+03 0.  0.
   -5000001    1    1    2    0    0  0.14677830606E+03  0.45233231165E+03 -0.20494040411E+04  0.21076845862E+04  0.12700000000E+03 0.  0.
<mgrwt>
<rscale>  0 0.10230007E+04</rscale>
<asrwt>0</asrwt>
<pdfrwt beam="1">  1        2 0.46688236E+00 0.10230007E+04</pdfrwt>
<pdfrwt beam="2">  1       -2 0.11436373E-01 0.10230007E+04</pdfrwt>
<totfact> 0.93504626E+01</totfact>
</mgrwt>
</event>
<event>
 4    1  0.1399921E-004  0.4275303E+03  0.7818608E-02  0.1034643E+00
         -2   -1    0    0    0  501 -0.00000000000E+00  0.00000000000E+00  0.62720702746E+02  0.62720702798E+02  0.25500000000E-02 0. -1.
          2   -1    0    0  501    0  0.00000000000E+00 -0.00000000000E+00 -0.72855600640E+03  0.72855600640E+03  0.25500000000E-02 0.  1.
    5000001    1    1    2    0    0 -0.35465395305E+01 -0.17191200195E+03 -0.33202930795E+03  0.39489084023E+03  0.12700000000E+03 0.  0.
   -5000001    1    1    2    0    0  0.35465395305E+01  0.17191200195E+03 -0.33380599570E+03  0.39638586898E+03  0.12700000000E+03 0.  0.
<mgrwt>
<rscale>  0 0.42753033E+03</rscale>
<asrwt>0</asrwt>
<pdfrwt beam="1">  1        2 0.10407942E+00 0.42753033E+03</pdfrwt>
<pdfrwt beam="2">  1       -2 0.89601008E-02 0.42753033E+03</pdfrwt>
<totfact> 0.34805959E+03</totfact>
</mgrwt>
</event>
<event>
 4    1  0.1399921E-004  0.4280975E+03  0.7818608E-02  0.1034463E+00
          2   -1    0    0  501    0  0.00000000000E+00  0.00000000000E+00  0.15479567941E+04  0.15479567941E+04  0.25500000000E-02 0.  1.
         -2   -1    0    0    0  501 -0.00000000000E+00 -0.00000000000E+00 -0.29598284548E+02  0.29598284658E+02  0.25500000000E-02 0. -1.
    5000001    1    1    2    0    0  0.70598510845E+02 -0.14662567764E+03  0.55057144249E+03  0.58799757854E+03  0.12700000000E+03 0.  0.
   -5000001    1    1    2    0    0 -0.70598510845E+02  0.14662567764E+03  0.96778706704E+03  0.98955750021E+03  0.12700000000E+03 0.  0.
<mgrwt>
<rscale>  0 0.42809749E+03</rscale>
<asrwt>0</asrwt>
<pdfrwt beam="1">  1        2 0.22113677E+00 0.42809749E+03</pdfrwt>
<pdfrwt beam="2">  1       -2 0.42283247E-02 0.42809749E+03</pdfrwt>
<totfact> 0.37340650E+03</totfact>
</mgrwt>
</event>
<event>
 4    1  0.1399921E-004  0.3175598E+03  0.7818608E-02  0.1076778E+00
         -2   -1    0    0    0  501 -0.00000000000E+00  0.00000000000E+00  0.21045216404E+02  0.21045216558E+02  0.25500000000E-02 0. -1.
          2   -1    0    0  501    0  0.00000000000E+00 -0.00000000000E+00 -0.11979469075E+04  0.11979469075E+04  0.25500000000E-02 0.  1.
    5000001    1    1    2    0    0 -0.41303268411E+00 -0.60196809189E+02 -0.87204753685E+03  0.88330047716E+03  0.12700000000E+03 0.  0.
   -5000001    1    1    2    0    0  0.41303268411E+00  0.60196809189E+02 -0.30485415421E+03  0.33569164686E+03  0.12700000000E+03 0.  0.
<mgrwt>
<rscale>  0 0.31755977E+03</rscale>
<asrwt>0</asrwt>
<pdfrwt beam="1">  1        2 0.17113523E+00 0.31755977E+03</pdfrwt>
<pdfrwt beam="2">  1       -2 0.30064602E-02 0.31755977E+03</pdfrwt>
<totfact> 0.95143383E+03</totfact>
</mgrwt>
</event>
<event>
 4    1  0.1399921E-004  0.4107327E+03  0.7818608E-02  0.1040125E+00
          2   -1    0    0  501    0  0.00000000000E+00  0.00000000000E+00  0.63682926469E+03  0.63682926470E+03  0.25500000000E-02 0.  1.
         -2   -1    0    0    0  501 -0.00000000000E+00 -0.00000000000E+00 -0.66227060557E+02  0.66227060606E+02  0.25500000000E-02 0. -1.
    5000001    1    1    2    0    0 -0.44183858404E+02  0.12261381237E+03  0.44822855083E+03  0.48376047183E+03  0.12700000000E+03 0.  0.
   -5000001    1    1    2    0    0  0.44183858404E+02 -0.12261381237E+03  0.12237365331E+03  0.21929585347E+03  0.12700000000E+03 0.  0.
<mgrwt>
<rscale>  0 0.41073266E+03</rscale>
<asrwt>0</asrwt>
<pdfrwt beam="1">  1        2 0.90975602E-01 0.41073266E+03</pdfrwt>
<pdfrwt beam="2">  1       -2 0.94610095E-02 0.41073266E+03</pdfrwt>
<totfact> 0.37476811E+03</totfact>
</mgrwt>
</event>
<event>
 4    1  0.1399921E-004  0.2694090E+03  0.7818608E-02  0.1101618E+00
          2   -1    0    0  501    0  0.00000000000E+00  0.00000000000E+00  0.47921923378E+03  0.47921923378E+03  0.25500000000E-02 0.  1.
         -2   -1    0    0    0  501 -0.00000000000E+00 -0.00000000000E+00 -0.37864310406E+02  0.37864310492E+02  0.25500000000E-02 0. -1.
    5000001    1    1    2    0    0 -0.26745328359E+01  0.39476283945E+02  0.17992734704E+03  0.22375964858E+03  0.12700000000E+03 0.  0.
   -5000001    1    1    2    0    0  0.26745328359E+01 -0.39476283945E+02  0.26142757633E+03  0.29332389570E+03  0.12700000000E+03 0.  0.
<mgrwt>
<rscale>  0 0.26940903E+03</rscale>
<asrwt>0</asrwt>
<pdfrwt beam="1">  1        2 0.68459889E-01 0.26940903E+03</pdfrwt>
<pdfrwt beam="2">  1       -2 0.54091873E-02 0.26940903E+03</pdfrwt>
<totfact> 0.12220649E+04</totfact>
</mgrwt>
</event>
<event>
 4    1  0.1399921E-004  0.3456623E+03  0.7818608E-02  0.1064410E+00
          2   -1    0    0  501    0  0.00000000000E+00  0.00000000000E+00  0.15049432591E+04  0.15049432591E+04  0.25500000000E-02 0.  1.
         -2   -1    0    0    0  501 -0.00000000000E+00 -0.00000000000E+00 -0.19848323051E+02  0.19848323215E+02  0.25500000000E-02 0. -1.
    5000001    1    1    2    0    0 -0.51014339061E+02  0.10526958596E+03  0.77598309999E+03  0.79496095501E+03  0.12700000000E+03 0.  0.
   -5000001    1    1    2    0    0  0.51014339061E+02 -0.10526958596E+03  0.70911183607E+03  0.72983062732E+03  0.12700000000E+03 0.  0.
<mgrwt>
<rscale>  0 0.34566226E+03</rscale>
<asrwt>0</asrwt>
<pdfrwt beam="1">  1        2 0.21499198E+00 0.34566226E+03</pdfrwt>
<pdfrwt beam="2">  1       -2 0.28354735E-02 0.34566226E+03</pdfrwt>
<totfact> 0.71742158E+03</totfact>
</mgrwt>
</event>
<event>
 4    1  0.1399921E-004  0.3501706E+03  0.7818608E-02  0.1062545E+00
          2   -1    0    0  501    0  0.00000000000E+00  0.00000000000E+00  0.19268945872E+04  0.19268945872E+04  0.25500000000E-02 0.  1.
         -2   -1    0    0    0  501 -0.00000000000E+00 -0.00000000000E+00 -0.15908942919E+02  0.15908943124E+02  0.25500000000E-02 0. -1.
    5000001    1    1    2    0    0 -0.94725795856E+02  0.29810346875E+02  0.13344052943E+04  0.13441086722E+04  0.12700000000E+03 0.  0.
   -5000001    1    1    2    0    0  0.94725795856E+02 -0.29810346875E+02  0.57658034996E+03  0.59869485812E+03  0.12700000000E+03 0.  0.
<mgrwt>
<rscale>  0 0.35017057E+03</rscale>
<asrwt>0</asrwt>
<pdfrwt beam="1">  1        2 0.27527040E+00 0.35017057E+03</pdfrwt>
<pdfrwt beam="2">  1       -2 0.22727083E-02 0.35017057E+03</pdfrwt>
<totfact> 0.61477406E+03</totfact>
</mgrwt>
</event>
<event>
 4    1  0.1399921E-004  0.5163775E+03  0.7818608E-02  0.1009590E+00
          2   -1    0    0  501    0  0.00000000000E+00  0.00000000000E+00  0.90095375648E+03  0.90095375649E+03  0.25500000000E-02 0.  1.
         -2   -1    0    0    0  501 -0.00000000000E+00 -0.00000000000E+00 -0.73989834874E+02  0.73989834918E+02  0.25500000000E-02 0. -1.
    5000001    1    1    2    0    0 -0.52217241952E+01  0.21098717234E+03  0.55960204229E+03  0.61141336184E+03  0.12700000000E+03 0.  0.
   -5000001    1    1    2    0    0  0.52217241952E+01 -0.21098717234E+03  0.26736187932E+03  0.36353022957E+03  0.12700000000E+03 0.  0.
<mgrwt>
<rscale>  0 0.51637746E+03</rscale>
<asrwt>0</asrwt>
<pdfrwt beam="1">  1        2 0.12870768E+00 0.51637746E+03</pdfrwt>
<pdfrwt beam="2">  1       -2 0.10569977E-01 0.51637746E+03</pdfrwt>
<totfact> 0.20380197E+03</totfact>
</mgrwt>
</event>
<event>
 4    1  0.1399921E-004  0.4727366E+03  0.7818608E-02  0.1021151E+00
         -2   -1    0    0    0  501 -0.00000000000E+00  0.00000000000E+00  0.49171578644E+02  0.49171578710E+02  0.25500000000E-02 0. -1.
          2   -1    0    0  501    0  0.00000000000E+00 -0.00000000000E+00 -0.11362250635E+04  0.11362250635E+04  0.25500000000E-02 0.  1.
    5000001    1    1    2    0    0 -0.17063222487E+03  0.82499573961E+02 -0.69849563373E+03  0.73481064650E+03  0.12700000000E+03 0.  0.
   -5000001    1    1    2    0    0  0.17063222487E+03 -0.82499573961E+02 -0.38855785116E+03  0.45058599575E+03  0.12700000000E+03 0.  0.
<mgrwt>
<rscale>  0 0.47273663E+03</rscale>
<asrwt>0</asrwt>
<pdfrwt beam="1">  1        2 0.16231785E+00 0.47273663E+03</pdfrwt>
<pdfrwt beam="2">  1       -2 0.70245119E-02 0.47273663E+03</pdfrwt>
<totfact> 0.28248994E+03</totfact>
</mgrwt>
</event>
<event>
 4    1  0.1399921E-004  0.3602924E+03  0.7818608E-02  0.1058468E+00
         -2   -1    0    0    0  501 -0.00000000000E+00  0.00000000000E+00  0.26287928641E+02  0.26287928764E+02  0.25500000000E-02 0. -1.
          2   -1    0    0  501    0  0.00000000000E+00 -0.00000000000E+00 -0.12345077752E+04  0.12345077752E+04  0.25500000000E-02 0.  1.
    5000001    1    1    2    0    0 -0.10447395477E+03  0.48801437702E+02 -0.79664720399E+03  0.81490622478E+03  0.12700000000E+03 0.  0.
   -5000001    1    1    2    0    0  0.10447395477E+03 -0.48801437702E+02 -0.41157264259E+03  0.44588947922E+03  0.12700000000E+03 0.  0.
<mgrwt>
<rscale>  0 0.36029239E+03</rscale>
<asrwt>0</asrwt>
<pdfrwt beam="1">  1        2 0.17635822E+00 0.36029239E+03</pdfrwt>
<pdfrwt beam="2">  1       -2 0.37554192E-02 0.36029239E+03</pdfrwt>
<totfact> 0.65212277E+03</totfact>
</mgrwt>
</event>
<event>
 4    1  0.1399921E-004  0.4258030E+03  0.7818608E-02  0.1035194E+00
          2   -1    0    0  501    0  0.00000000000E+00  0.00000000000E+00  0.27494815499E+03  0.27494815500E+03  0.25500000000E-02 0.  1.
         -2   -1    0    0    0  501 -0.00000000000E+00 -0.00000000000E+00 -0.16485670936E+03  0.16485670938E+03  0.25500000000E-02 0. -1.
    5000001    1    1    2    0    0  0.13053532731E+03  0.11020606861E+03  0.58798211098E+02  0.22084175072E+03  0.12700000000E+03 0.  0.
   -5000001    1    1    2    0    0 -0.13053532731E+03 -0.11020606861E+03  0.51293234526E+02  0.21896311366E+03  0.12700000000E+03 0.  0.
<mgrwt>
<rscale>  0 0.42580300E+03</rscale>
<asrwt>0</asrwt>
<pdfrwt beam="1">  1        2 0.39278308E-01 0.42580300E+03</pdfrwt>
<pdfrwt beam="2">  1       -2 0.23550958E-01 0.42580300E+03</pdfrwt>
<totfact> 0.20764102E+03</totfact>
</mgrwt>
</event>
<event>
 4    1  0.1399921E-004  0.4565681E+03  0.7818608E-02  0.1025781E+00
          2   -1    0    0  501    0  0.00000000000E+00  0.00000000000E+00  0.14566225715E+04  0.14566225715E+04  0.25500000000E-02 0.  1.
         -2   -1    0    0    0  501 -0.00000000000E+00 -0.00000000000E+00 -0.35777013543E+02  0.35777013634E+02  0.25500000000E-02 0. -1.
    5000001    1    1    2    0    0 -0.95899084051E+02  0.15811285836E+03  0.57219377681E+03  0.61459826596E+03  0.12700000000E+03 0.  0.
   -5000001    1    1    2    0    0  0.95899084051E+02 -0.15811285836E+03  0.84865178112E+03  0.87780131915E+03  0.12700000000E+03 0.  0.
<mgrwt>
<rscale>  0 0.45656809E+03</rscale>
<asrwt>0</asrwt>
<pdfrwt beam="1">  1        2 0.20808894E+00 0.45656809E+03</pdfrwt>
<pdfrwt beam="2">  1       -2 0.51110018E-02 0.45656809E+03</pdfrwt>
<totfact> 0.31101535E+03</totfact>
</mgrwt>
</event>
<event>
 4    1  0.1399921E-004  0.4037805E+03  0.7818608E-02  0.1042478E+00
         -2   -1    0    0    0  501 -0.00000000000E+00  0.00000000000E+00  0.36278963035E+02  0.36278963125E+02  0.25500000000E-02 0. -1.
          2   -1    0    0  501    0  0.00000000000E+00 -0.00000000000E+00 -0.11235073759E+04  0.11235073759E+04  0.25500000000E-02 0.  1.
    5000001    1    1    2    0    0  0.10561689441E+03  0.11153771343E+03 -0.63602489828E+03  0.66652251360E+03  0.12700000000E+03 0.  0.
   -5000001    1    1    2    0    0 -0.10561689441E+03 -0.11153771343E+03 -0.45120351457E+03  0.49326382542E+03  0.12700000000E+03 0.  0.
<mgrwt>
<rscale>  0 0.40378055E+03</rscale>
<asrwt>0</asrwt>
<pdfrwt beam="1">  1        2 0.16050103E+00 0.40378055E+03</pdfrwt>
<pdfrwt beam="2">  1       -2 0.51827097E-02 0.40378055E+03</pdfrwt>
<totfact> 0.46045289E+03</totfact>
</mgrwt>
</event>
<event>
 4    1  0.1399921E-004  0.2711507E+03  0.7818608E-02  0.1100623E+00
         -2   -1    0    0    0  501 -0.00000000000E+00  0.00000000000E+00  0.16865705717E+02  0.16865705910E+02  0.25500000000E-02 0. -1.
          2   -1    0    0  501    0  0.00000000000E+00 -0.00000000000E+00 -0.10898252461E+04  0.10898252461E+04  0.25500000000E-02 0.  1.
    5000001    1    1    2    0    0 -0.23090226241E+02  0.37304433524E+02 -0.61027329778E+03  0.62488981212E+03  0.12700000000E+03 0.  0.
   -5000001    1    1    2    0    0  0.23090226241E+02 -0.37304433524E+02 -0.46268624264E+03  0.48180113993E+03  0.12700000000E+03 0.  0.
<mgrwt>
<rscale>  0 0.27115067E+03</rscale>
<asrwt>0</asrwt>
<pdfrwt beam="1">  1        2 0.15568928E+00 0.27115067E+03</pdfrwt>
<pdfrwt beam="2">  1       -2 0.24093872E-02 0.27115067E+03</pdfrwt>
<totfact> 0.15107826E+04</totfact>
</mgrwt>
</event>
<event>
 4    1  0.1399921E-004  0.4143141E+03  0.7818608E-02  0.1038933E+00
          2   -1    0    0  501    0  0.00000000000E+00  0.00000000000E+00  0.88264874835E+03  0.88264874836E+03  0.25500000000E-02 0.  1.
         -2   -1    0    0    0  501 -0.00000000000E+00 -0.00000000000E+00 -0.48619618821E+02  0.48619618888E+02  0.25500000000E-02 0. -1.
    5000001    1    1    2    0    0  0.21386605201E+02  0.16035877846E+03  0.36137592353E+03  0.41580510196E+03  0.12700000000E+03 0.  0.
   -5000001    1    1    2    0    0 -0.21386605201E+02 -0.16035877846E+03  0.47265320600E+03  0.51546326528E+03  0.12700000000E+03 0.  0.
<mgrwt>
<rscale>  0 0.41431411E+03</rscale>
<asrwt>0</asrwt>
<pdfrwt beam="1">  1        2 0.12609267E+00 0.41431411E+03</pdfrwt>
<pdfrwt beam="2">  1       -2 0.69456602E-02 0.41431411E+03</pdfrwt>
<totfact> 0.40821741E+03</totfact>
</mgrwt>
</event>
<event>
 4    1  0.1399921E-004  0.4946127E+03  0.7818608E-02  0.1015195E+00
         -2   -1    0    0    0  501 -0.00000000000E+00  0.00000000000E+00  0.23558355030E+02  0.23558355168E+02  0.25500000000E-02 0. -1.
          2   -1    0    0  501    0  0.00000000000E+00 -0.00000000000E+00 -0.25961249379E+04  0.25961249379E+04  0.25500000000E-02 0.  1.
    5000001    1    1    2    0    0 -0.89408305313E+02 -0.19066694737E+03 -0.11477936298E+04  0.11738428117E+04  0.12700000000E+03 0.  0.
   -5000001    1    1    2    0    0  0.89408305313E+02  0.19066694737E+03 -0.14247729530E+04  0.14458404813E+04  0.12700000000E+03 0.  0.
<mgrwt>
<rscale>  0 0.49461271E+03</rscale>
<asrwt>0</asrwt>
<pdfrwt beam="1">  1        2 0.37087481E+00 0.49461271E+03</pdfrwt>
<pdfrwt beam="2">  1       -2 0.33654809E-02 0.49461271E+03</pdfrwt>
<totfact> 0.15679465E+03</totfact>
</mgrwt>
</event>
<event>
 4    1  0.1399921E-004  0.4161760E+03  0.7818608E-02  0.1038318E+00
          2   -1    0    0  501    0  0.00000000000E+00  0.00000000000E+00  0.43273888183E+03  0.43273888184E+03  0.25500000000E-02 0. -1.
         -2   -1    0    0    0  501 -0.00000000000E+00 -0.00000000000E+00 -0.10006177232E+03  0.10006177235E+03  0.25500000000E-02 0.  1.
    5000001    1    1    2    0    0 -0.15055574946E+03 -0.56743191690E+02  0.21222715216E+03  0.29505285563E+03  0.12700000000E+03 0.  0.
   -5000001    1    1    2    0    0  0.15055574946E+03  0.56743191690E+02  0.12044995734E+03  0.23774779856E+03  0.12700000000E+03 0.  0.
<mgrwt>
<rscale>  0 0.41617602E+03</rscale>
<asrwt>0</asrwt>
<pdfrwt beam="1">  1        2 0.61819839E-01 0.41617602E+03</pdfrwt>
<pdfrwt beam="2">  1       -2 0.14294539E-01 0.41617602E+03</pdfrwt>
<totfact> 0.29678799E+03</totfact>
</mgrwt>
</event>
<event>
 4    1  0.1399921E-004  0.5698366E+03  0.7818608E-02  0.9970040E-01
          2   -1    0    0  501    0  0.00000000000E+00  0.00000000000E+00  0.81146340957E+03  0.81146340957E+03  0.25500000000E-02 0.  1.
         -2   -1    0    0    0  501 -0.00000000000E+00 -0.00000000000E+00 -0.10003956789E+03  0.10003956792E+03  0.25500000000E-02 0. -1.
    5000001    1    1    2    0    0 -0.93510755709E+02  0.17654404604E+03  0.60932274735E+03  0.65369356128E+03  0.12700000000E+03 0.  0.
   -5000001    1    1    2    0    0  0.93510755709E+02 -0.17654404604E+03  0.10210109433E+03  0.25780941621E+03  0.12700000000E+03 0.  0.
<mgrwt>
<rscale>  0 0.56983664E+03</rscale>
<asrwt>0</asrwt>
<pdfrwt beam="1">  1        2 0.11592335E+00 0.56983664E+03</pdfrwt>
<pdfrwt beam="2">  1       -2 0.14291366E-01 0.56983664E+03</pdfrwt>
<totfact> 0.14210961E+03</totfact>
</mgrwt>
</event>
<event>
 4    1  0.1399921E-004  0.5265685E+03  0.7818608E-02  0.1007068E+00
         -2   -1    0    0    0  501 -0.00000000000E+00  0.00000000000E+00  0.14098830031E+03  0.14098830033E+03  0.25500000000E-02 0. -1.
          2   -1    0    0  501    0  0.00000000000E+00 -0.00000000000E+00 -0.49166211430E+03  0.49166211431E+03  0.25500000000E-02 0.  1.
    5000001    1    1    2    0    0 -0.15674898594E+03 -0.14650928942E+03 -0.27696064778E+03  0.37265455438E+03  0.12700000000E+03 0.  0.
   -5000001    1    1    2    0    0  0.15674898594E+03  0.14650928942E+03 -0.73713166211E+02  0.25999586026E+03  0.12700000000E+03 0.  0.
<mgrwt>
<rscale>  0 0.52656854E+03</rscale>
<asrwt>0</asrwt>
<pdfrwt beam="1">  1        2 0.70237444E-01 0.52656854E+03</pdfrwt>
<pdfrwt beam="2">  1       -2 0.20141186E-01 0.52656854E+03</pdfrwt>
<totfact> 0.14403748E+03</totfact>
</mgrwt>
</event>
<event>
 4    1  0.1399921E-004  0.4437575E+03  0.7818608E-02  0.1029600E+00
         -2   -1    0    0    0  501 -0.00000000000E+00  0.00000000000E+00  0.47927944628E+03  0.47927944629E+03  0.25500000000E-02 0. -1.
          2   -1    0    0  501    0  0.00000000000E+00 -0.00000000000E+00 -0.10271706068E+03  0.10271706071E+03  0.25500000000E-02 0.  1.
    5000001    1    1    2    0    0 -0.13394276118E+03 -0.10981192771E+03  0.26132532119E+03  0.33825914065E+03  0.12700000000E+03 0.  0.
   -5000001    1    1    2    0    0  0.13394276118E+03  0.10981192771E+03  0.11523706442E+03  0.24373736635E+03  0.12700000000E+03 0.  0.
<mgrwt>
<rscale>  0 0.44375748E+03</rscale>
<asrwt>0</asrwt>
<pdfrwt beam="1">  1        2 0.14673866E-01 0.44375748E+03</pdfrwt>
<pdfrwt beam="2">  1       -2 0.68468493E-01 0.44375748E+03</pdfrwt>
<totfact> 0.80662116E+02</totfact>
</mgrwt>
</event>
<event>
 4    1  0.1399921E-004  0.5604578E+03  0.7818608E-02  0.9991019E-01
          2   -1    0    0  501    0  0.00000000000E+00  0.00000000000E+00  0.58330138077E+03  0.58330138077E+03  0.25500000000E-02 0.  1.
         -2   -1    0    0    0  501 -0.00000000000E+00 -0.00000000000E+00 -0.13462719206E+03  0.13462719208E+03  0.25500000000E-02 0. -1.
    5000001    1    1    2    0    0  0.23447849627E+03  0.77245257833E+02  0.27315243691E+03  0.38947175618E+03  0.12700000000E+03 0.  0.
   -5000001    1    1    2    0    0 -0.23447849627E+03 -0.77245257833E+02  0.17552175180E+03  0.32845681668E+03  0.12700000000E+03 0.  0.
<mgrwt>
<rscale>  0 0.56045777E+03</rscale>
<asrwt>0</asrwt>
<pdfrwt beam="1">  1        2 0.83328767E-01 0.56045777E+03</pdfrwt>
<pdfrwt beam="2">  1       -2 0.19232456E-01 0.56045777E+03</pdfrwt>
<totfact> 0.12824340E+03</totfact>
</mgrwt>
</event>
<event>
 4    1  0.1399921E-004  0.5335850E+03  0.7818608E-02  0.1005366E+00
          2   -1    0    0  501    0  0.00000000000E+00  0.00000000000E+00  0.49507157404E+03  0.49507157405E+03  0.25500000000E-02 0.  1.
         -2   -1    0    0    0  501 -0.00000000000E+00 -0.00000000000E+00 -0.14377360540E+03  0.14377360542E+03  0.25500000000E-02 0. -1.
    5000001    1    1    2    0    0 -0.23313210536E+03 -0.10793580584E+01  0.20726873344E+03  0.33681014151E+03  0.12700000000E+03 0.  0.
   -5000001    1    1    2    0    0  0.23313210536E+03  0.10793580584E+01  0.14402923521E+03  0.30203503796E+03  0.12700000000E+03 0.  0.
<mgrwt>
<rscale>  0 0.53358495E+03</rscale>
<asrwt>0</asrwt>
<pdfrwt beam="1">  1        2 0.70724510E-01 0.53358495E+03</pdfrwt>
<pdfrwt beam="2">  1       -2 0.20539087E-01 0.53358495E+03</pdfrwt>
<totfact> 0.13813049E+03</totfact>
</mgrwt>
</event>
<event>
 4    1  0.1399921E-004  0.4392486E+03  0.7818608E-02  0.1030978E+00
          2   -1    0    0  501    0  0.00000000000E+00  0.00000000000E+00  0.20473887696E+04  0.20473887696E+04  0.25500000000E-02 0.  1.
         -2   -1    0    0    0  501 -0.00000000000E+00 -0.00000000000E+00 -0.23559192717E+02  0.23559192855E+02  0.25500000000E-02 0. -1.
    5000001    1    1    2    0    0 -0.88152948132E+02 -0.54719503248E+02  0.17006666045E+04  0.17085552569E+04  0.12700000000E+03 0.  0.
   -5000001    1    1    2    0    0  0.88152948132E+02  0.54719503248E+02  0.32316297233E+03  0.36239270548E+03  0.12700000000E+03 0.  0.
<mgrwt>
<rscale>  0 0.43924857E+03</rscale>
<asrwt>0</asrwt>
<pdfrwt beam="1">  1        2 0.29248418E+00 0.43924857E+03</pdfrwt>
<pdfrwt beam="2">  1       -2 0.33655982E-02 0.43924857E+03</pdfrwt>
<totfact> 0.29701805E+03</totfact>
</mgrwt>
</event>
<event>
 4    1  0.1399921E-004  0.5608467E+03  0.7818608E-02  0.9990141E-01
          2   -1    0    0  501    0  0.00000000000E+00  0.00000000000E+00  0.80128767137E+03  0.80128767138E+03  0.25500000000E-02 0.  1.
         -2   -1    0    0    0  501 -0.00000000000E+00 -0.00000000000E+00 -0.98138621081E+02  0.98138621114E+02  0.25500000000E-02 0. -1.
    5000001    1    1    2    0    0 -0.13193987207E+03 -0.17729318930E+03  0.53905763243E+03  0.59628276505E+03  0.12700000000E+03 0.  0.
   -5000001    1    1    2    0    0  0.13193987207E+03  0.17729318930E+03  0.16409141786E+03  0.30314352744E+03  0.12700000000E+03 0.  0.
<mgrwt>
<rscale>  0 0.56084674E+03</rscale>
<asrwt>0</asrwt>
<pdfrwt beam="1">  1        2 0.11446966E+00 0.56084674E+03</pdfrwt>
<pdfrwt beam="2">  1       -2 0.14019804E-01 0.56084674E+03</pdfrwt>
<totfact> 0.14913984E+03</totfact>
</mgrwt>
</event>
<event>
 4    1  0.1399921E-004  0.2844534E+03  0.7818608E-02  0.1093281E+00
          2   -1    0    0  501    0  0.00000000000E+00  0.00000000000E+00  0.82463801160E+02  0.82463801199E+02  0.25500000000E-02 0.  1.
         -2   -1    0    0    0  501 -0.00000000000E+00 -0.00000000000E+00 -0.24530071555E+03  0.24530071556E+03  0.25500000000E-02 0. -1.
    5000001    1    1    2    0    0 -0.48348324728E+02 -0.41290247467E+02 -0.90116646345E+02  0.16820361170E+03  0.12700000000E+03 0.  0.
   -5000001    1    1    2    0    0  0.48348324728E+02  0.41290247467E+02 -0.72720268042E+02  0.15956090506E+03  0.12700000000E+03 0.  0.
<mgrwt>
<rscale>  0 0.28445337E+03</rscale>
<asrwt>0</asrwt>
<pdfrwt beam="1">  1        2 0.11780543E-01 0.28445337E+03</pdfrwt>
<pdfrwt beam="2">  1       -2 0.35042959E-01 0.28445337E+03</pdfrwt>
<totfact> 0.39910894E+03</totfact>
</mgrwt>
</event>
<event>
 4    1  0.1399921E-004  0.8089435E+03  0.7818608E-02  0.9547161E-01
         -2   -1    0    0    0  501 -0.00000000000E+00  0.00000000000E+00  0.80971664016E+02  0.80971664057E+02  0.25500000000E-02 0. -1.
          2   -1    0    0  501    0  0.00000000000E+00 -0.00000000000E+00 -0.20204277802E+04  0.20204277802E+04  0.25500000000E-02 0.  1.
    5000001    1    1    2    0    0  0.33868819777E+03 -0.40208313509E+02 -0.51130797098E+03  0.62760755650E+03  0.12700000000E+03 0.  0.
   -5000001    1    1    2    0    0 -0.33868819777E+03  0.40208313509E+02 -0.14281481452E+04  0.14737918877E+04  0.12700000000E+03 0.  0.
<mgrwt>
<rscale>  0 0.80894351E+03</rscale>
<asrwt>0</asrwt>
<pdfrwt beam="1">  1        2 0.28863251E+00 0.80894351E+03</pdfrwt>
<pdfrwt beam="2">  1       -2 0.11567382E-01 0.80894351E+03</pdfrwt>
<totfact> 0.43035912E+02</totfact>
</mgrwt>
</event>
<event>
 4    1  0.1399921E-004  0.4011724E+03  0.7818608E-02  0.1043374E+00
         -2   -1    0    0    0  501 -0.00000000000E+00  0.00000000000E+00  0.21574484708E+03  0.21574484710E+03  0.25500000000E-02 0. -1.
          2   -1    0    0  501    0  0.00000000000E+00 -0.00000000000E+00 -0.18649264565E+03  0.18649264567E+03  0.25500000000E-02 0.  1.
    5000001    1    1    2    0    0  0.11631204697E+03  0.67078990118E+02 -0.63540763334E+02  0.19543416229E+03  0.12700000000E+03 0.  0.
   -5000001    1    1    2    0    0 -0.11631204697E+03 -0.67078990118E+02  0.92792964769E+02  0.20680333048E+03  0.12700000000E+03 0.  0.
<mgrwt>
<rscale>  0 0.40117242E+03</rscale>
<asrwt>0</asrwt>
<pdfrwt beam="1">  1        2 0.26641807E-01 0.40117242E+03</pdfrwt>
<pdfrwt beam="2">  1       -2 0.30820692E-01 0.40117242E+03</pdfrwt>
<totfact> 0.19636655E+03</totfact>
</mgrwt>
</event>
<event>
 4    1  0.1399921E-004  0.4745741E+03  0.7818608E-02  0.1020637E+00
         -2   -1    0    0    0  501 -0.00000000000E+00  0.00000000000E+00  0.13107111458E+02  0.13107111706E+02  0.25500000000E-02 0. -1.
          2   -1    0    0  501    0  0.00000000000E+00 -0.00000000000E+00 -0.42957711394E+04  0.42957711394E+04  0.25500000000E-02 0.  1.
    5000001    1    1    2    0    0 -0.68232510987E+02  0.18508316289E+03 -0.24642213742E+04  0.24753641012E+04  0.12700000000E+03 0.  0.
   -5000001    1    1    2    0    0  0.68232510987E+02 -0.18508316289E+03 -0.18184426538E+04  0.18335141499E+04  0.12700000000E+03 0.  0.
<mgrwt>
<rscale>  0 0.47457413E+03</rscale>
<asrwt>0</asrwt>
<pdfrwt beam="1">  1        2 0.61368069E+00 0.47457413E+03</pdfrwt>
<pdfrwt beam="2">  1       -2 0.18724473E-02 0.47457413E+03</pdfrwt>
<totfact> 0.37046974E+02</totfact>
</mgrwt>
</event>
<event>
 4    1  0.1399921E-004  0.3181591E+03  0.7818608E-02  0.1076500E+00
         -2   -1    0    0    0  501 -0.00000000000E+00  0.00000000000E+00  0.17282573362E+02  0.17282573550E+02  0.25500000000E-02 0. -1.
          2   -1    0    0  501    0  0.00000000000E+00 -0.00000000000E+00 -0.14642672026E+04  0.14642672026E+04  0.25500000000E-02 0.  1.
    5000001    1    1    2    0    0  0.56250841981E+01  0.93548933646E+02 -0.81595441409E+03  0.83107980990E+03  0.12700000000E+03 0.  0.
   -5000001    1    1    2    0    0 -0.56250841981E+01 -0.93548933646E+02 -0.63103021511E+03  0.65046996621E+03  0.12700000000E+03 0.  0.
<mgrwt>
<rscale>  0 0.31815911E+03</rscale>
<asrwt>0</asrwt>
<pdfrwt beam="1">  1        2 0.20918095E+00 0.31815911E+03</pdfrwt>
<pdfrwt beam="2">  1       -2 0.24689400E-02 0.31815911E+03</pdfrwt>
<totfact> 0.92376264E+03</totfact>
</mgrwt>
</event>
