<event>
 4    1  0.1790407E+000  0.2194886E+03  0.7546771E-02  0.1134265E+00
         -1   -1    0    0    0  501 -0.00000000000E+00  0.00000000000E+00  0.78084053835E+02  0.78084053835E+02  0.00000000000E+00 0. -1.
          1   -1    0    0  502    0  0.00000000000E+00 -0.00000000000E+00 -0.77275707452E+03  0.77275707452E+03  0.00000000000E+00 0.  1.
          6    1    1    2  502    0 -0.59996367157E+02  0.12102343763E+03 -0.15632139627E+03  0.26946542535E+03  0.17300000000E+03 0. -1.
         -6    1    1    2    0  501  0.59996367157E+02 -0.12102343763E+03 -0.53835162442E+03  0.58137570300E+03  0.17300000000E+03 0.  1.
<mgrwt>
<rscale>  2 0.21948858E+03</rscale>
<asrwt>0</asrwt>
<pdfrwt beam="1">  1        1 0.11888570E+00 0.21948858E+03</pdfrwt>
<pdfrwt beam="2">  1       -1 0.12012931E-01 0.21948858E+03</pdfrwt>
<totfact> 0.11131086E+03</totfact>
</mgrwt>
</event>
<event>
 4    1  0.1790407E+000  0.2410787E+03  0.7546771E-02  0.1119076E+00
         -3   -1    0    0    0  501 -0.00000000000E+00  0.00000000000E+00  0.17258519982E+03  0.17258519982E+03  0.00000000000E+00 0.  1.
          3   -1    0    0  502    0  0.00000000000E+00 -0.00000000000E+00 -0.60427179013E+03  0.60427179013E+03  0.00000000000E+00 0. -1.
          6    1    1    2  502    0 -0.16533912762E+03  0.29204709293E+02 -0.47428963282E+03  0.53204285351E+03  0.17300000000E+03 0. -1.
         -6    1    1    2    0  501  0.16533912762E+03 -0.29204709293E+02  0.42603042508E+02  0.24481413644E+03  0.17300000000E+03 0.  1.
<mgrwt>
<rscale>  2 0.24107871E+03</rscale>
<asrwt>0</asrwt>
<pdfrwt beam="1">  1        3 0.92964891E-01 0.24107871E+03</pdfrwt>
<pdfrwt beam="2">  1       -3 0.26551569E-01 0.24107871E+03</pdfrwt>
<totfact> 0.35593739E+01</totfact>
</mgrwt>
</event>
<event>
 4    1  0.1790407E+000  0.2000745E+03  0.7546771E-02  0.1149676E+00
          1   -1    0    0  502    0  0.00000000000E+00  0.00000000000E+00  0.80505856161E+02  0.80505856161E+02  0.00000000000E+00 0.  1.
         -1   -1    0    0    0  501 -0.00000000000E+00 -0.00000000000E+00 -0.64543440111E+03  0.64543440111E+03  0.00000000000E+00 0. -1.
          6    1    1    2  502    0 -0.91660534484E+02 -0.41220919485E+02 -0.10853312336E+03  0.22761646832E+03  0.17300000000E+03 0.  1.
         -6    1    1    2    0  501  0.91660534484E+02  0.41220919485E+02 -0.45639542159E+03  0.49832378895E+03  0.17300000000E+03 0. -1.
<mgrwt>
<rscale>  2 0.20007453E+03</rscale>
<asrwt>0</asrwt>
<pdfrwt beam="1">  1        1 0.12385516E-01 0.20007453E+03</pdfrwt>
<pdfrwt beam="2">  1       -1 0.99297600E-01 0.20007453E+03</pdfrwt>
<totfact> 0.49303143E+02</totfact>
</mgrwt>
</event>
<event>
 4    1  0.1790407E+000  0.2323291E+03  0.7546771E-02  0.1125011E+00
          2   -1    0    0  502    0  0.00000000000E+00  0.00000000000E+00  0.31002881955E+03  0.31002881955E+03  0.00000000000E+00 0.  1.
         -2   -1    0    0    0  501 -0.00000000000E+00 -0.00000000000E+00 -0.24362809937E+03  0.24362809937E+03  0.00000000000E+00 0. -1.
          6    1    1    2  502    0 -0.23812828945E+01  0.15505525920E+03 -0.11468299795E+03  0.25909263581E+03  0.17300000000E+03 0. -1.
         -6    1    1    2    0  501  0.23812828945E+01 -0.15505525920E+03  0.18108371812E+03  0.29456428311E+03  0.17300000000E+03 0.  1.
<mgrwt>
<rscale>  2 0.23232909E+03</rscale>
<asrwt>0</asrwt>
<pdfrwt beam="1">  1        2 0.47696742E-01 0.23232909E+03</pdfrwt>
<pdfrwt beam="2">  1       -2 0.37481246E-01 0.23232909E+03</pdfrwt>
<totfact> 0.71328873E+02</totfact>
</mgrwt>
</event>
<event>
 4    1  0.1790407E+000  0.2120933E+03  0.7546771E-02  0.1139919E+00
          2   -1    0    0  502    0  0.00000000000E+00  0.00000000000E+00  0.16814811440E+04  0.16814811440E+04  0.00000000000E+00 0.  1.
         -2   -1    0    0    0  501 -0.00000000000E+00 -0.00000000000E+00 -0.26813128911E+02  0.26813128911E+02  0.00000000000E+00 0. -1.
          6    1    1    2  502    0 -0.69054687637E+02 -0.10141999026E+03  0.78666609181E+03  0.81475585564E+03  0.17300000000E+03 0. -1.
         -6    1    1    2    0  501  0.69054687637E+02  0.10141999026E+03  0.86800192326E+03  0.89353841725E+03  0.17300000000E+03 0.  1.
<mgrwt>
<rscale>  2 0.21209329E+03</rscale>
<asrwt>0</asrwt>
<pdfrwt beam="1">  1        2 0.25868933E+00 0.21209329E+03</pdfrwt>
<pdfrwt beam="2">  1       -2 0.41250980E-02 0.21209329E+03</pdfrwt>
<totfact> 0.28661735E+03</totfact>
</mgrwt>
</event>
<event>
 4    1  0.1790407E+000  0.3423741E+03  0.7546771E-02  0.1065789E+00
         -1   -1    0    0    0  501 -0.00000000000E+00  0.00000000000E+00  0.10986882735E+03  0.10986882735E+03  0.00000000000E+00 0. -1.
          1   -1    0    0  502    0  0.00000000000E+00 -0.00000000000E+00 -0.10691768468E+04  0.10691768468E+04  0.00000000000E+00 0.  1.
          6    1    1    2  502    0 -0.19950400469E+03 -0.21792016367E+03 -0.50680454820E+03  0.61161335474E+03  0.17300000000E+03 0.  1.
         -6    1    1    2    0  501  0.19950400469E+03  0.21792016367E+03 -0.45250347130E+03  0.56743231945E+03  0.17300000000E+03 0. -1.
<mgrwt>
<rscale>  2 0.34237413E+03</rscale>
<asrwt>0</asrwt>
<pdfrwt beam="1">  1        1 0.16448874E+00 0.34237413E+03</pdfrwt>
<pdfrwt beam="2">  1       -1 0.16902897E-01 0.34237413E+03</pdfrwt>
<totfact> 0.37607210E+02</totfact>
</mgrwt>
</event>
<event>
 4    1  0.1790407E+000  0.1736343E+03  0.7546771E-02  0.1174110E+00
          1   -1    0    0  502    0  0.00000000000E+00  0.00000000000E+00  0.10062272552E+04  0.10062272552E+04  0.00000000000E+00 0.  1.
         -1   -1    0    0    0  501 -0.00000000000E+00 -0.00000000000E+00 -0.34454804720E+02  0.34454804720E+02  0.00000000000E+00 0. -1.
          6    1    1    2  502    0  0.12304509505E+02  0.82737012310E+01  0.67377843862E+03  0.69579180754E+03  0.17300000000E+03 0.  1.
         -6    1    1    2    0  501 -0.12304509505E+02 -0.82737012310E+01  0.29799401188E+03  0.34489025240E+03  0.17300000000E+03 0. -1.
<mgrwt>
<rscale>  2 0.17363426E+03</rscale>
<asrwt>0</asrwt>
<pdfrwt beam="1">  1        1 0.15480417E+00 0.17363426E+03</pdfrwt>
<pdfrwt beam="2">  1       -1 0.53007400E-02 0.17363426E+03</pdfrwt>
<totfact> 0.25308944E+03</totfact>
</mgrwt>
</event>
<event>
 4    1  0.1790407E+000  0.1963239E+03  0.7546771E-02  0.1152878E+00
          1   -1    0    0  502    0  0.00000000000E+00  0.00000000000E+00  0.38290365730E+02  0.38290365730E+02  0.00000000000E+00 0. -1.
         -1   -1    0    0    0  501 -0.00000000000E+00 -0.00000000000E+00 -0.10115416256E+04  0.10115416256E+04  0.00000000000E+00 0.  1.
          6    1    1    2  502    0  0.64928141809E+02 -0.66320442550E+02 -0.52331606542E+03  0.55893002159E+03  0.17300000000E+03 0. -1.
         -6    1    1    2    0  501 -0.64928141809E+02  0.66320442550E+02 -0.44993519447E+03  0.49090196977E+03  0.17300000000E+03 0. -1.
<mgrwt>
<rscale>  2 0.19632388E+03</rscale>
<asrwt>0</asrwt>
<pdfrwt beam="1">  1        1 0.58908264E-02 0.19632388E+03</pdfrwt>
<pdfrwt beam="2">  1       -1 0.15562176E+00 0.19632388E+03</pdfrwt>
<totfact> 0.45422183E+02</totfact>
</mgrwt>
</event>
<event>
 4    1  0.1790407E+000  0.1892110E+03  0.7546771E-02  0.1159175E+00
          1   -1    0    0  502    0  0.00000000000E+00  0.00000000000E+00  0.17317930160E+04  0.17317930160E+04  0.00000000000E+00 0. -1.
         -1   -1    0    0    0  501 -0.00000000000E+00 -0.00000000000E+00 -0.22917196841E+02  0.22917196841E+02  0.00000000000E+00 0.  1.
          6    1    1    2  502    0  0.40625425685E+02  0.64972183150E+02  0.57986625132E+03  0.60995547314E+03  0.17300000000E+03 0.  1.
         -6    1    1    2    0  501 -0.40625425685E+02 -0.64972183150E+02  0.11290095679E+04  0.11447547397E+04  0.17300000000E+03 0. -1.
<mgrwt>
<rscale>  2 0.18921102E+03</rscale>
<asrwt>0</asrwt>
<pdfrwt beam="1">  1        1 0.26642959E+00 0.18921102E+03</pdfrwt>
<pdfrwt beam="2">  1       -1 0.35257239E-02 0.18921102E+03</pdfrwt>
<totfact> 0.15013387E+03</totfact>
</mgrwt>
</event>
<event>
 4    1  0.1790407E+000  0.2486300E+03  0.7546771E-02  0.1114174E+00
         -2   -1    0    0    0  501 -0.00000000000E+00  0.00000000000E+00  0.95993259488E+02  0.95993259488E+02  0.00000000000E+00 0. -1.
          2   -1    0    0  502    0  0.00000000000E+00 -0.00000000000E+00 -0.65323601005E+03  0.65323601005E+03  0.00000000000E+00 0.  1.
          6    1    1    2  502    0 -0.16913102168E+03 -0.57293952315E+02 -0.23400783075E+03  0.34143310372E+03  0.17300000000E+03 0. -1.
         -6    1    1    2    0  501  0.16913102168E+03  0.57293952315E+02 -0.32323491981E+03  0.40779616581E+03  0.17300000000E+03 0. -1.
<mgrwt>
<rscale>  2 0.24863005E+03</rscale>
<asrwt>0</asrwt>
<pdfrwt beam="1">  1        2 0.10049785E+00 0.24863005E+03</pdfrwt>
<pdfrwt beam="2">  1       -2 0.14768194E-01 0.24863005E+03</pdfrwt>
<totfact> 0.16004612E+03</totfact>
</mgrwt>
</event>
<event>
 4    1  0.1790407E+000  0.1760711E+03  0.7546771E-02  0.1171661E+00
         -2   -1    0    0    0  501 -0.00000000000E+00  0.00000000000E+00  0.12871637668E+02  0.12871637668E+02  0.00000000000E+00 0. -1.
          2   -1    0    0  502    0  0.00000000000E+00 -0.00000000000E+00 -0.25554588872E+04  0.25554588872E+04  0.00000000000E+00 0.  1.
          6    1    1    2  502    0 -0.16189040426E+02  0.28459749063E+02 -0.96331648239E+03  0.97927508270E+03  0.17300000000E+03 0. -1.
         -6    1    1    2    0  501  0.16189040426E+02 -0.28459749063E+02 -0.15792707671E+04  0.15890554422E+04  0.17300000000E+03 0.  1.
<mgrwt>
<rscale>  2 0.17607113E+03</rscale>
<asrwt>0</asrwt>
<pdfrwt beam="1">  1        2 0.39314743E+00 0.17607113E+03</pdfrwt>
<pdfrwt beam="2">  1       -2 0.19802524E-02 0.17607113E+03</pdfrwt>
<totfact> 0.29527631E+03</totfact>
</mgrwt>
</event>
<event>
 4    1  0.1790407E+000  0.2994019E+03  0.7546771E-02  0.1085540E+00
          1   -1    0    0  502    0  0.00000000000E+00  0.00000000000E+00  0.11260833993E+04  0.11260833993E+04  0.00000000000E+00 0. -1.
         -1   -1    0    0    0  501 -0.00000000000E+00 -0.00000000000E+00 -0.86156944092E+02  0.86156944092E+02  0.00000000000E+00 0.  1.
          6    1    1    2  502    0  0.12548537327E+03  0.20968057303E+03  0.35281225434E+03  0.46272887140E+03  0.17300000000E+03 0.  1.
         -6    1    1    2    0  501 -0.12548537327E+03 -0.20968057303E+03  0.68711420082E+03  0.74951147195E+03  0.17300000000E+03 0. -1.
<mgrwt>
<rscale>  2 0.29940194E+03</rscale>
<asrwt>0</asrwt>
<pdfrwt beam="1">  1        1 0.17324359E+00 0.29940194E+03</pdfrwt>
<pdfrwt beam="2">  1       -1 0.13254915E-01 0.29940194E+03</pdfrwt>
<totfact> 0.50642562E+02</totfact>
</mgrwt>
</event>
<event>
 4    1  0.1790407E+000  0.2377705E+03  0.7546771E-02  0.1121287E+00
         -1   -1    0    0    0  501 -0.00000000000E+00  0.00000000000E+00  0.43098571098E+02  0.43098571098E+02  0.00000000000E+00 0.  1.
          1   -1    0    0  502    0  0.00000000000E+00 -0.00000000000E+00 -0.13597074986E+04  0.13597074986E+04  0.00000000000E+00 0. -1.
          6    1    1    2  502    0 -0.12116863601E+03 -0.10919701744E+03 -0.52658676857E+03  0.57777889525E+03  0.17300000000E+03 0.  1.
         -6    1    1    2    0  501  0.12116863601E+03  0.10919701744E+03 -0.79002215895E+03  0.82502717446E+03  0.17300000000E+03 0. -1.
<mgrwt>
<rscale>  2 0.23777053E+03</rscale>
<asrwt>0</asrwt>
<pdfrwt beam="1">  1        1 0.20918574E+00 0.23777053E+03</pdfrwt>
<pdfrwt beam="2">  1       -1 0.66305504E-02 0.23777053E+03</pdfrwt>
<totfact> 0.10227202E+03</totfact>
</mgrwt>
</event>
<event>
 4    1  0.1790407E+000  0.1927011E+03  0.7546771E-02  0.1156047E+00
         -2   -1    0    0    0  501 -0.00000000000E+00  0.00000000000E+00  0.42024408505E+02  0.42024408505E+02  0.00000000000E+00 0.  1.
          2   -1    0    0  502    0  0.00000000000E+00 -0.00000000000E+00 -0.10064832392E+04  0.10064832392E+04  0.00000000000E+00 0. -1.
          6    1    1    2  502    0 -0.54836866198E+02 -0.64789055098E+02 -0.66539559552E+03  0.69273732546E+03  0.17300000000E+03 0. -1.
         -6    1    1    2    0  501  0.54836866198E+02  0.64789055098E+02 -0.29906323519E+03  0.35577032225E+03  0.17300000000E+03 0.  1.
<mgrwt>
<rscale>  2 0.19270107E+03</rscale>
<asrwt>0</asrwt>
<pdfrwt beam="1">  1        2 0.15484357E+00 0.19270107E+03</pdfrwt>
<pdfrwt beam="2">  1       -2 0.64652938E-02 0.19270107E+03</pdfrwt>
<totfact> 0.34015907E+03</totfact>
</mgrwt>
</event>
<event>
 4    1  0.1790407E+000  0.2036915E+03  0.7546771E-02  0.1146661E+00
          2   -1    0    0  502    0  0.00000000000E+00  0.00000000000E+00  0.23234790109E+04  0.23234790109E+04  0.00000000000E+00 0. -1.
         -2   -1    0    0    0  501 -0.00000000000E+00 -0.00000000000E+00 -0.20282197465E+02  0.20282197465E+02  0.00000000000E+00 0.  1.
          6    1    1    2  502    0  0.30288549359E+02 -0.10316894186E+03  0.15568313373E+04  0.15701000094E+04  0.17300000000E+03 0. -1.
         -6    1    1    2    0  501 -0.30288549359E+02  0.10316894186E+03  0.74636547617E+03  0.77366119898E+03  0.17300000000E+03 0.  1.
<mgrwt>
<rscale>  2 0.20369150E+03</rscale>
<asrwt>0</asrwt>
<pdfrwt beam="1">  1        2 0.35745810E+00 0.20369150E+03</pdfrwt>
<pdfrwt beam="2">  1       -2 0.31203399E-02 0.20369150E+03</pdfrwt>
<totfact> 0.20084074E+03</totfact>
</mgrwt>
</event>
<event>
 4    1  0.1790407E+000  0.1990517E+03  0.7546771E-02  0.1150542E+00
         -2   -1    0    0    0  501 -0.00000000000E+00  0.00000000000E+00  0.12868863496E+03  0.12868863496E+03  0.00000000000E+00 0. -1.
          2   -1    0    0  502    0  0.00000000000E+00 -0.00000000000E+00 -0.33224563442E+03  0.33224563442E+03  0.00000000000E+00 0.  1.
          6    1    1    2  502    0 -0.31465238107E+02  0.93287296625E+02 -0.39375678480E+02  0.20290890808E+03  0.17300000000E+03 0. -1.
         -6    1    1    2    0  501  0.31465238107E+02 -0.93287296625E+02 -0.16418132098E+03  0.25802536131E+03  0.17300000000E+03 0.  1.
<mgrwt>
<rscale>  2 0.19905170E+03</rscale>
<asrwt>0</asrwt>
<pdfrwt beam="1">  1        2 0.51114713E-01 0.19905170E+03</pdfrwt>
<pdfrwt beam="2">  1       -2 0.19798251E-01 0.19905170E+03</pdfrwt>
<totfact> 0.20700329E+03</totfact>
</mgrwt>
</event>
<event>
 4    1  0.1790407E+000  0.1823688E+03  0.7546771E-02  0.1165530E+00
         -2   -1    0    0    0  501 -0.00000000000E+00  0.00000000000E+00  0.17357403948E+02  0.17357403948E+02  0.00000000000E+00 0. -1.
          2   -1    0    0  502    0  0.00000000000E+00 -0.00000000000E+00 -0.21862196805E+04  0.21862196805E+04  0.00000000000E+00 0.  1.
          6    1    1    2  502    0 -0.48842628059E+02 -0.30721238886E+02 -0.69714206090E+03  0.72060075625E+03  0.17300000000E+03 0.  1.
         -6    1    1    2    0  501  0.48842628059E+02  0.30721238886E+02 -0.14717202157E+04  0.14829763282E+04  0.17300000000E+03 0.  1.
<mgrwt>
<rscale>  2 0.18236885E+03</rscale>
<asrwt>0</asrwt>
<pdfrwt beam="1">  1        2 0.33634159E+00 0.18236885E+03</pdfrwt>
<pdfrwt beam="2">  1       -2 0.26703691E-02 0.18236885E+03</pdfrwt>
<totfact> 0.29927425E+03</totfact>
</mgrwt>
</event>
<event>
 4    1  0.1790407E+000  0.2372956E+03  0.7546771E-02  0.1121608E+00
         -4   -1    0    0    0  501 -0.00000000000E+00  0.00000000000E+00  0.26407462654E+02  0.26407462654E+02  0.00000000000E+00 0. -1.
          4   -1    0    0  502    0  0.00000000000E+00 -0.00000000000E+00 -0.21406591997E+04  0.21406591997E+04  0.00000000000E+00 0.  1.
          6    1    1    2  502    0 -0.16227134268E+03  0.69437313800E+01 -0.11247478670E+04  0.11495072720E+04  0.17300000000E+03 0. -1.
         -6    1    1    2    0  501  0.16227134268E+03 -0.69437313800E+01 -0.98950386997E+03  0.10175593903E+04  0.17300000000E+03 0.  1.
<mgrwt>
<rscale>  2 0.23729560E+03</rscale>
<asrwt>0</asrwt>
<pdfrwt beam="1">  1        4 0.32933217E+00 0.23729560E+03</pdfrwt>
<pdfrwt beam="2">  1       -4 0.40626867E-02 0.23729560E+03</pdfrwt>
<totfact> 0.14804464E+01</totfact>
</mgrwt>
</event>
<event>
 4    1  0.1790407E+000  0.2438937E+03  0.7546771E-02  0.1117226E+00
         -2   -1    0    0    0  501 -0.00000000000E+00  0.00000000000E+00  0.25516261751E+03  0.25516261751E+03  0.00000000000E+00 0. -1.
          2   -1    0    0  502    0  0.00000000000E+00 -0.00000000000E+00 -0.34312905221E+03  0.34312905221E+03  0.00000000000E+00 0.  1.
          6    1    1    2  502    0 -0.51318025832E+02 -0.16407807839E+03  0.12539728931E+03  0.27424192924E+03  0.17300000000E+03 0. -1.
         -6    1    1    2    0  501  0.51318025832E+02  0.16407807839E+03 -0.21336372401E+03  0.32404974048E+03  0.17300000000E+03 0.  1.
<mgrwt>
<rscale>  2 0.24389374E+03</rscale>
<asrwt>0</asrwt>
<pdfrwt beam="1">  1        2 0.52789085E-01 0.24389374E+03</pdfrwt>
<pdfrwt beam="2">  1       -2 0.39255788E-01 0.24389374E+03</pdfrwt>
<totfact> 0.58564563E+02</totfact>
</mgrwt>
</event>
<event>
 4    1  0.1790407E+000  0.1854136E+03  0.7546771E-02  0.1162664E+00
         -2   -1    0    0    0  501 -0.00000000000E+00  0.00000000000E+00  0.10606610711E+03  0.10606610711E+03  0.00000000000E+00 0.  1.
          2   -1    0    0  502    0  0.00000000000E+00 -0.00000000000E+00 -0.47561000489E+03  0.47561000489E+03  0.00000000000E+00 0. -1.
          6    1    1    2  502    0 -0.13891645700E+02  0.65239892347E+02 -0.20631082305E+02  0.18655793452E+03  0.17300000000E+03 0.  1.
         -6    1    1    2    0  501  0.13891645700E+02 -0.65239892347E+02 -0.34891281548E+03  0.39511817749E+03  0.17300000000E+03 0. -1.
<mgrwt>
<rscale>  2 0.18541365E+03</rscale>
<asrwt>0</asrwt>
<pdfrwt beam="1">  1        2 0.73170770E-01 0.18541365E+03</pdfrwt>
<pdfrwt beam="2">  1       -2 0.16317863E-01 0.18541365E+03</pdfrwt>
<totfact> 0.19387886E+03</totfact>
</mgrwt>
</event>
<event>
 4    1  0.1790407E+000  0.2069890E+03  0.7546771E-02  0.1143973E+00
          2   -1    0    0  502    0  0.00000000000E+00  0.00000000000E+00  0.70174104119E+03  0.70174104119E+03  0.00000000000E+00 0.  1.
         -2   -1    0    0    0  501 -0.00000000000E+00 -0.00000000000E+00 -0.64064463281E+02  0.64064463281E+02  0.00000000000E+00 0. -1.
          6    1    1    2  502    0 -0.11159856526E+03  0.21475527458E+02  0.23584144943E+03  0.31379233152E+03  0.17300000000E+03 0. -1.
         -6    1    1    2    0  501  0.11159856526E+03 -0.21475527458E+02  0.40183512847E+03  0.45201317295E+03  0.17300000000E+03 0.  1.
<mgrwt>
<rscale>  2 0.20698898E+03</rscale>
<asrwt>0</asrwt>
<pdfrwt beam="1">  1        2 0.10796015E+00 0.20698898E+03</pdfrwt>
<pdfrwt beam="2">  1       -2 0.98560718E-02 0.20698898E+03</pdfrwt>
<totfact> 0.28158625E+03</totfact>
</mgrwt>
</event>
<event>
 4    1  0.1790407E+000  0.2724376E+03  0.7546771E-02  0.1099893E+00
          2   -1    0    0  502    0  0.00000000000E+00  0.00000000000E+00  0.24849027574E+04  0.24849027574E+04  0.00000000000E+00 0. -1.
         -2   -1    0    0    0  501 -0.00000000000E+00 -0.00000000000E+00 -0.31886655700E+02  0.31886655700E+02  0.00000000000E+00 0.  1.
          6    1    1    2  502    0 -0.21045675590E+03 -0.11018658879E+01  0.15430313012E+04  0.15668975259E+04  0.17300000000E+03 0. -1.
         -6    1    1    2    0  501  0.21045675590E+03  0.11018658879E+01  0.90998480051E+03  0.94989188721E+03  0.17300000000E+03 0.  1.
<mgrwt>
<rscale>  2 0.27243763E+03</rscale>
<asrwt>0</asrwt>
<pdfrwt beam="1">  1        2 0.38229258E+00 0.27243763E+03</pdfrwt>
<pdfrwt beam="2">  1       -2 0.49056413E-02 0.27243763E+03</pdfrwt>
<totfact> 0.82383475E+02</totfact>
</mgrwt>
</event>
<event>
 4    1  0.1790407E+000  0.5715994E+03  0.7546771E-02  0.9966146E-01
          2   -1    0    0  502    0  0.00000000000E+00  0.00000000000E+00  0.32266857125E+03  0.32266857125E+03  0.00000000000E+00 0.  1.
         -2   -1    0    0    0  501 -0.00000000000E+00 -0.00000000000E+00 -0.10202489590E+04  0.10202489590E+04  0.00000000000E+00 0. -1.
          6    1    1    2  502    0  0.35662782253E+03 -0.41184155297E+03 -0.40702716789E+03  0.70171004265E+03  0.17300000000E+03 0.  1.
         -6    1    1    2    0  501 -0.35662782253E+03  0.41184155297E+03 -0.29055321983E+03  0.64120748757E+03  0.17300000000E+03 0. -1.
<mgrwt>
<rscale>  2 0.57159940E+03</rscale>
<asrwt>0</asrwt>
<pdfrwt beam="1">  1        2 0.49641319E-01 0.57159940E+03</pdfrwt>
<pdfrwt beam="2">  1       -2 0.15696138E+00 0.57159940E+03</pdfrwt>
<totfact> 0.27606519E+01</totfact>
</mgrwt>
</event>
<event>
 4    1  0.1790407E+000  0.3652531E+03  0.7546771E-02  0.1056523E+00
         -2   -1    0    0    0  501 -0.00000000000E+00  0.00000000000E+00  0.28162782304E+03  0.28162782304E+03  0.00000000000E+00 0.  1.
          2   -1    0    0  502    0  0.00000000000E+00 -0.00000000000E+00 -0.68910145226E+03  0.68910145226E+03  0.00000000000E+00 0. -1.
          6    1    1    2  502    0  0.20628785492E+03  0.24683217225E+03 -0.47509391848E+03  0.59926958184E+03  0.17300000000E+03 0. -1.
         -6    1    1    2    0  501 -0.20628785492E+03 -0.24683217225E+03  0.67620289263E+02  0.37145969346E+03  0.17300000000E+03 0.  1.
<mgrwt>
<rscale>  2 0.36525306E+03</rscale>
<asrwt>0</asrwt>
<pdfrwt beam="1">  1        2 0.10601561E+00 0.36525306E+03</pdfrwt>
<pdfrwt beam="2">  1       -2 0.43327358E-01 0.36525306E+03</pdfrwt>
<totfact> 0.21820639E+02</totfact>
</mgrwt>
</event>
<event>
 4    1  0.1790407E+000  0.1776151E+03  0.7546771E-02  0.1170131E+00
          3   -1    0    0  502    0  0.00000000000E+00  0.00000000000E+00  0.84805350298E+02  0.84805350298E+02  0.00000000000E+00 0. -1.
         -3   -1    0    0    0  501 -0.00000000000E+00 -0.00000000000E+00 -0.40889110697E+03  0.40889110697E+03  0.00000000000E+00 0.  1.
          6    1    1    2  502    0  0.13500433683E+02  0.37892970415E+02 -0.87891649227E+02  0.19817184694E+03  0.17300000000E+03 0. -1.
         -6    1    1    2    0  501 -0.13500433683E+02 -0.37892970415E+02 -0.23619410745E+03  0.29552461033E+03  0.17300000000E+03 0.  1.
<mgrwt>
<rscale>  2 0.17761514E+03</rscale>
<asrwt>0</asrwt>
<pdfrwt beam="1">  1        3 0.13046977E-01 0.17761514E+03</pdfrwt>
<pdfrwt beam="2">  1       -3 0.62906323E-01 0.17761514E+03</pdfrwt>
<totfact> 0.28325431E+02</totfact>
</mgrwt>
</event>
<event>
 4    1  0.1790407E+000  0.2153959E+03  0.7546771E-02  0.1137363E+00
          2   -1    0    0  502    0  0.00000000000E+00  0.00000000000E+00  0.41142482647E+03  0.41142482647E+03  0.00000000000E+00 0.  1.
         -2   -1    0    0    0  501 -0.00000000000E+00 -0.00000000000E+00 -0.11335727350E+03  0.11335727350E+03  0.00000000000E+00 0. -1.
          6    1    1    2  502    0  0.26155349643E+02 -0.12562752252E+03  0.16795905328E+03  0.27314029418E+03  0.17300000000E+03 0. -1.
         -6    1    1    2    0  501 -0.26155349643E+02  0.12562752252E+03  0.13010849969E+03  0.25164180579E+03  0.17300000000E+03 0.  1.
<mgrwt>
<rscale>  2 0.21539586E+03</rscale>
<asrwt>0</asrwt>
<pdfrwt beam="1">  1        2 0.63296127E-01 0.21539586E+03</pdfrwt>
<pdfrwt beam="2">  1       -2 0.17439581E-01 0.21539586E+03</pdfrwt>
<totfact> 0.20409245E+03</totfact>
</mgrwt>
</event>
<event>
 4    1  0.1790407E+000  0.1819861E+03  0.7546771E-02  0.1165895E+00
          1   -1    0    0  502    0  0.00000000000E+00  0.00000000000E+00  0.18831924152E+03  0.18831924152E+03  0.00000000000E+00 0.  1.
         -1   -1    0    0    0  501 -0.00000000000E+00 -0.00000000000E+00 -0.22643925675E+03  0.22643925675E+03  0.00000000000E+00 0. -1.
          6    1    1    2  502    0  0.20360498210E+02 -0.52682113760E+02 -0.11706536655E+03  0.21638681809E+03  0.17300000000E+03 0. -1.
         -6    1    1    2    0  501 -0.20360498210E+02  0.52682113760E+02  0.78945351324E+02  0.19837168017E+03  0.17300000000E+03 0.  1.
<mgrwt>
<rscale>  2 0.18198614E+03</rscale>
<asrwt>0</asrwt>
<pdfrwt beam="1">  1        1 0.28972191E-01 0.18198614E+03</pdfrwt>
<pdfrwt beam="2">  1       -1 0.34836809E-01 0.18198614E+03</pdfrwt>
<totfact> 0.12396286E+03</totfact>
</mgrwt>
</event>
<event>
 4    1  0.1790407E+000  0.2459499E+03  0.7546771E-02  0.1115891E+00
          1   -1    0    0  502    0  0.00000000000E+00  0.00000000000E+00  0.57080012248E+03  0.57080012248E+03  0.00000000000E+00 0. -1.
         -1   -1    0    0    0  501 -0.00000000000E+00 -0.00000000000E+00 -0.10616397345E+03  0.10616397345E+03  0.00000000000E+00 0.  1.
          6    1    1    2  502    0  0.47931660205E+02  0.16812171055E+03  0.24654494570E+03  0.34824669971E+03  0.17300000000E+03 0. -1.
         -6    1    1    2    0  501 -0.47931660205E+02 -0.16812171055E+03  0.21809120332E+03  0.32871739621E+03  0.17300000000E+03 0. -1.
<mgrwt>
<rscale>  2 0.24594990E+03</rscale>
<asrwt>0</asrwt>
<pdfrwt beam="1">  1        1 0.87815401E-01 0.24594990E+03</pdfrwt>
<pdfrwt beam="2">  1       -1 0.16332919E-01 0.24594990E+03</pdfrwt>
<totfact> 0.10581703E+03</totfact>
</mgrwt>
</event>
<event>
 4    1  0.1790407E+000  0.1958564E+03  0.7546771E-02  0.1153283E+00
          2   -1    0    0  502    0  0.00000000000E+00  0.00000000000E+00  0.65416791389E+03  0.65416791389E+03  0.00000000000E+00 0.  1.
         -2   -1    0    0    0  501 -0.00000000000E+00 -0.00000000000E+00 -0.72142920489E+02  0.72142920489E+02  0.00000000000E+00 0. -1.
          6    1    1    2  502    0 -0.91698900280E+02 -0.46960919897E+01  0.13389452407E+03  0.23724983703E+03  0.17300000000E+03 0. -1.
         -6    1    1    2    0  501  0.91698900280E+02  0.46960919897E+01  0.44813046933E+03  0.48906099735E+03  0.17300000000E+03 0.  1.
<mgrwt>
<rscale>  2 0.19585643E+03</rscale>
<asrwt>0</asrwt>
<pdfrwt beam="1">  1        2 0.10064121E+00 0.19585643E+03</pdfrwt>
<pdfrwt beam="2">  1       -2 0.11098911E-01 0.19585643E+03</pdfrwt>
<totfact> 0.25313321E+03</totfact>
</mgrwt>
</event>
<event>
 4    1  0.1790407E+000  0.1786637E+03  0.7546771E-02  0.1169103E+00
         -2   -1    0    0    0  501 -0.00000000000E+00  0.00000000000E+00  0.25606728499E+02  0.25606728499E+02  0.00000000000E+00 0.  1.
          2   -1    0    0  502    0  0.00000000000E+00 -0.00000000000E+00 -0.14239680711E+04  0.14239680711E+04  0.00000000000E+00 0. -1.
          6    1    1    2  502    0 -0.14081201618E+02 -0.42349061994E+02 -0.44336444738E+03  0.47800915942E+03  0.17300000000E+03 0. -1.
         -6    1    1    2    0  501  0.14081201618E+02  0.42349061994E+02 -0.95499689524E+03  0.97156564019E+03  0.17300000000E+03 0. -1.
<mgrwt>
<rscale>  2 0.17866372E+03</rscale>
<asrwt>0</asrwt>
<pdfrwt beam="1">  1        2 0.21907198E+00 0.17866372E+03</pdfrwt>
<pdfrwt beam="2">  1       -2 0.39394973E-02 0.17866372E+03</pdfrwt>
<totfact> 0.41901619E+03</totfact>
</mgrwt>
</event>
<event>
 4    1  0.1790407E+000  0.1828921E+03  0.7546771E-02  0.1165033E+00
         -2   -1    0    0    0  501 -0.00000000000E+00  0.00000000000E+00  0.15298654165E+03  0.15298654165E+03  0.00000000000E+00 0. -1.
          2   -1    0    0  502    0  0.00000000000E+00 -0.00000000000E+00 -0.25244321400E+03  0.25244321400E+03  0.00000000000E+00 0.  1.
          6    1    1    2  502    0 -0.43782460562E+02 -0.40045210189E+02 -0.12390373244E+03  0.22091097217E+03  0.17300000000E+03 0. -1.
         -6    1    1    2    0  501  0.43782460562E+02  0.40045210189E+02  0.24447060091E+02  0.18451878349E+03  0.17300000000E+03 0. -1.
<mgrwt>
<rscale>  2 0.18289211E+03</rscale>
<asrwt>0</asrwt>
<pdfrwt beam="1">  1        2 0.38837418E-01 0.18289211E+03</pdfrwt>
<pdfrwt beam="2">  1       -2 0.23536391E-01 0.18289211E+03</pdfrwt>
<totfact> 0.20573782E+03</totfact>
</mgrwt>
</event>
<event>
 4    1  0.1790407E+000  0.2755488E+03  0.7546771E-02  0.1098145E+00
         -1   -1    0    0    0  501 -0.00000000000E+00  0.00000000000E+00  0.12516546477E+03  0.12516546477E+03  0.00000000000E+00 0.  1.
          1   -1    0    0  502    0  0.00000000000E+00 -0.00000000000E+00 -0.11671883924E+04  0.11671883924E+04  0.00000000000E+00 0. -1.
          6    1    1    2  502    0  0.25955907584E+02 -0.21289540440E+03 -0.96882526517E+03  0.10072485080E+04  0.17300000000E+03 0. -1.
         -6    1    1    2    0  501 -0.25955907584E+02  0.21289540440E+03 -0.73197662437E+02  0.28510534920E+03  0.17300000000E+03 0.  1.
<mgrwt>
<rscale>  2 0.27554884E+03</rscale>
<asrwt>0</asrwt>
<pdfrwt beam="1">  1        1 0.17956744E+00 0.27554884E+03</pdfrwt>
<pdfrwt beam="2">  1       -1 0.19256226E-01 0.27554884E+03</pdfrwt>
<totfact> 0.26083544E+02</totfact>
</mgrwt>
</event>
<event>
 4    1  0.1790407E+000  0.1767620E+03  0.7546771E-02  0.1170974E+00
         -2   -1    0    0    0  501 -0.00000000000E+00  0.00000000000E+00  0.24384423836E+02  0.24384423836E+02  0.00000000000E+00 0.  1.
          2   -1    0    0  502    0  0.00000000000E+00 -0.00000000000E+00 -0.15199531332E+04  0.15199531332E+04  0.00000000000E+00 0. -1.
          6    1    1    2  502    0 -0.36068009729E+02 -0.38623678636E+01 -0.44184082951E+03  0.47588668592E+03  0.17300000000E+03 0.  1.
         -6    1    1    2    0  501  0.36068009729E+02  0.38623678636E+01 -0.10537278798E+04  0.10684508711E+04  0.17300000000E+03 0. -1.
<mgrwt>
<rscale>  2 0.17676204E+03</rscale>
<asrwt>0</asrwt>
<pdfrwt beam="1">  1        2 0.23383899E+00 0.17676204E+03</pdfrwt>
<pdfrwt beam="2">  1       -2 0.37514490E-02 0.17676204E+03</pdfrwt>
<totfact> 0.40095581E+03</totfact>
</mgrwt>
</event>
<event>
 4    1  0.1790407E+000  0.2215744E+03  0.7546771E-02  0.1132715E+00
          2   -1    0    0  502    0  0.00000000000E+00  0.00000000000E+00  0.17580090276E+04  0.17580090276E+04  0.00000000000E+00 0. -1.
         -2   -1    0    0    0  501 -0.00000000000E+00 -0.00000000000E+00 -0.27928683126E+02  0.27928683126E+02  0.00000000000E+00 0.  1.
          6    1    1    2  502    0 -0.58802841117E+02  0.12533329870E+03  0.87275749434E+03  0.90044480887E+03  0.17300000000E+03 0. -1.
         -6    1    1    2    0  501  0.58802841117E+02 -0.12533329870E+03  0.85732285017E+03  0.88549290190E+03  0.17300000000E+03 0. -1.
<mgrwt>
<rscale>  2 0.22157439E+03</rscale>
<asrwt>0</asrwt>
<pdfrwt beam="1">  1        2 0.27046284E+00 0.22157439E+03</pdfrwt>
<pdfrwt beam="2">  1       -2 0.42967219E-02 0.22157439E+03</pdfrwt>
<totfact> 0.24582077E+03</totfact>
</mgrwt>
</event>
<event>
 4    1  0.1790407E+000  0.1831310E+03  0.7546771E-02  0.1164807E+00
          2   -1    0    0  502    0  0.00000000000E+00  0.00000000000E+00  0.82836159768E+03  0.82836159768E+03  0.00000000000E+00 0. -1.
         -2   -1    0    0    0  501 -0.00000000000E+00 -0.00000000000E+00 -0.52600639557E+02  0.52600639557E+02  0.00000000000E+00 0.  1.
          6    1    1    2  502    0  0.53127319195E+02 -0.28026163738E+02  0.17648848163E+03  0.25433277816E+03  0.17300000000E+03 0.  1.
         -6    1    1    2    0  501 -0.53127319195E+02  0.28026163738E+02  0.59927247650E+03  0.62662945908E+03  0.17300000000E+03 0. -1.
<mgrwt>
<rscale>  2 0.18313104E+03</rscale>
<asrwt>0</asrwt>
<pdfrwt beam="1">  1        2 0.12744024E+00 0.18313104E+03</pdfrwt>
<pdfrwt beam="2">  1       -2 0.80924067E-02 0.18313104E+03</pdfrwt>
<totfact> 0.31144968E+03</totfact>
</mgrwt>
</event>
<event>
 4    1  0.1790407E+000  0.1988460E+03  0.7546771E-02  0.1150716E+00
         -2   -1    0    0    0  501 -0.00000000000E+00  0.00000000000E+00  0.14850963448E+03  0.14850963448E+03  0.00000000000E+00 0. -1.
          2   -1    0    0  502    0  0.00000000000E+00 -0.00000000000E+00 -0.27734889796E+03  0.27734889796E+03  0.00000000000E+00 0.  1.
          6    1    1    2  502    0 -0.38306681488E+02  0.90240430875E+02 -0.21811982584E+02  0.20003874574E+03  0.17300000000E+03 0. -1.
         -6    1    1    2    0  501  0.38306681488E+02 -0.90240430875E+02 -0.10702728090E+03  0.22581978671E+03  0.17300000000E+03 0.  1.
<mgrwt>
<rscale>  2 0.19884601E+03</rscale>
<asrwt>0</asrwt>
<pdfrwt beam="1">  1        2 0.42669061E-01 0.19884601E+03</pdfrwt>
<pdfrwt beam="2">  1       -2 0.22847636E-01 0.19884601E+03</pdfrwt>
<totfact> 0.19635869E+03</totfact>
</mgrwt>
</event>
<event>
 4    1  0.1790407E+000  0.2041571E+03  0.7546771E-02  0.1146278E+00
         -1   -1    0    0    0  501 -0.00000000000E+00  0.00000000000E+00  0.43857469851E+02  0.43857469851E+02  0.00000000000E+00 0. -1.
          1   -1    0    0  502    0  0.00000000000E+00 -0.00000000000E+00 -0.96021769139E+03  0.96021769139E+03  0.00000000000E+00 0.  1.
          6    1    1    2  502    0 -0.69966144574E+02 -0.82800054187E+02 -0.40729661875E+03  0.45559921642E+03  0.17300000000E+03 0.  1.
         -6    1    1    2    0  501  0.69966144574E+02  0.82800054187E+02 -0.50906360279E+03  0.54847594482E+03  0.17300000000E+03 0.  1.
<mgrwt>
<rscale>  2 0.20415707E+03</rscale>
<asrwt>0</asrwt>
<pdfrwt beam="1">  1        1 0.14772578E+00 0.20415707E+03</pdfrwt>
<pdfrwt beam="2">  1       -1 0.67473038E-02 0.20415707E+03</pdfrwt>
<totfact> 0.19108355E+03</totfact>
</mgrwt>
</event>
<event>
 4    1  0.1790407E+000  0.1927688E+03  0.7546771E-02  0.1155988E+00
          2   -1    0    0  502    0  0.00000000000E+00  0.00000000000E+00  0.33790751394E+04  0.33790751394E+04  0.00000000000E+00 0.  1.
         -2   -1    0    0    0  501 -0.00000000000E+00 -0.00000000000E+00 -0.11003928466E+02  0.11003928466E+02  0.00000000000E+00 0. -1.
          6    1    1    2  502    0  0.33968071935E+02  0.77954885617E+02  0.16415980513E+04  0.16528774776E+04  0.17300000000E+03 0.  1.
         -6    1    1    2    0  501 -0.33968071935E+02 -0.77954885617E+02  0.17264731597E+04  0.17372015902E+04  0.17300000000E+03 0. -1.
<mgrwt>
<rscale>  2 0.19276876E+03</rscale>
<asrwt>0</asrwt>
<pdfrwt beam="1">  1        2 0.51985689E+00 0.19276876E+03</pdfrwt>
<pdfrwt beam="2">  1       -2 0.16929148E-02 0.19276876E+03</pdfrwt>
<totfact> 0.12226506E+03</totfact>
</mgrwt>
</event>
<event>
 4    1  0.1790407E+000  0.1810917E+03  0.7546771E-02  0.1166751E+00
         -2   -1    0    0    0  501 -0.00000000000E+00  0.00000000000E+00  0.20448534700E+02  0.20448534700E+02  0.00000000000E+00 0.  1.
          2   -1    0    0  502    0  0.00000000000E+00 -0.00000000000E+00 -0.27622950045E+04  0.27622950045E+04  0.00000000000E+00 0. -1.
          6    1    1    2  502    0  0.84852011234E+01  0.52850750806E+02 -0.22720084603E+04  0.22792140409E+04  0.17300000000E+03 0. -1.
         -6    1    1    2    0  501 -0.84852011234E+01 -0.52850750806E+02 -0.46983800947E+03  0.50352949829E+03  0.17300000000E+03 0.  1.
<mgrwt>
<rscale>  2 0.18109169E+03</rscale>
<asrwt>0</asrwt>
<pdfrwt beam="1">  1        2 0.42496832E+00 0.18109169E+03</pdfrwt>
<pdfrwt beam="2">  1       -2 0.31459295E-02 0.18109169E+03</pdfrwt>
<totfact> 0.11482567E+03</totfact>
</mgrwt>
</event>
<event>
 4    1  0.1790407E+000  0.2294727E+03  0.7546771E-02  0.1127011E+00
          3   -1    0    0  502    0  0.00000000000E+00  0.00000000000E+00  0.79729379854E+03  0.79729379854E+03  0.00000000000E+00 0.  1.
         -3   -1    0    0    0  501 -0.00000000000E+00 -0.00000000000E+00 -0.77768869991E+02  0.77768869991E+02  0.00000000000E+00 0. -1.
          6    1    1    2  502    0 -0.14586147943E+03 -0.38120153626E+02  0.52963819868E+03  0.57721255946E+03  0.17300000000E+03 0.  1.
         -6    1    1    2    0  501  0.14586147943E+03  0.38120153626E+02  0.18988672987E+03  0.29785010907E+03  0.17300000000E+03 0. -1.
<mgrwt>
<rscale>  2 0.22947269E+03</rscale>
<asrwt>0</asrwt>
<pdfrwt beam="1">  1        3 0.12266058E+00 0.22947269E+03</pdfrwt>
<pdfrwt beam="2">  1       -3 0.11964442E-01 0.22947269E+03</pdfrwt>
<totfact> 0.75871424E+01</totfact>
</mgrwt>
</event>
<event>
 4    1  0.1790407E+000  0.1880886E+03  0.7546771E-02  0.1160197E+00
         -4   -1    0    0    0  501 -0.00000000000E+00  0.00000000000E+00  0.18851673485E+03  0.18851673485E+03  0.00000000000E+00 0. -1.
          4   -1    0    0  502    0  0.00000000000E+00 -0.00000000000E+00 -0.23975424318E+03  0.23975424318E+03  0.00000000000E+00 0.  1.
          6    1    1    2  502    0 -0.66108134007E+02 -0.32833201334E+02  0.74196001501E+02  0.20219384543E+03  0.17300000000E+03 0.  1.
         -6    1    1    2    0  501  0.66108134007E+02  0.32833201334E+02 -0.12543350984E+03  0.22607713259E+03  0.17300000000E+03 0.  1.
<mgrwt>
<rscale>  2 0.18808855E+03</rscale>
<asrwt>0</asrwt>
<pdfrwt beam="1">  1        4 0.36885268E-01 0.18808855E+03</pdfrwt>
<pdfrwt beam="2">  1       -4 0.29002575E-01 0.18808855E+03</pdfrwt>
<totfact> 0.14252475E+02</totfact>
</mgrwt>
</event>
<event>
 4    1  0.1790407E+000  0.3024527E+03  0.7546771E-02  0.1084021E+00
         -1   -1    0    0    0  501 -0.00000000000E+00  0.00000000000E+00  0.53923317987E+03  0.53923317987E+03  0.00000000000E+00 0. -1.
          1   -1    0    0  502    0  0.00000000000E+00 -0.00000000000E+00 -0.27462422085E+03  0.27462422085E+03  0.00000000000E+00 0.  1.
          6    1    1    2  502    0  0.23081742362E+03 -0.90950398713E+02 -0.11929092424E+03  0.32512764059E+03  0.17300000000E+03 0.  1.
         -6    1    1    2    0  501 -0.23081742362E+03  0.90950398713E+02  0.38389988326E+03  0.48872976013E+03  0.17300000000E+03 0. -1.
<mgrwt>
<rscale>  2 0.30245274E+03</rscale>
<asrwt>0</asrwt>
<pdfrwt beam="1">  1        1 0.42249880E-01 0.30245274E+03</pdfrwt>
<pdfrwt beam="2">  1       -1 0.82958951E-01 0.30245274E+03</pdfrwt>
<totfact> 0.14891981E+02</totfact>
</mgrwt>
</event>
<event>
 4    1  0.1790407E+000  0.1888765E+03  0.7546771E-02  0.1159479E+00
          2   -1    0    0  502    0  0.00000000000E+00  0.00000000000E+00  0.38402371395E+03  0.38402371395E+03  0.00000000000E+00 0. -1.
         -2   -1    0    0    0  501 -0.00000000000E+00 -0.00000000000E+00 -0.10480881223E+03  0.10480881223E+03  0.00000000000E+00 0.  1.
          6    1    1    2  502    0 -0.75797902454E+02  0.34218647963E-01  0.57205844492E+02  0.19734951693E+03  0.17300000000E+03 0.  1.
         -6    1    1    2    0  501  0.75797902454E+02 -0.34218647963E-01  0.22200905723E+03  0.29148300925E+03  0.17300000000E+03 0. -1.
<mgrwt>
<rscale>  2 0.18887648E+03</rscale>
<asrwt>0</asrwt>
<pdfrwt beam="1">  1        2 0.59080571E-01 0.18887648E+03</pdfrwt>
<pdfrwt beam="2">  1       -2 0.16124433E-01 0.18887648E+03</pdfrwt>
<totfact> 0.24973021E+03</totfact>
</mgrwt>
</event>
<event>
 4    1  0.1790407E+000  0.1951953E+03  0.7546771E-02  0.1153857E+00
          2   -1    0    0  502    0  0.00000000000E+00  0.00000000000E+00  0.32732186124E+03  0.32732186124E+03  0.00000000000E+00 0.  1.
         -2   -1    0    0    0  501 -0.00000000000E+00 -0.00000000000E+00 -0.12086602226E+03  0.12086602226E+03  0.00000000000E+00 0. -1.
          6    1    1    2  502    0  0.74433010288E+02 -0.51302412154E+02  0.60165552931E+02  0.20425744606E+03  0.17300000000E+03 0.  1.
         -6    1    1    2    0  501 -0.74433010288E+02  0.51302412154E+02  0.14629028605E+03  0.24393043743E+03  0.17300000000E+03 0. -1.
<mgrwt>
<rscale>  2 0.19519531E+03</rscale>
<asrwt>0</asrwt>
<pdfrwt beam="1">  1        2 0.50357209E-01 0.19519531E+03</pdfrwt>
<pdfrwt beam="2">  1       -2 0.18594773E-01 0.19519531E+03</pdfrwt>
<totfact> 0.23383450E+03</totfact>
</mgrwt>
</event>
<event>
 4    1  0.1790407E+000  0.2125282E+03  0.7546771E-02  0.1139579E+00
          2   -1    0    0  502    0  0.00000000000E+00  0.00000000000E+00  0.23590560012E+03  0.23590560012E+03  0.00000000000E+00 0.  1.
         -2   -1    0    0    0  501 -0.00000000000E+00 -0.00000000000E+00 -0.38424724407E+03  0.38424724407E+03  0.00000000000E+00 0. -1.
          6    1    1    2  502    0  0.10000164312E+03 -0.72380260209E+02  0.14546045245E+03  0.25754023748E+03  0.17300000000E+03 0.  1.
         -6    1    1    2    0  501 -0.10000164312E+03  0.72380260209E+02 -0.29380209640E+03  0.36261260671E+03  0.17300000000E+03 0. -1.
<mgrwt>
<rscale>  2 0.21252819E+03</rscale>
<asrwt>0</asrwt>
<pdfrwt beam="1">  1        2 0.36293169E-01 0.21252819E+03</pdfrwt>
<pdfrwt beam="2">  1       -2 0.59114961E-01 0.21252819E+03</pdfrwt>
<totfact> 0.38960874E+02</totfact>
</mgrwt>
</event>
<event>
 4    1  0.1790407E+000  0.1760249E+03  0.7546771E-02  0.1171707E+00
          1   -1    0    0  502    0  0.00000000000E+00  0.00000000000E+00  0.24986806605E+04  0.24986806605E+04  0.00000000000E+00 0.  1.
         -1   -1    0    0    0  501 -0.00000000000E+00 -0.00000000000E+00 -0.14042353335E+02  0.14042353335E+02  0.00000000000E+00 0. -1.
          6    1    1    2  502    0  0.72775784167E-02 -0.32492322527E+02  0.81271429773E+03  0.83155834480E+03  0.17300000000E+03 0. -1.
         -6    1    1    2    0  501 -0.72775784167E-02  0.32492322527E+02  0.16719240094E+04  0.16811646690E+04  0.17300000000E+03 0.  1.
<mgrwt>
<rscale>  2 0.17602486E+03</rscale>
<asrwt>0</asrwt>
<pdfrwt beam="1">  1        1 0.38441206E+00 0.17602486E+03</pdfrwt>
<pdfrwt beam="2">  1       -1 0.21603640E-02 0.17602486E+03</pdfrwt>
<totfact> 0.98413138E+02</totfact>
</mgrwt>
</event>
<event>
 4    1  0.1790407E+000  0.1766983E+03  0.7546771E-02  0.1171037E+00
          1   -1    0    0  502    0  0.00000000000E+00  0.00000000000E+00  0.15755720294E+03  0.15755720294E+03  0.00000000000E+00 0.  1.
         -1   -1    0    0    0  501 -0.00000000000E+00 -0.00000000000E+00 -0.24776780757E+03  0.24776780757E+03  0.00000000000E+00 0. -1.
          6    1    1    2  502    0 -0.18896813700E+02  0.30597365232E+02  0.45573351506E+02  0.18248073513E+03  0.17300000000E+03 0.  1.
         -6    1    1    2    0  501  0.18896813700E+02 -0.30597365232E+02 -0.13578395613E+03  0.22284427538E+03  0.17300000000E+03 0. -1.
<mgrwt>
<rscale>  2 0.17669830E+03</rscale>
<asrwt>0</asrwt>
<pdfrwt beam="1">  1        1 0.24239570E-01 0.17669830E+03</pdfrwt>
<pdfrwt beam="2">  1       -1 0.38118124E-01 0.17669830E+03</pdfrwt>
<totfact> 0.13266512E+03</totfact>
</mgrwt>
</event>
<event>
 4    1  0.1790407E+000  0.2255959E+03  0.7546771E-02  0.1129779E+00
          3   -1    0    0  502    0  0.00000000000E+00  0.00000000000E+00  0.19137192232E+04  0.19137192232E+04  0.00000000000E+00 0. -1.
         -3   -1    0    0    0  501 -0.00000000000E+00 -0.00000000000E+00 -0.27024001592E+02  0.27024001592E+02  0.00000000000E+00 0.  1.
          6    1    1    2  502    0  0.33059193827E+02  0.14096658232E+03  0.82094572779E+03  0.85137851488E+03  0.17300000000E+03 0. -1.
         -6    1    1    2    0  501 -0.33059193827E+02 -0.14096658232E+03  0.10657494938E+04  0.10893647099E+04  0.17300000000E+03 0.  1.
<mgrwt>
<rscale>  2 0.22559585E+03</rscale>
<asrwt>0</asrwt>
<pdfrwt beam="1">  1        3 0.29441824E+00 0.22559585E+03</pdfrwt>
<pdfrwt beam="2">  1       -3 0.41575402E-02 0.22559585E+03</pdfrwt>
<totfact> 0.36253335E+01</totfact>
</mgrwt>
</event>
<event>
 4    1  0.1790407E+000  0.2089659E+03  0.7546771E-02  0.1142388E+00
         -1   -1    0    0    0  501 -0.00000000000E+00  0.00000000000E+00  0.31630199102E+03  0.31630199102E+03  0.00000000000E+00 0. -1.
          1   -1    0    0  502    0  0.00000000000E+00 -0.00000000000E+00 -0.33657790356E+03  0.33657790356E+03  0.00000000000E+00 0.  1.
          6    1    1    2  502    0  0.11442735400E+03 -0.25379583595E+02 -0.26084523603E+03  0.33422594119E+03  0.17300000000E+03 0.  1.
         -6    1    1    2    0  501 -0.11442735400E+03  0.25379583595E+02  0.24056932348E+03  0.31865395339E+03  0.17300000000E+03 0. -1.
<mgrwt>
<rscale>  2 0.20896589E+03</rscale>
<asrwt>0</asrwt>
<pdfrwt beam="1">  1        1 0.51781216E-01 0.20896589E+03</pdfrwt>
<pdfrwt beam="2">  1       -1 0.48661845E-01 0.20896589E+03</pdfrwt>
<totfact> 0.33065539E+02</totfact>
</mgrwt>
</event>
<event>
 4    1  0.1790407E+000  0.1847780E+03  0.7546771E-02  0.1163257E+00
          2   -1    0    0  502    0  0.00000000000E+00  0.00000000000E+00  0.18261875241E+03  0.18261875241E+03  0.00000000000E+00 0.  1.
         -2   -1    0    0    0  501 -0.00000000000E+00 -0.00000000000E+00 -0.22172165631E+03  0.22172165631E+03  0.00000000000E+00 0. -1.
          6    1    1    2  502    0 -0.11821848476E+02  0.63829034254E+02  0.60495763281E+02  0.19442900784E+03  0.17300000000E+03 0.  1.
         -6    1    1    2    0  501  0.11821848476E+02 -0.63829034254E+02 -0.99598667179E+02  0.20991140088E+03  0.17300000000E+03 0. -1.
<mgrwt>
<rscale>  2 0.18477798E+03</rscale>
<asrwt>0</asrwt>
<pdfrwt beam="1">  1        2 0.28095193E-01 0.18477798E+03</pdfrwt>
<pdfrwt beam="2">  1       -2 0.34111024E-01 0.18477798E+03</pdfrwt>
<totfact> 0.15034116E+03</totfact>
</mgrwt>
</event>
<event>
 4    1  0.1790407E+000  0.1927820E+03  0.7546771E-02  0.1155976E+00
          2   -1    0    0  502    0  0.00000000000E+00  0.00000000000E+00  0.10842932428E+04  0.10842932428E+04  0.00000000000E+00 0. -1.
         -2   -1    0    0    0  501 -0.00000000000E+00 -0.00000000000E+00 -0.39535435006E+02  0.39535435006E+02  0.00000000000E+00 0.  1.
          6    1    1    2  502    0 -0.99710873362E+01 -0.84477695037E+02  0.72733414471E+03  0.75244924188E+03  0.17300000000E+03 0. -1.
         -6    1    1    2    0  501  0.99710873362E+01  0.84477695037E+02  0.31742366305E+03  0.37137943589E+03  0.17300000000E+03 0.  1.
<mgrwt>
<rscale>  2 0.19278201E+03</rscale>
<asrwt>0</asrwt>
<pdfrwt beam="1">  1        2 0.16681432E+00 0.19278201E+03</pdfrwt>
<pdfrwt beam="2">  1       -2 0.60823754E-02 0.19278201E+03</pdfrwt>
<totfact> 0.33581288E+03</totfact>
</mgrwt>
</event>
<event>
 4    1  0.1790407E+000  0.2272232E+03  0.7546771E-02  0.1128610E+00
         -2   -1    0    0    0  501 -0.00000000000E+00  0.00000000000E+00  0.28461059103E+02  0.28461059103E+02  0.00000000000E+00 0.  1.
          2   -1    0    0  502    0  0.00000000000E+00 -0.00000000000E+00 -0.18529184644E+04  0.18529184644E+04  0.00000000000E+00 0. -1.
          6    1    1    2  502    0 -0.41442562131E+02 -0.14136440464E+03 -0.77602158079E+03  0.80860365737E+03  0.17300000000E+03 0.  1.
         -6    1    1    2    0  501  0.41442562131E+02  0.14136440464E+03 -0.10484358245E+04  0.10727758661E+04  0.17300000000E+03 0.  1.
<mgrwt>
<rscale>  2 0.22722320E+03</rscale>
<asrwt>0</asrwt>
<pdfrwt beam="1">  1        2 0.28506436E+00 0.22722320E+03</pdfrwt>
<pdfrwt beam="2">  1       -2 0.43786248E-02 0.22722320E+03</pdfrwt>
<totfact> 0.21312159E+03</totfact>
</mgrwt>
</event>
<event>
 4    1  0.1790407E+000  0.2079358E+03  0.7546771E-02  0.1143211E+00
          1   -1    0    0  502    0  0.00000000000E+00  0.00000000000E+00  0.55502750582E+03  0.55502750582E+03  0.00000000000E+00 0. -1.
         -1   -1    0    0    0  501 -0.00000000000E+00 -0.00000000000E+00 -0.91504556151E+02  0.91504556151E+02  0.00000000000E+00 0.  1.
          6    1    1    2  502    0 -0.98623006820E+02 -0.59848294923E+02  0.10712029811E+03  0.23390612251E+03  0.17300000000E+03 0.  1.
         -6    1    1    2    0  501  0.98623006820E+02  0.59848294923E+02  0.35640265156E+03  0.41262593946E+03  0.17300000000E+03 0. -1.
<mgrwt>
<rscale>  2 0.20793585E+03</rscale>
<asrwt>0</asrwt>
<pdfrwt beam="1">  1        1 0.85388845E-01 0.20793585E+03</pdfrwt>
<pdfrwt beam="2">  1       -1 0.14077624E-01 0.20793585E+03</pdfrwt>
<totfact> 0.13902805E+03</totfact>
</mgrwt>
</event>
<event>
 4    1  0.1790407E+000  0.1787218E+03  0.7546771E-02  0.1169046E+00
         -1   -1    0    0    0  501 -0.00000000000E+00  0.00000000000E+00  0.24461489915E+02  0.24461489915E+02  0.00000000000E+00 0. -1.
          1   -1    0    0  502    0  0.00000000000E+00 -0.00000000000E+00 -0.13486437480E+04  0.13486437480E+04  0.00000000000E+00 0.  1.
          6    1    1    2  502    0  0.41412055141E+01  0.44669169949E+02 -0.53970360913E+03  0.56852569866E+03  0.17300000000E+03 0.  1.
         -6    1    1    2    0  501 -0.41412055141E+01 -0.44669169949E+02 -0.78447864899E+03  0.80457953929E+03  0.17300000000E+03 0.  1.
<mgrwt>
<rscale>  2 0.17872181E+03</rscale>
<asrwt>0</asrwt>
<pdfrwt beam="1">  1        1 0.20748373E+00 0.17872181E+03</pdfrwt>
<pdfrwt beam="2">  1       -1 0.37633048E-02 0.17872181E+03</pdfrwt>
<totfact> 0.24281476E+03</totfact>
</mgrwt>
</event>
<event>
 4    1  0.1790407E+000  0.1808397E+03  0.7546771E-02  0.1166993E+00
          3   -1    0    0  502    0  0.00000000000E+00  0.00000000000E+00  0.59973833755E+03  0.59973833755E+03  0.00000000000E+00 0. -1.
         -3   -1    0    0    0  501 -0.00000000000E+00 -0.00000000000E+00 -0.75294384675E+02  0.75294384675E+02  0.00000000000E+00 0.  1.
          6    1    1    2  502    0  0.51217289350E+02 -0.12279689331E+02  0.43947179461E+03  0.47522464136E+03  0.17300000000E+03 0. -1.
         -6    1    1    2    0  501 -0.51217289350E+02  0.12279689331E+02  0.84972158264E+02  0.19980808086E+03  0.17300000000E+03 0.  1.
<mgrwt>
<rscale>  2 0.18083971E+03</rscale>
<asrwt>0</asrwt>
<pdfrwt beam="1">  1        3 0.92267434E-01 0.18083971E+03</pdfrwt>
<pdfrwt beam="2">  1       -3 0.11583752E-01 0.18083971E+03</pdfrwt>
<totfact> 0.15172276E+02</totfact>
</mgrwt>
</event>
<event>
 4    1  0.1790407E+000  0.1740385E+03  0.7546771E-02  0.1173701E+00
         -1   -1    0    0    0  501 -0.00000000000E+00  0.00000000000E+00  0.10710840076E+03  0.10710840076E+03  0.00000000000E+00 0.  1.
          1   -1    0    0  502    0  0.00000000000E+00 -0.00000000000E+00 -0.36763993499E+03  0.36763993499E+03  0.00000000000E+00 0. -1.
          6    1    1    2  502    0 -0.12310824514E+02 -0.14451621837E+02 -0.24430192812E+03  0.29995472634E+03  0.17300000000E+03 0. -1.
         -6    1    1    2    0  501  0.12310824514E+02  0.14451621837E+02 -0.16229606109E+02  0.17479360940E+03  0.17300000000E+03 0.  1.
<mgrwt>
<rscale>  2 0.17403852E+03</rscale>
<asrwt>0</asrwt>
<pdfrwt beam="1">  1        1 0.56559989E-01 0.17403852E+03</pdfrwt>
<pdfrwt beam="2">  1       -1 0.16478216E-01 0.17403852E+03</pdfrwt>
<totfact> 0.18449716E+03</totfact>
</mgrwt>
</event>
<event>
 4    1  0.1790407E+000  0.1908275E+03  0.7546771E-02  0.1157717E+00
          2   -1    0    0  502    0  0.00000000000E+00  0.00000000000E+00  0.33466209764E+03  0.33466209764E+03  0.00000000000E+00 0.  1.
         -2   -1    0    0    0  501 -0.00000000000E+00 -0.00000000000E+00 -0.10929954913E+03  0.10929954913E+03  0.00000000000E+00 0. -1.
          6    1    1    2  502    0 -0.60823059230E+02  0.52789075172E+02  0.12751248736E+03  0.22950940161E+03  0.17300000000E+03 0.  1.
         -6    1    1    2    0  501  0.60823059230E+02 -0.52789075172E+02  0.97850061144E+02  0.21445224517E+03  0.17300000000E+03 0. -1.
<mgrwt>
<rscale>  2 0.19082749E+03</rscale>
<asrwt>0</asrwt>
<pdfrwt beam="1">  1        2 0.51486476E-01 0.19082749E+03</pdfrwt>
<pdfrwt beam="2">  1       -2 0.16815315E-01 0.19082749E+03</pdfrwt>
<totfact> 0.27012629E+03</totfact>
</mgrwt>
</event>
<event>
 4    1  0.1790407E+000  0.1867023E+03  0.7546771E-02  0.1161470E+00
          2   -1    0    0  502    0  0.00000000000E+00  0.00000000000E+00  0.56399348346E+03  0.56399348346E+03  0.00000000000E+00 0.  1.
         -2   -1    0    0    0  501 -0.00000000000E+00 -0.00000000000E+00 -0.63063086347E+02  0.63063086347E+02  0.00000000000E+00 0. -1.
          6    1    1    2  502    0  0.59168375239E+02 -0.37786715585E+02  0.20618505044E+03  0.27815464678E+03  0.17300000000E+03 0.  1.
         -6    1    1    2    0  501 -0.59168375239E+02  0.37786715585E+02  0.29474534668E+03  0.34890192303E+03  0.17300000000E+03 0. -1.
<mgrwt>
<rscale>  2 0.18670226E+03</rscale>
<asrwt>0</asrwt>
<pdfrwt beam="1">  1        2 0.86768225E-01 0.18670226E+03</pdfrwt>
<pdfrwt beam="2">  1       -2 0.97020137E-02 0.18670226E+03</pdfrwt>
<totfact> 0.37160673E+03</totfact>
</mgrwt>
</event>
<event>
 4    1  0.1790407E+000  0.2390327E+03  0.7546771E-02  0.1120439E+00
         -2   -1    0    0    0  501 -0.00000000000E+00  0.00000000000E+00  0.19650926975E+03  0.19650926975E+03  0.00000000000E+00 0. -1.
          2   -1    0    0  502    0  0.00000000000E+00 -0.00000000000E+00 -0.29222115167E+03  0.29222115167E+03  0.00000000000E+00 0.  1.
          6    1    1    2  502    0 -0.90192796695E+02  0.13810458409E+03 -0.65148031771E+02  0.24775165542E+03  0.17300000000E+03 0. -1.
         -6    1    1    2    0  501  0.90192796695E+02 -0.13810458409E+03 -0.30563850147E+02  0.24097876599E+03  0.17300000000E+03 0.  1.
<mgrwt>
<rscale>  2 0.23903267E+03</rscale>
<asrwt>0</asrwt>
<pdfrwt beam="1">  1        2 0.44957100E-01 0.23903267E+03</pdfrwt>
<pdfrwt beam="2">  1       -2 0.30232196E-01 0.23903267E+03</pdfrwt>
<totfact> 0.11328909E+03</totfact>
</mgrwt>
</event>
<event>
 4    1  0.1790407E+000  0.2296944E+03  0.7546771E-02  0.1126855E+00
         -2   -1    0    0    0  501 -0.00000000000E+00  0.00000000000E+00  0.12491899354E+04  0.12491899354E+04  0.00000000000E+00 0. -1.
          2   -1    0    0  502    0  0.00000000000E+00 -0.00000000000E+00 -0.59368924413E+02  0.59368924413E+02  0.00000000000E+00 0.  1.
          6    1    1    2  502    0  0.12580447685E+03  0.83688385922E+02  0.94639999980E+03  0.97387497758E+03  0.17300000000E+03 0. -1.
         -6    1    1    2    0  501 -0.12580447685E+03 -0.83688385922E+02  0.24342101115E+03  0.33468388220E+03  0.17300000000E+03 0.  1.
<mgrwt>
<rscale>  2 0.22969439E+03</rscale>
<asrwt>0</asrwt>
<pdfrwt beam="1">  1        2 0.91336816E-02 0.22969439E+03</pdfrwt>
<pdfrwt beam="2">  1       -2 0.19218305E+00 0.22969439E+03</pdfrwt>
<totfact> 0.11646799E+02</totfact>
</mgrwt>
</event>
<event>
 4    1  0.1790407E+000  0.2488433E+03  0.7546771E-02  0.1114038E+00
          1   -1    0    0  502    0  0.00000000000E+00  0.00000000000E+00  0.17335100370E+03  0.17335100370E+03  0.00000000000E+00 0.  1.
         -1   -1    0    0    0  501 -0.00000000000E+00 -0.00000000000E+00 -0.36667040070E+03  0.36667040070E+03  0.00000000000E+00 0. -1.
          6    1    1    2  502    0  0.10340513131E+03 -0.14594988154E+03 -0.53292524014E+02  0.25448591753E+03  0.17300000000E+03 0.  1.
         -6    1    1    2    0  501 -0.10340513131E+03  0.14594988154E+03 -0.14002687299E+03  0.28553548687E+03  0.17300000000E+03 0. -1.
<mgrwt>
<rscale>  2 0.24884330E+03</rscale>
<asrwt>0</asrwt>
<pdfrwt beam="1">  1        1 0.26669385E-01 0.24884330E+03</pdfrwt>
<pdfrwt beam="2">  1       -1 0.56410830E-01 0.24884330E+03</pdfrwt>
<totfact> 0.57792895E+02</totfact>
</mgrwt>
</event>
<event>
 4    1  0.1790407E+000  0.2810085E+03  0.7546771E-02  0.1095139E+00
         -1   -1    0    0    0  501 -0.00000000000E+00  0.00000000000E+00  0.36818904870E+03  0.36818904870E+03  0.00000000000E+00 0. -1.
          1   -1    0    0  502    0  0.00000000000E+00 -0.00000000000E+00 -0.25882907993E+03  0.25882907993E+03  0.00000000000E+00 0.  1.
          6    1    1    2  502    0  0.10185412584E+03 -0.19662781754E+03  0.18446705336E+03  0.33614558655E+03  0.17300000000E+03 0.  1.
         -6    1    1    2    0  501 -0.10185412584E+03  0.19662781754E+03 -0.75107084587E+02  0.29087254208E+03  0.17300000000E+03 0. -1.
<mgrwt>
<rscale>  2 0.28100847E+03</rscale>
<asrwt>0</asrwt>
<pdfrwt beam="1">  1        1 0.39819858E-01 0.28100847E+03</pdfrwt>
<pdfrwt beam="2">  1       -1 0.56644469E-01 0.28100847E+03</pdfrwt>
<totfact> 0.34494510E+02</totfact>
</mgrwt>
</event>
<event>
 4    1  0.1790407E+000  0.2404388E+03  0.7546771E-02  0.1119501E+00
         -2   -1    0    0    0  501 -0.00000000000E+00  0.00000000000E+00  0.46497592115E+03  0.46497592115E+03  0.00000000000E+00 0. -1.
          2   -1    0    0  502    0  0.00000000000E+00 -0.00000000000E+00 -0.22528082205E+03  0.22528082205E+03  0.00000000000E+00 0.  1.
          6    1    1    2  502    0  0.16377647212E+03 -0.32543527962E+02 -0.11118428468E+03  0.26490141410E+03  0.17300000000E+03 0.  1.
         -6    1    1    2    0  501 -0.16377647212E+03  0.32543527962E+02  0.35087938378E+03  0.42535532910E+03  0.17300000000E+03 0. -1.
<mgrwt>
<rscale>  2 0.24043879E+03</rscale>
<asrwt>0</asrwt>
<pdfrwt beam="1">  1        2 0.34658588E-01 0.24043879E+03</pdfrwt>
<pdfrwt beam="2">  1       -2 0.71534757E-01 0.24043879E+03</pdfrwt>
<totfact> 0.27387578E+02</totfact>
</mgrwt>
</event>
<event>
 4    1  0.1790407E+000  0.1737004E+03  0.7546771E-02  0.1174043E+00
          3   -1    0    0  502    0  0.00000000000E+00  0.00000000000E+00  0.28818121649E+03  0.28818121649E+03  0.00000000000E+00 0. -1.
         -3   -1    0    0    0  501 -0.00000000000E+00 -0.00000000000E+00 -0.12378694204E+03  0.12378694204E+03  0.00000000000E+00 0.  1.
          6    1    1    2  502    0 -0.15576188961E+02  0.46922813068E+00  0.13073953151E+01  0.17370534569E+03  0.17300000000E+03 0.  1.
         -6    1    1    2    0  501  0.15576188961E+02 -0.46922813068E+00  0.16308687914E+03  0.23826281284E+03  0.17300000000E+03 0. -1.
<mgrwt>
<rscale>  2 0.17370043E+03</rscale>
<asrwt>0</asrwt>
<pdfrwt beam="1">  1        3 0.44335571E-01 0.17370043E+03</pdfrwt>
<pdfrwt beam="2">  1       -3 0.19044145E-01 0.17370043E+03</pdfrwt>
<totfact> 0.29864097E+02</totfact>
</mgrwt>
</event>
<event>
 4    1  0.1790407E+000  0.1979732E+03  0.7546771E-02  0.1151460E+00
         -1   -1    0    0    0  501 -0.00000000000E+00  0.00000000000E+00  0.28640810631E+03  0.28640810631E+03  0.00000000000E+00 0.  1.
          1   -1    0    0  502    0  0.00000000000E+00 -0.00000000000E+00 -0.15124945931E+03  0.15124945931E+03  0.00000000000E+00 0. -1.
          6    1    1    2  502    0 -0.68496825471E+02 -0.67620755479E+02  0.13511187353E+03  0.23968437588E+03  0.17300000000E+03 0.  1.
         -6    1    1    2    0  501  0.68496825471E+02  0.67620755479E+02  0.46773477389E-01  0.19797318975E+03  0.17300000000E+03 0. -1.
<mgrwt>
<rscale>  2 0.19797318E+03</rscale>
<asrwt>0</asrwt>
<pdfrwt beam="1">  1        1 0.23269148E-01 0.19797318E+03</pdfrwt>
<pdfrwt beam="2">  1       -1 0.44062785E-01 0.19797318E+03</pdfrwt>
<totfact> 0.10830394E+03</totfact>
</mgrwt>
</event>
<event>
 4    1  0.1790407E+000  0.1794994E+03  0.7546771E-02  0.1168288E+00
          1   -1    0    0  502    0  0.00000000000E+00  0.00000000000E+00  0.15053128040E+03  0.15053128040E+03  0.00000000000E+00 0. -1.
         -1   -1    0    0    0  501 -0.00000000000E+00 -0.00000000000E+00 -0.50681608799E+03  0.50681608799E+03  0.00000000000E+00 0.  1.
          6    1    1    2  502    0 -0.47623254479E+02  0.48007401589E+01  0.71665416417E+02  0.19327688269E+03  0.17300000000E+03 0. -1.
         -6    1    1    2    0  501  0.47623254479E+02 -0.48007401589E+01 -0.42795022401E+03  0.46407048570E+03  0.17300000000E+03 0.  1.
<mgrwt>
<rscale>  2 0.17949936E+03</rscale>
<asrwt>0</asrwt>
<pdfrwt beam="1">  1        1 0.23158659E-01 0.17949936E+03</pdfrwt>
<pdfrwt beam="2">  1       -1 0.77971706E-01 0.17949936E+03</pdfrwt>
<totfact> 0.36612528E+02</totfact>
</mgrwt>
</event>
<event>
 4    1  0.1790407E+000  0.1844517E+03  0.7546771E-02  0.1163563E+00
         -2   -1    0    0    0  501 -0.00000000000E+00  0.00000000000E+00  0.36025693299E+02  0.36025693299E+02  0.00000000000E+00 0. -1.
          2   -1    0    0  502    0  0.00000000000E+00 -0.00000000000E+00 -0.96172421121E+03  0.96172421121E+03  0.00000000000E+00 0.  1.
          6    1    1    2  502    0 -0.32779175022E+02 -0.54944987923E+02 -0.52981862799E+03  0.56100820366E+03  0.17300000000E+03 0. -1.
         -6    1    1    2    0  501  0.32779175022E+02  0.54944987923E+02 -0.39587988992E+03  0.43674170084E+03  0.17300000000E+03 0.  1.
<mgrwt>
<rscale>  2 0.18445169E+03</rscale>
<asrwt>0</asrwt>
<pdfrwt beam="1">  1        2 0.14795758E+00 0.18445169E+03</pdfrwt>
<pdfrwt beam="2">  1       -2 0.55424139E-02 0.18445169E+03</pdfrwt>
<totfact> 0.45785717E+03</totfact>
</mgrwt>
</event>
<event>
 4    1  0.1790407E+000  0.1838661E+03  0.7546771E-02  0.1164113E+00
          1   -1    0    0  502    0  0.00000000000E+00  0.00000000000E+00  0.76087296761E+03  0.76087296761E+03  0.00000000000E+00 0.  1.
         -1   -1    0    0    0  501 -0.00000000000E+00 -0.00000000000E+00 -0.62250769741E+02  0.62250769741E+02  0.00000000000E+00 0. -1.
          6    1    1    2  502    0 -0.13873707462E+02 -0.60706513975E+02  0.56950596276E+03  0.59845116945E+03  0.17300000000E+03 0.  1.
         -6    1    1    2    0  501  0.13873707462E+02  0.60706513975E+02  0.12911623511E+03  0.22467256790E+03  0.17300000000E+03 0. -1.
<mgrwt>
<rscale>  2 0.18386615E+03</rscale>
<asrwt>0</asrwt>
<pdfrwt beam="1">  1        1 0.11705737E+00 0.18386615E+03</pdfrwt>
<pdfrwt beam="2">  1       -1 0.95770421E-02 0.18386615E+03</pdfrwt>
<totfact> 0.16161231E+03</totfact>
</mgrwt>
</event>
<event>
 4    1  0.1790407E+000  0.1731144E+03  0.7546771E-02  0.1174638E+00
          2   -1    0    0  502    0  0.00000000000E+00  0.00000000000E+00  0.14501827266E+04  0.14501827266E+04  0.00000000000E+00 0. -1.
         -2   -1    0    0    0  501 -0.00000000000E+00 -0.00000000000E+00 -0.20666257060E+02  0.20666257060E+02  0.00000000000E+00 0.  1.
          6    1    1    2  502    0 -0.40784641160E+01  0.47914066815E+01  0.70999435273E+03  0.73079448024E+03  0.17300000000E+03 0. -1.
         -6    1    1    2    0  501  0.40784641160E+01 -0.47914066815E+01  0.71952211685E+03  0.74005450346E+03  0.17300000000E+03 0.  1.
<mgrwt>
<rscale>  2 0.17311439E+03</rscale>
<asrwt>0</asrwt>
<pdfrwt beam="1">  1        2 0.22310495E+00 0.17311439E+03</pdfrwt>
<pdfrwt beam="2">  1       -2 0.31794253E-02 0.17311439E+03</pdfrwt>
<totfact> 0.55790298E+03</totfact>
</mgrwt>
</event>
<event>
 4    1  0.1790407E+000  0.1739965E+03  0.7546771E-02  0.1173743E+00
          2   -1    0    0  502    0  0.00000000000E+00  0.00000000000E+00  0.37451889347E+04  0.37451889347E+04  0.00000000000E+00 0.  1.
         -2   -1    0    0    0  501 -0.00000000000E+00 -0.00000000000E+00 -0.88705318207E+01  0.88705318207E+01  0.00000000000E+00 0. -1.
          6    1    1    2  502    0  0.11616123469E+02 -0.14520444936E+02  0.13091068601E+04  0.13206193808E+04  0.17300000000E+03 0. -1.
         -6    1    1    2    0  501 -0.11616123469E+02  0.14520444936E+02  0.24272115427E+04  0.24334400857E+04  0.17300000000E+03 0.  1.
<mgrwt>
<rscale>  2 0.17399649E+03</rscale>
<asrwt>0</asrwt>
<pdfrwt beam="1">  1        2 0.57618165E+00 0.17399649E+03</pdfrwt>
<pdfrwt beam="2">  1       -2 0.13647002E-02 0.17399649E+03</pdfrwt>
<totfact> 0.95978190E+02</totfact>
</mgrwt>
</event>
<event>
 4    1  0.1790407E+000  0.2837479E+03  0.7546771E-02  0.1093659E+00
         -1   -1    0    0    0  501 -0.00000000000E+00  0.00000000000E+00  0.10849214169E+03  0.10849214169E+03  0.00000000000E+00 0. -1.
          1   -1    0    0  502    0  0.00000000000E+00 -0.00000000000E+00 -0.87889426908E+03  0.87889426908E+03  0.00000000000E+00 0.  1.
          6    1    1    2  502    0 -0.22339473595E+03  0.26051382805E+02 -0.19043641138E+03  0.34172929253E+03  0.17300000000E+03 0. -1.
         -6    1    1    2    0  501  0.22339473595E+03 -0.26051382805E+02 -0.57996571601E+03  0.64565711824E+03  0.17300000000E+03 0.  1.
<mgrwt>
<rscale>  2 0.28374792E+03</rscale>
<asrwt>0</asrwt>
<pdfrwt beam="1">  1        1 0.13521450E+00 0.28374792E+03</pdfrwt>
<pdfrwt beam="2">  1       -1 0.16691100E-01 0.28374792E+03</pdfrwt>
<totfact> 0.53929507E+02</totfact>
</mgrwt>
</event>
<event>
 4    1  0.1790407E+000  0.1844665E+03  0.7546771E-02  0.1163549E+00
          2   -1    0    0  502    0  0.00000000000E+00  0.00000000000E+00  0.70997958373E+02  0.70997958373E+02  0.00000000000E+00 0.  1.
         -2   -1    0    0    0  501 -0.00000000000E+00 -0.00000000000E+00 -0.51881364735E+03  0.51881364735E+03  0.00000000000E+00 0. -1.
          6    1    1    2  502    0 -0.51026911266E+02 -0.38666936897E+02 -0.30531506112E+03  0.35671440149E+03  0.17300000000E+03 0.  1.
         -6    1    1    2    0  501  0.51026911266E+02  0.38666936897E+02 -0.14250062785E+03  0.23309720423E+03  0.17300000000E+03 0.  1.
<mgrwt>
<rscale>  2 0.18446647E+03</rscale>
<asrwt>0</asrwt>
<pdfrwt beam="1">  1        2 0.10922762E-01 0.18446647E+03</pdfrwt>
<pdfrwt beam="2">  1       -2 0.79817488E-01 0.18446647E+03</pdfrwt>
<totfact> 0.81318285E+02</totfact>
</mgrwt>
</event>
<event>
 4    1  0.1790407E+000  0.1979404E+03  0.7546771E-02  0.1151488E+00
         -1   -1    0    0    0  501 -0.00000000000E+00  0.00000000000E+00  0.29122506964E+03  0.29122506964E+03  0.00000000000E+00 0. -1.
          1   -1    0    0  502    0  0.00000000000E+00 -0.00000000000E+00 -0.13967564681E+03  0.13967564681E+03  0.00000000000E+00 0.  1.
          6    1    1    2  502    0  0.82710777749E+02  0.49094951266E+02  0.34447652131E+02  0.20091547410E+03  0.17300000000E+03 0.  1.
         -6    1    1    2    0  501 -0.82710777749E+02 -0.49094951266E+02  0.11710177071E+03  0.22998524235E+03  0.17300000000E+03 0. -1.
<mgrwt>
<rscale>  2 0.19794036E+03</rscale>
<asrwt>0</asrwt>
<pdfrwt beam="1">  1        1 0.21488561E-01 0.19794036E+03</pdfrwt>
<pdfrwt beam="2">  1       -1 0.44803857E-01 0.19794036E+03</pdfrwt>
<totfact> 0.11633776E+03</totfact>
</mgrwt>
</event>
<event>
 4    1  0.1790407E+000  0.1953000E+03  0.7546771E-02  0.1153766E+00
          2   -1    0    0  502    0  0.00000000000E+00  0.00000000000E+00  0.25376175418E+03  0.25376175418E+03  0.00000000000E+00 0. -1.
         -2   -1    0    0    0  501 -0.00000000000E+00 -0.00000000000E+00 -0.16919394604E+03  0.16919394604E+03  0.00000000000E+00 0.  1.
          6    1    1    2  502    0  0.66895560312E+02  0.61139750610E+02  0.11294121454E+03  0.22560541447E+03  0.17300000000E+03 0.  1.
         -6    1    1    2    0  501 -0.66895560312E+02 -0.61139750610E+02 -0.28373406403E+02  0.19735028575E+03  0.17300000000E+03 0.  1.
<mgrwt>
<rscale>  2 0.19529999E+03</rscale>
<asrwt>0</asrwt>
<pdfrwt beam="1">  1        2 0.39040270E-01 0.19529999E+03</pdfrwt>
<pdfrwt beam="2">  1       -2 0.26029838E-01 0.19529999E+03</pdfrwt>
<totfact> 0.17178101E+03</totfact>
</mgrwt>
</event>
<event>
 4    1  0.1790407E+000  0.1784638E+03  0.7546771E-02  0.1169298E+00
          1   -1    0    0  502    0  0.00000000000E+00  0.00000000000E+00  0.37570500959E+03  0.37570500959E+03  0.00000000000E+00 0.  1.
         -1   -1    0    0    0  501 -0.00000000000E+00 -0.00000000000E+00 -0.88315713810E+02  0.88315713810E+02  0.00000000000E+00 0. -1.
          6    1    1    2  502    0  0.43382770705E+02 -0.61849958116E+01  0.19016852654E+03  0.26079376421E+03  0.17300000000E+03 0. -1.
         -6    1    1    2    0  501 -0.43382770705E+02  0.61849958116E+01  0.97220769240E+02  0.20322695918E+03  0.17300000000E+03 0.  1.
<mgrwt>
<rscale>  2 0.17846377E+03</rscale>
<asrwt>0</asrwt>
<pdfrwt beam="1">  1        1 0.57800770E-01 0.17846377E+03</pdfrwt>
<pdfrwt beam="2">  1       -1 0.13587033E-01 0.17846377E+03</pdfrwt>
<totfact> 0.24352375E+03</totfact>
</mgrwt>
</event>
<event>
 4    1  0.1790407E+000  0.2387084E+03  0.7546771E-02  0.1120656E+00
         -2   -1    0    0    0  501 -0.00000000000E+00  0.00000000000E+00  0.40334866998E+02  0.40334866998E+02  0.00000000000E+00 0.  1.
          2   -1    0    0  502    0  0.00000000000E+00 -0.00000000000E+00 -0.15636357500E+04  0.15636357500E+04  0.00000000000E+00 0. -1.
          6    1    1    2  502    0 -0.13833466918E+03  0.88973006824E+02 -0.51249354334E+03  0.56535945080E+03  0.17300000000E+03 0. -1.
         -6    1    1    2    0  501  0.13833466918E+03 -0.88973006824E+02 -0.10108073397E+04  0.10386111662E+04  0.17300000000E+03 0.  1.
<mgrwt>
<rscale>  2 0.23870835E+03</rscale>
<asrwt>0</asrwt>
<pdfrwt beam="1">  1        2 0.24055936E+00 0.23870835E+03</pdfrwt>
<pdfrwt beam="2">  1       -2 0.62053638E-02 0.23870835E+03</pdfrwt>
<totfact> 0.17754532E+03</totfact>
</mgrwt>
</event>
<event>
 4    1  0.1790407E+000  0.2180069E+03  0.7546771E-02  0.1135378E+00
         -2   -1    0    0    0  501 -0.00000000000E+00  0.00000000000E+00  0.11492661265E+04  0.11492661265E+04  0.00000000000E+00 0. -1.
          2   -1    0    0  502    0  0.00000000000E+00 -0.00000000000E+00 -0.54199784755E+02  0.54199784755E+02  0.00000000000E+00 0.  1.
          6    1    1    2  502    0  0.12959168094E+03 -0.28355356158E+02  0.25459144281E+03  0.33517731538E+03  0.17300000000E+03 0.  1.
         -6    1    1    2    0  501 -0.12959168094E+03  0.28355356158E+02  0.84047489895E+03  0.86828859589E+03  0.17300000000E+03 0. -1.
<mgrwt>
<rscale>  2 0.21800695E+03</rscale>
<asrwt>0</asrwt>
<pdfrwt beam="1">  1        2 0.83384293E-02 0.21800695E+03</pdfrwt>
<pdfrwt beam="2">  1       -2 0.17681015E+00 0.21800695E+03</pdfrwt>
<totfact> 0.16499138E+02</totfact>
</mgrwt>
</event>
<event>
 4    1  0.1790407E+000  0.1839926E+03  0.7546771E-02  0.1163994E+00
          2   -1    0    0  502    0  0.00000000000E+00  0.00000000000E+00  0.25247243545E+04  0.25247243545E+04  0.00000000000E+00 0.  1.
         -2   -1    0    0    0  501 -0.00000000000E+00 -0.00000000000E+00 -0.27870319207E+02  0.27870319207E+02  0.00000000000E+00 0. -1.
          6    1    1    2  502    0 -0.29572346515E+02  0.55224649927E+02  0.32905926161E+03  0.37700568071E+03  0.17300000000E+03 0. -1.
         -6    1    1    2    0  501  0.29572346515E+02 -0.55224649927E+02  0.21677947737E+04  0.21755889930E+04  0.17300000000E+03 0.  1.
<mgrwt>
<rscale>  2 0.18399262E+03</rscale>
<asrwt>0</asrwt>
<pdfrwt beam="1">  1        2 0.38841895E+00 0.18399262E+03</pdfrwt>
<pdfrwt beam="2">  1       -2 0.42877434E-02 0.18399262E+03</pdfrwt>
<totfact> 0.97726061E+02</totfact>
</mgrwt>
</event>
<event>
 4    1  0.1790407E+000  0.1731983E+03  0.7546771E-02  0.1174553E+00
         -1   -1    0    0    0  501 -0.00000000000E+00  0.00000000000E+00  0.70925429180E+02  0.70925429180E+02  0.00000000000E+00 0.  1.
          1   -1    0    0  502    0  0.00000000000E+00 -0.00000000000E+00 -0.57614874995E+03  0.57614874995E+03  0.00000000000E+00 0. -1.
          6    1    1    2  502    0  0.76768521563E+01  0.31187301783E+01 -0.41944750489E+03  0.45379937186E+03  0.17300000000E+03 0. -1.
         -6    1    1    2    0  501 -0.76768521563E+01 -0.31187301783E+01 -0.85775815877E+02  0.19327480727E+03  0.17300000000E+03 0.  1.
<mgrwt>
<rscale>  2 0.17319833E+03</rscale>
<asrwt>0</asrwt>
<pdfrwt beam="1">  1        1 0.88638272E-01 0.17319833E+03</pdfrwt>
<pdfrwt beam="2">  1       -1 0.10911604E-01 0.17319833E+03</pdfrwt>
<totfact> 0.19601491E+03</totfact>
</mgrwt>
</event>
<event>
 4    1  0.1790407E+000  0.3784145E+03  0.7546771E-02  0.1051521E+00
         -3   -1    0    0    0  501 -0.00000000000E+00  0.00000000000E+00  0.11735217399E+04  0.11735217399E+04  0.00000000000E+00 0.  1.
          3   -1    0    0  502    0  0.00000000000E+00 -0.00000000000E+00 -0.12213509594E+03  0.12213509594E+03  0.00000000000E+00 0. -1.
          6    1    1    2  502    0  0.23528698537E+03 -0.24064194399E+03  0.54525463890E+03  0.66370183963E+03  0.17300000000E+03 0.  1.
         -6    1    1    2    0  501 -0.23528698537E+03  0.24064194399E+03  0.50613200506E+03  0.63195499621E+03  0.17300000000E+03 0. -1.
<mgrwt>
<rscale>  2 0.37841447E+03</rscale>
<asrwt>0</asrwt>
<pdfrwt beam="1">  1        3 0.18790016E-01 0.37841447E+03</pdfrwt>
<pdfrwt beam="2">  1       -3 0.18054180E+00 0.37841447E+03</pdfrwt>
<totfact> 0.13213863E+01</totfact>
</mgrwt>
</event>
<event>
 4    1  0.1790407E+000  0.1977337E+03  0.7546771E-02  0.1151665E+00
         -2   -1    0    0    0  501 -0.00000000000E+00  0.00000000000E+00  0.16063534434E+02  0.16063534434E+02  0.00000000000E+00 0.  1.
          2   -1    0    0  502    0  0.00000000000E+00 -0.00000000000E+00 -0.28909807153E+04  0.28909807153E+04  0.00000000000E+00 0. -1.
          6    1    1    2  502    0 -0.95405051440E+02  0.82147693879E+01 -0.20153537633E+04  0.20250307152E+04  0.17300000000E+03 0. -1.
         -6    1    1    2    0  501  0.95405051440E+02 -0.82147693879E+01 -0.85956341760E+03  0.88201353457E+03  0.17300000000E+03 0.  1.
<mgrwt>
<rscale>  2 0.19773368E+03</rscale>
<asrwt>0</asrwt>
<pdfrwt beam="1">  1        2 0.44476648E+00 0.19773368E+03</pdfrwt>
<pdfrwt beam="2">  1       -2 0.24713118E-02 0.19773368E+03</pdfrwt>
<totfact> 0.13817023E+03</totfact>
</mgrwt>
</event>
<event>
 4    1  0.1790407E+000  0.2413465E+03  0.7546771E-02  0.1118899E+00
         -2   -1    0    0    0  501 -0.00000000000E+00  0.00000000000E+00  0.90082934594E+02  0.90082934594E+02  0.00000000000E+00 0.  1.
          2   -1    0    0  502    0  0.00000000000E+00 -0.00000000000E+00 -0.74623674764E+03  0.74623674764E+03  0.00000000000E+00 0. -1.
          6    1    1    2  502    0  0.15809923599E+03  0.57652151879E+02 -0.17528464699E+03  0.29828316498E+03  0.17300000000E+03 0.  1.
         -6    1    1    2    0  501 -0.15809923599E+03 -0.57652151879E+02 -0.48086916606E+03  0.53803651726E+03  0.17300000000E+03 0.  1.
<mgrwt>
<rscale>  2 0.24134651E+03</rscale>
<asrwt>0</asrwt>
<pdfrwt beam="1">  1        2 0.11480565E+00 0.24134651E+03</pdfrwt>
<pdfrwt beam="2">  1       -2 0.13858913E-01 0.24134651E+03</pdfrwt>
<totfact> 0.15114060E+03</totfact>
</mgrwt>
</event>
<event>
 4    1  0.1790407E+000  0.1833046E+03  0.7546771E-02  0.1164643E+00
          1   -1    0    0  502    0  0.00000000000E+00  0.00000000000E+00  0.41518886681E+02  0.41518886681E+02  0.00000000000E+00 0.  1.
         -1   -1    0    0    0  501 -0.00000000000E+00 -0.00000000000E+00 -0.84086092677E+03  0.84086092677E+03  0.00000000000E+00 0. -1.
          6    1    1    2  502    0  0.40824099191E+02  0.44776871535E+02 -0.31417465539E+03  0.36373931516E+03  0.17300000000E+03 0.  1.
         -6    1    1    2    0  501 -0.40824099191E+02 -0.44776871535E+02 -0.48516738469E+03  0.51864049829E+03  0.17300000000E+03 0.  1.
<mgrwt>
<rscale>  2 0.18330460E+03</rscale>
<asrwt>0</asrwt>
<pdfrwt beam="1">  1        1 0.63875218E-02 0.18330460E+03</pdfrwt>
<pdfrwt beam="2">  1       -1 0.12936320E+00 0.18330460E+03</pdfrwt>
<totfact> 0.65021392E+02</totfact>
</mgrwt>
</event>
<event>
 4    1  0.1790407E+000  0.1744327E+03  0.7546771E-02  0.1173302E+00
         -1   -1    0    0    0  501 -0.00000000000E+00  0.00000000000E+00  0.93536402768E+02  0.93536402768E+02  0.00000000000E+00 0. -1.
          1   -1    0    0  502    0  0.00000000000E+00 -0.00000000000E+00 -0.34185067028E+03  0.34185067028E+03  0.00000000000E+00 0.  1.
          6    1    1    2  502    0  0.19832258385E+02  0.10220659405E+02 -0.17206654819E+03  0.24501770825E+03  0.17300000000E+03 0.  1.
         -6    1    1    2    0  501 -0.19832258385E+02 -0.10220659405E+02 -0.76247719323E+02  0.19036936480E+03  0.17300000000E+03 0. -1.
<mgrwt>
<rscale>  2 0.17443274E+03</rscale>
<asrwt>0</asrwt>
<pdfrwt beam="1">  1        1 0.52592410E-01 0.17443274E+03</pdfrwt>
<pdfrwt beam="2">  1       -1 0.14390216E-01 0.17443274E+03</pdfrwt>
<totfact> 0.25046869E+03</totfact>
</mgrwt>
</event>
<event>
 4    1  0.1790407E+000  0.1802838E+03  0.7546771E-02  0.1167529E+00
         -2   -1    0    0    0  501 -0.00000000000E+00  0.00000000000E+00  0.96076521138E+02  0.96076521138E+02  0.00000000000E+00 0. -1.
          2   -1    0    0  502    0  0.00000000000E+00 -0.00000000000E+00 -0.34323013860E+03  0.34323013860E+03  0.00000000000E+00 0.  1.
          6    1    1    2  502    0 -0.46869461080E+02 -0.19404111688E+02 -0.97239727659E+02  0.20483610660E+03  0.17300000000E+03 0. -1.
         -6    1    1    2    0  501  0.46869461080E+02  0.19404111688E+02 -0.14991388980E+03  0.23447055314E+03  0.17300000000E+03 0.  1.
<mgrwt>
<rscale>  2 0.18028385E+03</rscale>
<asrwt>0</asrwt>
<pdfrwt beam="1">  1        2 0.52804636E-01 0.18028385E+03</pdfrwt>
<pdfrwt beam="2">  1       -2 0.14781003E-01 0.18028385E+03</pdfrwt>
<totfact> 0.32471973E+03</totfact>
</mgrwt>
</event>
<event>
 4    1  0.1790407E+000  0.1740150E+03  0.7546771E-02  0.1173724E+00
          1   -1    0    0  502    0  0.00000000000E+00  0.00000000000E+00  0.14662937972E+03  0.14662937972E+03  0.00000000000E+00 0.  1.
         -1   -1    0    0    0  501 -0.00000000000E+00 -0.00000000000E+00 -0.25002552641E+03  0.25002552641E+03  0.00000000000E+00 0. -1.
          6    1    1    2  502    0 -0.24444268791E+01  0.18607226837E+02 -0.13443255362E+03  0.21989387346E+03  0.17300000000E+03 0. -1.
         -6    1    1    2    0  501  0.24444268791E+01 -0.18607226837E+02  0.31036406938E+02  0.17676103267E+03  0.17300000000E+03 0.  1.
<mgrwt>
<rscale>  2 0.17401495E+03</rscale>
<asrwt>0</asrwt>
<pdfrwt beam="1">  1        1 0.22558366E-01 0.17401495E+03</pdfrwt>
<pdfrwt beam="2">  1       -1 0.38465465E-01 0.17401495E+03</pdfrwt>
<totfact> 0.14299135E+03</totfact>
</mgrwt>
</event>
<event>
 4    1  0.1790407E+000  0.1877187E+03  0.7546771E-02  0.1160535E+00
         -2   -1    0    0    0  501 -0.00000000000E+00  0.00000000000E+00  0.21848056783E+02  0.21848056783E+02  0.00000000000E+00 0. -1.
          2   -1    0    0  502    0  0.00000000000E+00 -0.00000000000E+00 -0.19196147715E+04  0.19196147715E+04  0.00000000000E+00 0.  1.
          6    1    1    2  502    0  0.28235414189E+02 -0.67172041560E+02 -0.13369199138E+04  0.13500345098E+04  0.17300000000E+03 0. -1.
         -6    1    1    2    0  501 -0.28235414189E+02  0.67172041560E+02 -0.56084680087E+03  0.59142831842E+03  0.17300000000E+03 0. -1.
<mgrwt>
<rscale>  2 0.18771873E+03</rscale>
<asrwt>0</asrwt>
<pdfrwt beam="1">  1        2 0.29532529E+00 0.18771873E+03</pdfrwt>
<pdfrwt beam="2">  1       -2 0.33612402E-02 0.18771873E+03</pdfrwt>
<totfact> 0.29285862E+03</totfact>
</mgrwt>
</event>
<event>
 4    1  0.1790407E+000  0.1931999E+03  0.7546771E-02  0.1155606E+00
         -2   -1    0    0    0  501 -0.00000000000E+00  0.00000000000E+00  0.58020312853E+02  0.58020312853E+02  0.00000000000E+00 0.  1.
          2   -1    0    0  502    0  0.00000000000E+00 -0.00000000000E+00 -0.67272971313E+03  0.67272971313E+03  0.00000000000E+00 0. -1.
          6    1    1    2  502    0 -0.85321650717E+02  0.10835732763E+02 -0.38373677386E+03  0.42962787246E+03  0.17300000000E+03 0. -1.
         -6    1    1    2    0  501  0.85321650717E+02 -0.10835732763E+02 -0.23097262642E+03  0.30112215352E+03  0.17300000000E+03 0.  1.
<mgrwt>
<rscale>  2 0.19319989E+03</rscale>
<asrwt>0</asrwt>
<pdfrwt beam="1">  1        2 0.10349687E+00 0.19319989E+03</pdfrwt>
<pdfrwt beam="2">  1       -2 0.89262027E-02 0.19319989E+03</pdfrwt>
<totfact> 0.34568877E+03</totfact>
</mgrwt>
</event>
<event>
 4    1  0.1790407E+000  0.1790925E+03  0.7546771E-02  0.1168684E+00
         -1   -1    0    0    0  501 -0.00000000000E+00  0.00000000000E+00  0.13513722304E+03  0.13513722304E+03  0.00000000000E+00 0.  1.
          1   -1    0    0  502    0  0.00000000000E+00 -0.00000000000E+00 -0.23744575688E+03  0.23744575688E+03  0.00000000000E+00 0. -1.
          6    1    1    2  502    0 -0.20622577871E+02  0.41470724461E+02 -0.54996341743E+02  0.18734649532E+03  0.17300000000E+03 0. -1.
         -6    1    1    2    0  501  0.20622577871E+02 -0.41470724461E+02 -0.47312192090E+02  0.18523648460E+03  0.17300000000E+03 0.  1.
<mgrwt>
<rscale>  2 0.17909247E+03</rscale>
<asrwt>0</asrwt>
<pdfrwt beam="1">  1        1 0.36530116E-01 0.17909247E+03</pdfrwt>
<pdfrwt beam="2">  1       -1 0.20790342E-01 0.17909247E+03</pdfrwt>
<totfact> 0.21962438E+03</totfact>
</mgrwt>
</event>
<event>
 4    1  0.1790407E+000  0.1827775E+03  0.7546771E-02  0.1165142E+00
         -2   -1    0    0    0  501 -0.00000000000E+00  0.00000000000E+00  0.10951533426E+03  0.10951533426E+03  0.00000000000E+00 0.  1.
          2   -1    0    0  502    0  0.00000000000E+00 -0.00000000000E+00 -0.50879731445E+03  0.50879731445E+03  0.00000000000E+00 0. -1.
          6    1    1    2  502    0  0.58967764164E+02  0.11891240932E+01 -0.39527847924E+03  0.43549131722E+03  0.17300000000E+03 0. -1.
         -6    1    1    2    0  501 -0.58967764164E+02 -0.11891240932E+01 -0.40035009456E+01  0.18282133149E+03  0.17300000000E+03 0.  1.
<mgrwt>
<rscale>  2 0.18277749E+03</rscale>
<asrwt>0</asrwt>
<pdfrwt beam="1">  1        2 0.78276510E-01 0.18277749E+03</pdfrwt>
<pdfrwt beam="2">  1       -2 0.16848513E-01 0.18277749E+03</pdfrwt>
<totfact> 0.17053487E+03</totfact>
</mgrwt>
</event>
<event>
 4    1  0.1790407E+000  0.2762286E+03  0.7546771E-02  0.1097767E+00
         -3   -1    0    0    0  501 -0.00000000000E+00  0.00000000000E+00  0.33986511929E+03  0.33986511929E+03  0.00000000000E+00 0. -1.
          3   -1    0    0  502    0  0.00000000000E+00 -0.00000000000E+00 -0.22715189082E+03  0.22715189082E+03  0.00000000000E+00 0.  1.
          6    1    1    2  502    0 -0.68302099488E+02 -0.20422551408E+03  0.25766704611E+02  0.27742775719E+03  0.17300000000E+03 0.  1.
         -6    1    1    2    0  501  0.68302099488E+02  0.20422551408E+03  0.86946523852E+02  0.28958925292E+03  0.17300000000E+03 0. -1.
<mgrwt>
<rscale>  2 0.27622860E+03</rscale>
<asrwt>0</asrwt>
<pdfrwt beam="1">  1        3 0.34946445E-01 0.27622860E+03</pdfrwt>
<pdfrwt beam="2">  1       -3 0.52286942E-01 0.27622860E+03</pdfrwt>
<totfact> 0.73595935E+01</totfact>
</mgrwt>
</event>
<event>
 4    1  0.1790407E+000  0.3300401E+03  0.7546771E-02  0.1071119E+00
          2   -1    0    0  502    0  0.00000000000E+00  0.00000000000E+00  0.84187792278E+03  0.84187792278E+03  0.00000000000E+00 0.  1.
         -2   -1    0    0    0  501 -0.00000000000E+00 -0.00000000000E+00 -0.26423401799E+03  0.26423401799E+03  0.00000000000E+00 0. -1.
          6    1    1    2  502    0 -0.90451060882E+01 -0.28091931457E+03 -0.10627021776E+03  0.34672731999E+03  0.17300000000E+03 0. -1.
         -6    1    1    2    0  501  0.90451060882E+01  0.28091931457E+03  0.68391412256E+03  0.75938462078E+03  0.17300000000E+03 0.  1.
<mgrwt>
<rscale>  2 0.33004011E+03</rscale>
<asrwt>0</asrwt>
<pdfrwt beam="1">  1        2 0.12951968E+00 0.33004011E+03</pdfrwt>
<pdfrwt beam="2">  1       -2 0.40651388E-01 0.33004011E+03</pdfrwt>
<totfact> 0.19227189E+02</totfact>
</mgrwt>
</event>
<event>
 4    1  0.1790407E+000  0.1896511E+03  0.7546771E-02  0.1158776E+00
          2   -1    0    0  502    0  0.00000000000E+00  0.00000000000E+00  0.13725602717E+04  0.13725602717E+04  0.00000000000E+00 0. -1.
         -2   -1    0    0    0  501 -0.00000000000E+00 -0.00000000000E+00 -0.26564486120E+02  0.26564486120E+02  0.00000000000E+00 0.  1.
          6    1    1    2  502    0  0.66180793423E+02 -0.40726577308E+02  0.75440991527E+03  0.77788294220E+03  0.17300000000E+03 0. -1.
         -6    1    1    2    0  501 -0.66180793423E+02  0.40726577308E+02  0.59158587030E+03  0.62124181561E+03  0.17300000000E+03 0.  1.
<mgrwt>
<rscale>  2 0.18965113E+03</rscale>
<asrwt>0</asrwt>
<pdfrwt beam="1">  1        2 0.21116306E+00 0.18965113E+03</pdfrwt>
<pdfrwt beam="2">  1       -2 0.40868451E-02 0.18965113E+03</pdfrwt>
<totfact> 0.42302348E+03</totfact>
</mgrwt>
</event>
<event>
 4    1  0.1790407E+000  0.2189513E+03  0.7546771E-02  0.1134667E+00
          2   -1    0    0  502    0  0.00000000000E+00  0.00000000000E+00  0.13975600734E+04  0.13975600734E+04  0.00000000000E+00 0.  1.
         -2   -1    0    0    0  501 -0.00000000000E+00 -0.00000000000E+00 -0.50422316464E+02  0.50422316464E+02  0.00000000000E+00 0. -1.
          6    1    1    2  502    0  0.11024941884E+03 -0.76522805784E+02  0.26421096589E+03  0.34314298573E+03  0.17300000000E+03 0. -1.
         -6    1    1    2    0  501 -0.11024941884E+03  0.76522805784E+02  0.10829267910E+04  0.11048394041E+04  0.17300000000E+03 0.  1.
<mgrwt>
<rscale>  2 0.21895131E+03</rscale>
<asrwt>0</asrwt>
<pdfrwt beam="1">  1        2 0.21500921E+00 0.21895131E+03</pdfrwt>
<pdfrwt beam="2">  1       -2 0.77572805E-02 0.21895131E+03</pdfrwt>
<totfact> 0.15424617E+03</totfact>
</mgrwt>
</event>
<event>
 4    1  0.1790407E+000  0.2002380E+03  0.7546771E-02  0.1149538E+00
         -2   -1    0    0    0  501 -0.00000000000E+00  0.00000000000E+00  0.12919656891E+02  0.12919656891E+02  0.00000000000E+00 0.  1.
          2   -1    0    0  502    0  0.00000000000E+00 -0.00000000000E+00 -0.31219728998E+04  0.31219728998E+04  0.00000000000E+00 0. -1.
          6    1    1    2  502    0 -0.94584737680E+02  0.34928538016E+02 -0.14337328218E+04  0.14476481201E+04  0.17300000000E+03 0. -1.
         -6    1    1    2    0  501  0.94584737680E+02 -0.34928538016E+02 -0.16753204212E+04  0.16872444366E+04  0.17300000000E+03 0.  1.
<mgrwt>
<rscale>  2 0.20023805E+03</rscale>
<asrwt>0</asrwt>
<pdfrwt beam="1">  1        2 0.48030412E+00 0.20023805E+03</pdfrwt>
<pdfrwt beam="2">  1       -2 0.19876370E-02 0.20023805E+03</pdfrwt>
<totfact> 0.13916075E+03</totfact>
</mgrwt>
</event>
<event>
 4    1  0.1790407E+000  0.1847677E+03  0.7546771E-02  0.1163267E+00
         -1   -1    0    0    0  501 -0.00000000000E+00  0.00000000000E+00  0.61079161189E+03  0.61079161189E+03  0.00000000000E+00 0. -1.
          1   -1    0    0  502    0  0.00000000000E+00 -0.00000000000E+00 -0.83352893592E+02  0.83352893592E+02  0.00000000000E+00 0.  1.
          6    1    1    2  502    0 -0.64793537254E+02 -0.34518357031E+01  0.64511191961E+02  0.19570593125E+03  0.17300000000E+03 0.  1.
         -6    1    1    2    0  501  0.64793537254E+02  0.34518357031E+01  0.46292752634E+03  0.49843857423E+03  0.17300000000E+03 0. -1.
<mgrwt>
<rscale>  2 0.18476774E+03</rscale>
<asrwt>0</asrwt>
<pdfrwt beam="1">  1        1 0.12823522E-01 0.18476774E+03</pdfrwt>
<pdfrwt beam="2">  1       -1 0.93967938E-01 0.18476774E+03</pdfrwt>
<totfact> 0.53120865E+02</totfact>
</mgrwt>
</event>
<event>
 4    1  0.1790407E+000  0.2432020E+03  0.7546771E-02  0.1117678E+00
          1   -1    0    0  502    0  0.00000000000E+00  0.00000000000E+00  0.74439526088E+02  0.74439526088E+02  0.00000000000E+00 0. -1.
         -1   -1    0    0    0  501 -0.00000000000E+00 -0.00000000000E+00 -0.80895696209E+03  0.80895696209E+03  0.00000000000E+00 0.  1.
          6    1    1    2  502    0 -0.13371388977E+03 -0.10648379845E+03 -0.30834855700E+03  0.39271622866E+03  0.17300000000E+03 0. -1.
         -6    1    1    2    0  501  0.13371388977E+03  0.10648379845E+03 -0.42616887900E+03  0.49068025952E+03  0.17300000000E+03 0. -1.
<mgrwt>
<rscale>  2 0.24320198E+03</rscale>
<asrwt>0</asrwt>
<pdfrwt beam="1">  1        1 0.11452234E-01 0.24320198E+03</pdfrwt>
<pdfrwt beam="2">  1       -1 0.12445492E+00 0.24320198E+03</pdfrwt>
<totfact> 0.32447078E+02</totfact>
</mgrwt>
</event>
<event>
 4    1  0.1790407E+000  0.1865225E+03  0.7546771E-02  0.1161636E+00
          2   -1    0    0  502    0  0.00000000000E+00  0.00000000000E+00  0.13228935349E+04  0.13228935349E+04  0.00000000000E+00 0.  1.
         -2   -1    0    0    0  501 -0.00000000000E+00 -0.00000000000E+00 -0.51744217457E+02  0.51744217457E+02  0.00000000000E+00 0. -1.
          6    1    1    2  502    0  0.19169312962E+02  0.67038694990E+02  0.11175571565E+04  0.11330157313E+04  0.17300000000E+03 0.  1.
         -6    1    1    2    0  501 -0.19169312962E+02 -0.67038694990E+02  0.15359216093E+03  0.24162202111E+03  0.17300000000E+03 0. -1.
<mgrwt>
<rscale>  2 0.18652252E+03</rscale>
<asrwt>0</asrwt>
<pdfrwt beam="1">  1        2 0.20352206E+00 0.18652252E+03</pdfrwt>
<pdfrwt beam="2">  1       -2 0.79606498E-02 0.18652252E+03</pdfrwt>
<totfact> 0.16276165E+03</totfact>
</mgrwt>
</event>
<event>
 4    1  0.1790407E+000  0.1828345E+03  0.7546771E-02  0.1165088E+00
         -1   -1    0    0    0  501 -0.00000000000E+00  0.00000000000E+00  0.13483445346E+03  0.13483445346E+03  0.00000000000E+00 0.  1.
          1   -1    0    0  502    0  0.00000000000E+00 -0.00000000000E+00 -0.32737900690E+03  0.32737900690E+03  0.00000000000E+00 0. -1.
          6    1    1    2  502    0  0.53085905774E+02  0.26102818889E+02  0.17582801263E+02  0.18367804835E+03  0.17300000000E+03 0.  1.
         -6    1    1    2    0  501 -0.53085905774E+02 -0.26102818889E+02 -0.21012735470E+03  0.27853541200E+03  0.17300000000E+03 0. -1.
<mgrwt>
<rscale>  2 0.18283454E+03</rscale>
<asrwt>0</asrwt>
<pdfrwt beam="1">  1        1 0.50366001E-01 0.18283454E+03</pdfrwt>
<pdfrwt beam="2">  1       -1 0.20743762E-01 0.18283454E+03</pdfrwt>
<totfact> 0.14769858E+03</totfact>
</mgrwt>
</event>
<event>
 4    1  0.1790407E+000  0.2716890E+03  0.7546771E-02  0.1100317E+00
          2   -1    0    0  502    0  0.00000000000E+00  0.00000000000E+00  0.13114653034E+04  0.13114653034E+04  0.00000000000E+00 0. -1.
         -2   -1    0    0    0  501 -0.00000000000E+00 -0.00000000000E+00 -0.63923556115E+02  0.63923556115E+02  0.00000000000E+00 0.  1.
          6    1    1    2  502    0 -0.16877797563E+03 -0.12409647167E+03  0.38603765614E+03  0.47205933027E+03  0.17300000000E+03 0.  1.
         -6    1    1    2    0  501  0.16877797563E+03  0.12409647167E+03  0.86150409116E+03  0.90332952925E+03  0.17300000000E+03 0. -1.
<mgrwt>
<rscale>  2 0.27168905E+03</rscale>
<asrwt>0</asrwt>
<pdfrwt beam="1">  1        2 0.20176387E+00 0.27168905E+03</pdfrwt>
<pdfrwt beam="2">  1       -2 0.98343942E-02 0.27168905E+03</pdfrwt>
<totfact> 0.11799692E+03</totfact>
</mgrwt>
</event>
<event>
 4    1  0.1790407E+000  0.1749662E+03  0.7546771E-02  0.1172766E+00
          2   -1    0    0  502    0  0.00000000000E+00  0.00000000000E+00  0.75917809111E+02  0.75917809111E+02  0.00000000000E+00 0. -1.
         -2   -1    0    0    0  501 -0.00000000000E+00 -0.00000000000E+00 -0.45590587477E+03  0.45590587477E+03  0.00000000000E+00 0.  1.
          6    1    1    2  502    0 -0.19787329394E+01 -0.26081597708E+02 -0.99616380854E+02  0.20133700221E+03  0.17300000000E+03 0. -1.
         -6    1    1    2    0  501  0.19787329394E+01  0.26081597708E+02 -0.28037168480E+03  0.33048668167E+03  0.17300000000E+03 0.  1.
<mgrwt>
<rscale>  2 0.17496618E+03</rscale>
<asrwt>0</asrwt>
<pdfrwt beam="1">  1        2 0.11679663E-01 0.17496618E+03</pdfrwt>
<pdfrwt beam="2">  1       -2 0.70139363E-01 0.17496618E+03</pdfrwt>
<totfact> 0.98990191E+02</totfact>
</mgrwt>
</event>
<event>
 4    1  0.1790407E+000  0.1941299E+03  0.7546771E-02  0.1154788E+00
          1   -1    0    0  502    0  0.00000000000E+00  0.00000000000E+00  0.11640315523E+04  0.11640315523E+04  0.00000000000E+00 0. -1.
         -1   -1    0    0    0  501 -0.00000000000E+00 -0.00000000000E+00 -0.48399645052E+02  0.48399645052E+02  0.00000000000E+00 0.  1.
          6    1    1    2  502    0  0.69735470438E+02 -0.53799369958E+02  0.20900516637E+03  0.28525351464E+03  0.17300000000E+03 0.  1.
         -6    1    1    2    0  501 -0.69735470438E+02  0.53799369958E+02  0.90662674090E+03  0.92717768273E+03  0.17300000000E+03 0. -1.
<mgrwt>
<rscale>  2 0.19412987E+03</rscale>
<asrwt>0</asrwt>
<pdfrwt beam="1">  1        1 0.17908176E+00 0.19412987E+03</pdfrwt>
<pdfrwt beam="2">  1       -1 0.74461001E-02 0.19412987E+03</pdfrwt>
<totfact> 0.11707358E+03</totfact>
</mgrwt>
</event>
<event>
 4    1  0.1790407E+000  0.2089610E+03  0.7546771E-02  0.1142391E+00
          2   -1    0    0  502    0  0.00000000000E+00  0.00000000000E+00  0.74443874994E+02  0.74443874994E+02  0.00000000000E+00 0.  1.
         -2   -1    0    0    0  501 -0.00000000000E+00 -0.00000000000E+00 -0.58723196790E+03  0.58723196790E+03  0.00000000000E+00 0. -1.
          6    1    1    2  502    0 -0.10213903311E+03 -0.57474456292E+02 -0.26770828557E+03  0.33960627405E+03  0.17300000000E+03 0. -1.
         -6    1    1    2    0  501  0.10213903311E+03  0.57474456292E+02 -0.24507980734E+03  0.32206956884E+03  0.17300000000E+03 0. -1.
<mgrwt>
<rscale>  2 0.20896099E+03</rscale>
<asrwt>0</asrwt>
<pdfrwt beam="1">  1        2 0.11452904E-01 0.20896099E+03</pdfrwt>
<pdfrwt beam="2">  1       -2 0.90343379E-01 0.20896099E+03</pdfrwt>
<totfact> 0.58389710E+02</totfact>
</mgrwt>
</event>
<event>
 4    1  0.1790407E+000  0.3428528E+03  0.7546771E-02  0.1065587E+00
          1   -1    0    0  502    0  0.00000000000E+00  0.00000000000E+00  0.78469479046E+03  0.78469479046E+03  0.00000000000E+00 0. -1.
         -1   -1    0    0    0  501 -0.00000000000E+00 -0.00000000000E+00 -0.27860948314E+03  0.27860948314E+03  0.00000000000E+00 0.  1.
          6    1    1    2  502    0  0.26501138569E+03  0.13186359252E+03  0.61453732363E+03  0.70370744184E+03  0.17300000000E+03 0. -1.
         -6    1    1    2    0  501 -0.26501138569E+03 -0.13186359252E+03 -0.10845201631E+03  0.35959683177E+03  0.17300000000E+03 0.  1.
<mgrwt>
<rscale>  2 0.34285280E+03</rscale>
<asrwt>0</asrwt>
<pdfrwt beam="1">  1        1 0.12072227E+00 0.34285280E+03</pdfrwt>
<pdfrwt beam="2">  1       -1 0.42862998E-01 0.34285280E+03</pdfrwt>
<totfact> 0.12945612E+02</totfact>
</mgrwt>
</event>
<event>
 4    1  0.1790407E+000  0.1786294E+03  0.7546771E-02  0.1169136E+00
          1   -1    0    0  502    0  0.00000000000E+00  0.00000000000E+00  0.55015304791E+03  0.55015304791E+03  0.00000000000E+00 0.  1.
         -1   -1    0    0    0  501 -0.00000000000E+00 -0.00000000000E+00 -0.98784920002E+02  0.98784920002E+02  0.00000000000E+00 0. -1.
          6    1    1    2  502    0  0.43379594143E+02 -0.98829078259E+01  0.17195761529E+02  0.17945516228E+03  0.17300000000E+03 0. -1.
         -6    1    1    2    0  501 -0.43379594143E+02  0.98829078259E+01  0.43417236637E+03  0.46948280563E+03  0.17300000000E+03 0.  1.
<mgrwt>
<rscale>  2 0.17862940E+03</rscale>
<asrwt>0</asrwt>
<pdfrwt beam="1">  1        1 0.84638929E-01 0.17862940E+03</pdfrwt>
<pdfrwt beam="2">  1       -1 0.15197680E-01 0.17862940E+03</pdfrwt>
<totfact> 0.12447019E+03</totfact>
</mgrwt>
</event>
<event>
 4    1  0.1790407E+000  0.3004945E+03  0.7546771E-02  0.1084994E+00
          3   -1    0    0  502    0  0.00000000000E+00  0.00000000000E+00  0.27281049625E+03  0.27281049625E+03  0.00000000000E+00 0.  1.
         -3   -1    0    0    0  501 -0.00000000000E+00 -0.00000000000E+00 -0.33266607900E+03  0.33266607900E+03  0.00000000000E+00 0. -1.
          6    1    1    2  502    0 -0.78113307638E+02 -0.23295124195E+03 -0.51430035783E+02  0.30486393447E+03  0.17300000000E+03 0.  1.
         -6    1    1    2    0  501  0.78113307638E+02  0.23295124195E+03 -0.84255469669E+01  0.30061264078E+03  0.17300000000E+03 0.  1.
<mgrwt>
<rscale>  2 0.30049454E+03</rscale>
<asrwt>0</asrwt>
<pdfrwt beam="1">  1        3 0.41970845E-01 0.30049454E+03</pdfrwt>
<pdfrwt beam="2">  1       -3 0.51179397E-01 0.30049454E+03</pdfrwt>
<totfact> 0.54154145E+01</totfact>
</mgrwt>
</event>
<event>
 4    1  0.1790407E+000  0.1931566E+03  0.7546771E-02  0.1155645E+00
          1   -1    0    0  502    0  0.00000000000E+00  0.00000000000E+00  0.84780232735E+03  0.84780232735E+03  0.00000000000E+00 0. -1.
         -1   -1    0    0    0  501 -0.00000000000E+00 -0.00000000000E+00 -0.54492091294E+02  0.54492091294E+02  0.00000000000E+00 0.  1.
          6    1    1    2  502    0 -0.85799062668E+02  0.43602406400E+01  0.19876165664E+03  0.27715643056E+03  0.17300000000E+03 0. -1.
         -6    1    1    2    0  501  0.85799062668E+02 -0.43602406400E+01  0.59454857942E+03  0.62513798808E+03  0.17300000000E+03 0.  1.
<mgrwt>
<rscale>  2 0.19315665E+03</rscale>
<asrwt>0</asrwt>
<pdfrwt beam="1">  1        1 0.13043112E+00 0.19315665E+03</pdfrwt>
<pdfrwt beam="2">  1       -1 0.83833992E-02 0.19315665E+03</pdfrwt>
<totfact> 0.16800654E+03</totfact>
</mgrwt>
</event>
<event>
 4    1  0.1790407E+000  0.1996752E+03  0.7546771E-02  0.1150013E+00
         -2   -1    0    0    0  501 -0.00000000000E+00  0.00000000000E+00  0.68335154174E+02  0.68335154174E+02  0.00000000000E+00 0. -1.
          2   -1    0    0  502    0  0.00000000000E+00 -0.00000000000E+00 -0.61681194437E+03  0.61681194437E+03  0.00000000000E+00 0.  1.
          6    1    1    2  502    0  0.61943050764E+02  0.78129598646E+02 -0.19456739712E+03  0.27879499232E+03  0.17300000000E+03 0. -1.
         -6    1    1    2    0  501 -0.61943050764E+02 -0.78129598646E+02 -0.35390939308E+03  0.40635210622E+03  0.17300000000E+03 0.  1.
<mgrwt>
<rscale>  2 0.19967518E+03</rscale>
<asrwt>0</asrwt>
<pdfrwt beam="1">  1        2 0.94894143E-01 0.19967518E+03</pdfrwt>
<pdfrwt beam="2">  1       -2 0.10513101E-01 0.19967518E+03</pdfrwt>
<totfact> 0.29584224E+03</totfact>
</mgrwt>
</event>
<event>
 4    1  0.1790407E+000  0.1837931E+03  0.7546771E-02  0.1164182E+00
          1   -1    0    0  502    0  0.00000000000E+00  0.00000000000E+00  0.11743232184E+04  0.11743232184E+04  0.00000000000E+00 0. -1.
         -1   -1    0    0    0  501 -0.00000000000E+00 -0.00000000000E+00 -0.31589174682E+02  0.31589174682E+02  0.00000000000E+00 0.  1.
          6    1    1    2  502    0 -0.51557436165E+02  0.34535883729E+02  0.75163989229E+03  0.77378448174E+03  0.17300000000E+03 0. -1.
         -6    1    1    2    0  501  0.51557436165E+02 -0.34535883729E+02  0.39109415146E+03  0.43212791138E+03  0.17300000000E+03 0. -1.
<mgrwt>
<rscale>  2 0.18379308E+03</rscale>
<asrwt>0</asrwt>
<pdfrwt beam="1">  1        1 0.18066508E+00 0.18379308E+03</pdfrwt>
<pdfrwt beam="2">  1       -1 0.48598739E-02 0.18379308E+03</pdfrwt>
<totfact> 0.21858375E+03</totfact>
</mgrwt>
</event>
<event>
 4    1  0.1790407E+000  0.2471102E+03  0.7546771E-02  0.1115145E+00
         -2   -1    0    0    0  501 -0.00000000000E+00  0.00000000000E+00  0.19057588584E+03  0.19057588584E+03  0.00000000000E+00 0. -1.
          2   -1    0    0  502    0  0.00000000000E+00 -0.00000000000E+00 -0.32048243978E+03  0.32048243978E+03  0.00000000000E+00 0.  1.
          6    1    1    2  502    0  0.12969892272E+03 -0.11963537279E+03 -0.61255237084E+02  0.25458915343E+03  0.17300000000E+03 0.  1.
         -6    1    1    2    0  501 -0.12969892272E+03  0.11963537279E+03 -0.68651316846E+02  0.25646917218E+03  0.17300000000E+03 0.  1.
<mgrwt>
<rscale>  2 0.24711016E+03</rscale>
<asrwt>0</asrwt>
<pdfrwt beam="1">  1        2 0.49304990E-01 0.24711016E+03</pdfrwt>
<pdfrwt beam="2">  1       -2 0.29319367E-01 0.24711016E+03</pdfrwt>
<totfact> 0.10847245E+03</totfact>
</mgrwt>
</event>
<event>
 4    1  0.1790407E+000  0.4436824E+03  0.7546771E-02  0.1029623E+00
          2   -1    0    0  502    0  0.00000000000E+00  0.00000000000E+00  0.15203793412E+04  0.15203793412E+04  0.00000000000E+00 0.  1.
         -2   -1    0    0    0  501 -0.00000000000E+00 -0.00000000000E+00 -0.13874823726E+03  0.13874823726E+03  0.00000000000E+00 0. -1.
          6    1    1    2  502    0  0.40705636355E+03  0.35074250139E+02  0.90525563803E+03  0.10081378161E+04  0.17300000000E+03 0.  1.
         -6    1    1    2    0  501 -0.40705636355E+03 -0.35074250139E+02  0.47637546589E+03  0.65098976231E+03  0.17300000000E+03 0. -1.
<mgrwt>
<rscale>  2 0.44368242E+03</rscale>
<asrwt>0</asrwt>
<pdfrwt beam="1">  1        2 0.23390450E+00 0.44368242E+03</pdfrwt>
<pdfrwt beam="2">  1       -2 0.21345884E-01 0.44368242E+03</pdfrwt>
<totfact> 0.24533445E+02</totfact>
</mgrwt>
</event>
<event>
 4    1  0.1790407E+000  0.2254248E+03  0.7546771E-02  0.1129902E+00
          2   -1    0    0  502    0  0.00000000000E+00  0.00000000000E+00  0.31383475954E+03  0.31383475954E+03  0.00000000000E+00 0.  1.
         -2   -1    0    0    0  501 -0.00000000000E+00 -0.00000000000E+00 -0.17477156055E+03  0.17477156055E+03  0.00000000000E+00 0. -1.
          6    1    1    2  502    0  0.11934201347E+03  0.81515844333E+02  0.32856189245E+01  0.22544876214E+03  0.17300000000E+03 0. -1.
         -6    1    1    2    0  501 -0.11934201347E+03 -0.81515844333E+02  0.13577758007E+03  0.26315755795E+03  0.17300000000E+03 0.  1.
<mgrwt>
<rscale>  2 0.22542482E+03</rscale>
<asrwt>0</asrwt>
<pdfrwt beam="1">  1        2 0.48282271E-01 0.22542482E+03</pdfrwt>
<pdfrwt beam="2">  1       -2 0.26887932E-01 0.22542482E+03</pdfrwt>
<totfact> 0.12946845E+03</totfact>
</mgrwt>
</event>
<event>
 4    1  0.1790407E+000  0.2031387E+03  0.7546771E-02  0.1147118E+00
         -2   -1    0    0    0  501 -0.00000000000E+00  0.00000000000E+00  0.50672461051E+03  0.50672461051E+03  0.00000000000E+00 0. -1.
          2   -1    0    0  502    0  0.00000000000E+00 -0.00000000000E+00 -0.81460616931E+02  0.81460616931E+02  0.00000000000E+00 0.  1.
          6    1    1    2  502    0 -0.63991306194E+02 -0.85096603823E+02  0.21780677822E+03  0.29783403414E+03  0.17300000000E+03 0. -1.
         -6    1    1    2    0  501  0.63991306194E+02  0.85096603823E+02  0.20745721536E+03  0.29035119331E+03  0.17300000000E+03 0.  1.
<mgrwt>
<rscale>  2 0.20313867E+03</rscale>
<asrwt>0</asrwt>
<pdfrwt beam="1">  1        2 0.12532403E-01 0.20313867E+03</pdfrwt>
<pdfrwt beam="2">  1       -2 0.77957630E-01 0.20313867E+03</pdfrwt>
<totfact> 0.72620861E+02</totfact>
</mgrwt>
</event>
<event>
 4    1  0.1790407E+000  0.3585984E+03  0.7546771E-02  0.1059140E+00
          1   -1    0    0  502    0  0.00000000000E+00  0.00000000000E+00  0.68114473453E+03  0.68114473453E+03  0.00000000000E+00 0.  1.
         -1   -1    0    0    0  501 -0.00000000000E+00 -0.00000000000E+00 -0.19750969396E+03  0.19750969396E+03  0.00000000000E+00 0. -1.
          6    1    1    2  502    0  0.28613114198E+03  0.12958703560E+03  0.14950465678E+03  0.38851573019E+03  0.17300000000E+03 0. -1.
         -6    1    1    2    0  501 -0.28613114198E+03 -0.12958703560E+03  0.33413038379E+03  0.49013869831E+03  0.17300000000E+03 0.  1.
<mgrwt>
<rscale>  2 0.35859842E+03</rscale>
<asrwt>0</asrwt>
<pdfrwt beam="1">  1        1 0.10479150E+00 0.35859842E+03</pdfrwt>
<pdfrwt beam="2">  1       -1 0.30386107E-01 0.35859842E+03</pdfrwt>
<totfact> 0.29322104E+02</totfact>
</mgrwt>
</event>
<event>
 4    1  0.1790407E+000  0.2526313E+03  0.7546771E-02  0.1111653E+00
          2   -1    0    0  502    0  0.00000000000E+00  0.00000000000E+00  0.21725555132E+04  0.21725555132E+04  0.00000000000E+00 0.  1.
         -2   -1    0    0    0  501 -0.00000000000E+00 -0.00000000000E+00 -0.29931411949E+02  0.29931411949E+02  0.00000000000E+00 0. -1.
          6    1    1    2  502    0  0.18217381277E+03 -0.26575626518E+02  0.12212268173E+04  0.12470835983E+04  0.17300000000E+03 0.  1.
         -6    1    1    2    0  501 -0.18217381277E+03  0.26575626518E+02  0.92139728400E+03  0.95540332684E+03  0.17300000000E+03 0. -1.
<mgrwt>
<rscale>  2 0.25263128E+03</rscale>
<asrwt>0</asrwt>
<pdfrwt beam="1">  1        2 0.33423919E+00 0.25263128E+03</pdfrwt>
<pdfrwt beam="2">  1       -2 0.46048343E-02 0.25263128E+03</pdfrwt>
<totfact> 0.13392246E+03</totfact>
</mgrwt>
</event>
<event>
 4    1  0.1790407E+000  0.1807764E+03  0.7546771E-02  0.1167054E+00
          3   -1    0    0  502    0  0.00000000000E+00  0.00000000000E+00  0.86849846245E+02  0.86849846245E+02  0.00000000000E+00 0.  1.
         -3   -1    0    0    0  501 -0.00000000000E+00 -0.00000000000E+00 -0.59797667970E+03  0.59797667970E+03  0.00000000000E+00 0. -1.
          6    1    1    2  502    0  0.93760881800E+01 -0.51606037496E+02 -0.47073329996E+02  0.18680469087E+03  0.17300000000E+03 0.  1.
         -6    1    1    2    0  501 -0.93760881800E+01  0.51606037496E+02 -0.46405350346E+03  0.49802183507E+03  0.17300000000E+03 0. -1.
<mgrwt>
<rscale>  2 0.18077636E+03</rscale>
<asrwt>0</asrwt>
<pdfrwt beam="1">  1        3 0.13361514E-01 0.18077636E+03</pdfrwt>
<pdfrwt beam="2">  1       -3 0.91996417E-01 0.18077636E+03</pdfrwt>
<totfact> 0.11972502E+02</totfact>
</mgrwt>
</event>
<event>
 4    1  0.1790407E+000  0.1888631E+03  0.7546771E-02  0.1159491E+00
          1   -1    0    0  502    0  0.00000000000E+00  0.00000000000E+00  0.12504996380E+04  0.12504996380E+04  0.00000000000E+00 0.  1.
         -1   -1    0    0    0  501 -0.00000000000E+00 -0.00000000000E+00 -0.28725524411E+02  0.28725524411E+02  0.00000000000E+00 0. -1.
          6    1    1    2  502    0  0.49954190282E+02  0.56963739021E+02  0.55731788306E+03  0.58844924290E+03  0.17300000000E+03 0. -1.
         -6    1    1    2    0  501 -0.49954190282E+02 -0.56963739021E+02  0.66445623057E+03  0.69077591955E+03  0.17300000000E+03 0. -1.
<mgrwt>
<rscale>  2 0.18886315E+03</rscale>
<asrwt>0</asrwt>
<pdfrwt beam="1">  1        1 0.19238452E+00 0.18886315E+03</pdfrwt>
<pdfrwt beam="2">  1       -1 0.44193124E-02 0.18886315E+03</pdfrwt>
<totfact> 0.22312389E+03</totfact>
</mgrwt>
</event>
<event>
 4    1  0.1790407E+000  0.2237638E+03  0.7546771E-02  0.1131108E+00
         -2   -1    0    0    0  501 -0.00000000000E+00  0.00000000000E+00  0.77378390689E+02  0.77378390689E+02  0.00000000000E+00 0. -1.
          2   -1    0    0  502    0  0.00000000000E+00 -0.00000000000E+00 -0.10412595996E+04  0.10412595996E+04  0.00000000000E+00 0.  1.
          6    1    1    2  502    0  0.13396997950E+03  0.46832371071E+02 -0.13780818782E+03  0.26279521118E+03  0.17300000000E+03 0. -1.
         -6    1    1    2    0  501 -0.13396997950E+03 -0.46832371071E+02 -0.82607302106E+03  0.85584277908E+03  0.17300000000E+03 0. -1.
<mgrwt>
<rscale>  2 0.22376377E+03</rscale>
<asrwt>0</asrwt>
<pdfrwt beam="1">  1        2 0.16019377E+00 0.22376377E+03</pdfrwt>
<pdfrwt beam="2">  1       -2 0.11904369E-01 0.22376377E+03</pdfrwt>
<totfact> 0.12431640E+03</totfact>
</mgrwt>
</event>
<event>
 4    1  0.1790407E+000  0.1869177E+03  0.7546771E-02  0.1161271E+00
          1   -1    0    0  502    0  0.00000000000E+00  0.00000000000E+00  0.82537899008E+03  0.82537899008E+03  0.00000000000E+00 0. -1.
         -1   -1    0    0    0  501 -0.00000000000E+00 -0.00000000000E+00 -0.43685970829E+02  0.43685970829E+02  0.00000000000E+00 0.  1.
          6    1    1    2  502    0  0.36357057170E+02  0.60723851247E+02  0.46740444000E+03  0.50339361562E+03  0.17300000000E+03 0.  1.
         -6    1    1    2    0  501 -0.36357057170E+02 -0.60723851247E+02  0.31428857925E+03  0.36567134529E+03  0.17300000000E+03 0.  1.
<mgrwt>
<rscale>  2 0.18691769E+03</rscale>
<asrwt>0</asrwt>
<pdfrwt beam="1">  1        1 0.12698137E+00 0.18691769E+03</pdfrwt>
<pdfrwt beam="2">  1       -1 0.67209192E-02 0.18691769E+03</pdfrwt>
<totfact> 0.24480781E+03</totfact>
</mgrwt>
</event>
<event>
 4    1  0.1790407E+000  0.1732876E+03  0.7546771E-02  0.1174462E+00
          1   -1    0    0  502    0  0.00000000000E+00  0.00000000000E+00  0.82526908701E+03  0.82526908701E+03  0.00000000000E+00 0.  1.
         -1   -1    0    0    0  501 -0.00000000000E+00 -0.00000000000E+00 -0.39211207446E+02  0.39211207446E+02  0.00000000000E+00 0. -1.
          6    1    1    2  502    0 -0.70235898666E+01  0.70888512734E+01  0.50904372655E+03  0.53773050701E+03  0.17300000000E+03 0.  1.
         -6    1    1    2    0  501  0.70235898666E+01 -0.70888512734E+01  0.27701415301E+03  0.32674978744E+03  0.17300000000E+03 0. -1.
<mgrwt>
<rscale>  2 0.17328757E+03</rscale>
<asrwt>0</asrwt>
<pdfrwt beam="1">  1        1 0.12696446E+00 0.17328757E+03</pdfrwt>
<pdfrwt beam="2">  1       -1 0.60324941E-02 0.17328757E+03</pdfrwt>
<totfact> 0.28757166E+03</totfact>
</mgrwt>
</event>
<event>
 4    1  0.1790407E+000  0.1746280E+03  0.7546771E-02  0.1173106E+00
         -1   -1    0    0    0  501 -0.00000000000E+00  0.00000000000E+00  0.11564912587E+03  0.11564912587E+03  0.00000000000E+00 0. -1.
          1   -1    0    0  502    0  0.00000000000E+00 -0.00000000000E+00 -0.41471428689E+03  0.41471428689E+03  0.00000000000E+00 0.  1.
          6    1    1    2  502    0  0.23215765882E+02 -0.51930186323E+01 -0.30956193551E+03  0.35542021769E+03  0.17300000000E+03 0.  1.
         -6    1    1    2    0  501 -0.23215765882E+02  0.51930186323E+01  0.10496774483E+02  0.17494319507E+03  0.17300000000E+03 0. -1.
<mgrwt>
<rscale>  2 0.17462800E+03</rscale>
<asrwt>0</asrwt>
<pdfrwt beam="1">  1        1 0.63802197E-01 0.17462800E+03</pdfrwt>
<pdfrwt beam="2">  1       -1 0.17792174E-01 0.17462800E+03</pdfrwt>
<totfact> 0.14013903E+03</totfact>
</mgrwt>
</event>
<event>
 4    1  0.1790407E+000  0.1801095E+03  0.7546771E-02  0.1167697E+00
          2   -1    0    0  502    0  0.00000000000E+00  0.00000000000E+00  0.21658417910E+04  0.21658417910E+04  0.00000000000E+00 0. -1.
         -2   -1    0    0    0  501 -0.00000000000E+00 -0.00000000000E+00 -0.16049662307E+02  0.16049662307E+02  0.00000000000E+00 0.  1.
          6    1    1    2  502    0 -0.42491386853E+02  0.26549993836E+02  0.79295950740E+03  0.81315693474E+03  0.17300000000E+03 0.  1.
         -6    1    1    2    0  501  0.42491386853E+02 -0.26549993836E+02  0.13568326212E+04  0.13687345185E+04  0.17300000000E+03 0. -1.
<mgrwt>
<rscale>  2 0.18010947E+03</rscale>
<asrwt>0</asrwt>
<pdfrwt beam="1">  1        2 0.33320620E+00 0.18010947E+03</pdfrwt>
<pdfrwt beam="2">  1       -2 0.24691805E-02 0.18010947E+03</pdfrwt>
<totfact> 0.34423740E+03</totfact>
</mgrwt>
</event>
<event>
 4    1  0.1790407E+000  0.2395242E+03  0.7546771E-02  0.1120110E+00
          2   -1    0    0  502    0  0.00000000000E+00  0.00000000000E+00  0.33100247139E+04  0.33100247139E+04  0.00000000000E+00 0. -1.
         -2   -1    0    0    0  501 -0.00000000000E+00 -0.00000000000E+00 -0.21027840817E+02  0.21027840817E+02  0.00000000000E+00 0.  1.
          6    1    1    2  502    0  0.24344034303E+02 -0.16386039199E+03  0.23426764827E+04  0.23548895861E+04  0.17300000000E+03 0. -1.
         -6    1    1    2    0  501 -0.24344034303E+02  0.16386039199E+03  0.94632039041E+03  0.97616296866E+03  0.17300000000E+03 0.  1.
<mgrwt>
<rscale>  2 0.23952424E+03</rscale>
<asrwt>0</asrwt>
<pdfrwt beam="1">  1        2 0.50923416E+00 0.23952424E+03</pdfrwt>
<pdfrwt beam="2">  1       -2 0.32350551E-02 0.23952424E+03</pdfrwt>
<totfact> 0.51355046E+02</totfact>
</mgrwt>
</event>
<event>
 4    1  0.1790407E+000  0.2365010E+03  0.7546771E-02  0.1122146E+00
         -2   -1    0    0    0  501 -0.00000000000E+00  0.00000000000E+00  0.10374045680E+03  0.10374045680E+03  0.00000000000E+00 0.  1.
          2   -1    0    0  502    0  0.00000000000E+00 -0.00000000000E+00 -0.53982516776E+03  0.53982516776E+03  0.00000000000E+00 0. -1.
          6    1    1    2  502    0 -0.18257619995E+02  0.16021973165E+03 -0.22933789239E+03  0.32943674959E+03  0.17300000000E+03 0.  1.
         -6    1    1    2    0  501  0.18257619995E+02 -0.16021973165E+03 -0.20674681857E+03  0.31412887496E+03  0.17300000000E+03 0. -1.
<mgrwt>
<rscale>  2 0.23650096E+03</rscale>
<asrwt>0</asrwt>
<pdfrwt beam="1">  1        2 0.83050027E-01 0.23650096E+03</pdfrwt>
<pdfrwt beam="2">  1       -2 0.15960070E-01 0.23650096E+03</pdfrwt>
<totfact> 0.17546797E+03</totfact>
</mgrwt>
</event>
<event>
 4    1  0.1790407E+000  0.2459551E+03  0.7546771E-02  0.1115888E+00
          2   -1    0    0  502    0  0.00000000000E+00  0.00000000000E+00  0.11812487001E+04  0.11812487001E+04  0.00000000000E+00 0.  1.
         -2   -1    0    0    0  501 -0.00000000000E+00 -0.00000000000E+00 -0.51225315213E+02  0.51225315213E+02  0.00000000000E+00 0. -1.
          6    1    1    2  502    0 -0.16433135856E+03  0.59666756972E+02  0.55501624037E+03  0.60707243750E+03  0.17300000000E+03 0.  1.
         -6    1    1    2    0  501  0.16433135856E+03 -0.59666756972E+02  0.57500714455E+03  0.62540157785E+03  0.17300000000E+03 0. -1.
<mgrwt>
<rscale>  2 0.24595511E+03</rscale>
<asrwt>0</asrwt>
<pdfrwt beam="1">  1        2 0.18173055E+00 0.24595511E+03</pdfrwt>
<pdfrwt beam="2">  1       -2 0.78808186E-02 0.24595511E+03</pdfrwt>
<totfact> 0.19822419E+03</totfact>
</mgrwt>
</event>
<event>
 4    1  0.1790407E+000  0.2991232E+03  0.7546771E-02  0.1085680E+00
         -1   -1    0    0    0  501 -0.00000000000E+00  0.00000000000E+00  0.40044159645E+02  0.40044159645E+02  0.00000000000E+00 0. -1.
          1   -1    0    0  502    0  0.00000000000E+00 -0.00000000000E+00 -0.25579050513E+04  0.25579050513E+04  0.00000000000E+00 0.  1.
          6    1    1    2  502    0 -0.47325060641E+02  0.23938682219E+03 -0.17208839707E+04  0.17466872510E+04  0.17300000000E+03 0.  1.
         -6    1    1    2    0  501  0.47325060641E+02 -0.23938682219E+03 -0.79697692090E+03  0.85126195995E+03  0.17300000000E+03 0. -1.
<mgrwt>
<rscale>  2 0.29912324E+03</rscale>
<asrwt>0</asrwt>
<pdfrwt beam="1">  1        1 0.39352391E+00 0.29912324E+03</pdfrwt>
<pdfrwt beam="2">  1       -1 0.61606391E-02 0.29912324E+03</pdfrwt>
<totfact> 0.18499770E+02</totfact>
</mgrwt>
</event>
<event>
 4    1  0.1790407E+000  0.2028850E+03  0.7546771E-02  0.1147328E+00
          1   -1    0    0  502    0  0.00000000000E+00  0.00000000000E+00  0.55553369118E+03  0.55553369118E+03  0.00000000000E+00 0.  1.
         -1   -1    0    0    0  501 -0.00000000000E+00 -0.00000000000E+00 -0.74149686644E+02  0.74149686644E+02  0.00000000000E+00 0. -1.
          6    1    1    2  502    0  0.99316952956E+02  0.37006254074E+02  0.24923504137E+03  0.32137272104E+03  0.17300000000E+03 0.  1.
         -6    1    1    2    0  501 -0.99316952956E+02 -0.37006254074E+02  0.23214896317E+03  0.30831065679E+03  0.17300000000E+03 0. -1.
<mgrwt>
<rscale>  2 0.20288499E+03</rscale>
<asrwt>0</asrwt>
<pdfrwt beam="1">  1        1 0.85466719E-01 0.20288499E+03</pdfrwt>
<pdfrwt beam="2">  1       -1 0.11407644E-01 0.20288499E+03</pdfrwt>
<totfact> 0.19288023E+03</totfact>
</mgrwt>
</event>
<event>
 4    1  0.1790407E+000  0.2076679E+03  0.7546771E-02  0.1143426E+00
         -1   -1    0    0    0  501 -0.00000000000E+00  0.00000000000E+00  0.95610457074E+02  0.95610457074E+02  0.00000000000E+00 0. -1.
          1   -1    0    0  502    0  0.00000000000E+00 -0.00000000000E+00 -0.48145636642E+03  0.48145636642E+03  0.00000000000E+00 0.  1.
          6    1    1    2  502    0 -0.83903864620E+02  0.78467267619E+02 -0.26542238935E+03  0.33700892474E+03  0.17300000000E+03 0.  1.
         -6    1    1    2    0  501  0.83903864620E+02 -0.78467267619E+02 -0.12042352000E+03  0.24005789875E+03  0.17300000000E+03 0. -1.
<mgrwt>
<rscale>  2 0.20766793E+03</rscale>
<asrwt>0</asrwt>
<pdfrwt beam="1">  1        1 0.74070211E-01 0.20766793E+03</pdfrwt>
<pdfrwt beam="2">  1       -1 0.14709301E-01 0.20766793E+03</pdfrwt>
<totfact> 0.15679194E+03</totfact>
</mgrwt>
</event>
<event>
 4    1  0.1790407E+000  0.1764718E+03  0.7546771E-02  0.1171262E+00
         -2   -1    0    0    0  501 -0.00000000000E+00  0.00000000000E+00  0.34518991983E+02  0.34518991983E+02  0.00000000000E+00 0.  1.
          2   -1    0    0  502    0  0.00000000000E+00 -0.00000000000E+00 -0.91606046460E+03  0.91606046460E+03  0.00000000000E+00 0. -1.
          6    1    1    2  502    0  0.22194061723E+02 -0.26846393428E+02 -0.38226263277E+03  0.42103090816E+03  0.17300000000E+03 0. -1.
         -6    1    1    2    0  501 -0.22194061723E+02  0.26846393428E+02 -0.49927883985E+03  0.52954854842E+03  0.17300000000E+03 0. -1.
<mgrwt>
<rscale>  2 0.17647183E+03</rscale>
<asrwt>0</asrwt>
<pdfrwt beam="1">  1        2 0.14093235E+00 0.17647183E+03</pdfrwt>
<pdfrwt beam="2">  1       -2 0.53106154E-02 0.17647183E+03</pdfrwt>
<totfact> 0.52090764E+03</totfact>
</mgrwt>
</event>
<event>
 4    1  0.1790407E+000  0.1955342E+03  0.7546771E-02  0.1153562E+00
         -2   -1    0    0    0  501 -0.00000000000E+00  0.00000000000E+00  0.38816800777E+03  0.38816800777E+03  0.00000000000E+00 0.  1.
          2   -1    0    0  502    0  0.00000000000E+00 -0.00000000000E+00 -0.12096650338E+03  0.12096650338E+03  0.00000000000E+00 0. -1.
          6    1    1    2  502    0  0.65811399637E+02 -0.63035590689E+02  0.23887094289E+02  0.19698786584E+03  0.17300000000E+03 0. -1.
         -6    1    1    2    0  501 -0.65811399637E+02  0.63035590689E+02  0.24331441010E+03  0.31214664531E+03  0.17300000000E+03 0.  1.
<mgrwt>
<rscale>  2 0.19553421E+03</rscale>
<asrwt>0</asrwt>
<pdfrwt beam="1">  1        2 0.18610232E-01 0.19553421E+03</pdfrwt>
<pdfrwt beam="2">  1       -2 0.59718154E-01 0.19553421E+03</pdfrwt>
<totfact> 0.80189191E+02</totfact>
</mgrwt>
</event>
<event>
 4    1  0.1790407E+000  0.2035852E+03  0.7546771E-02  0.1146749E+00
         -1   -1    0    0    0  501 -0.00000000000E+00  0.00000000000E+00  0.12548587623E+04  0.12548587623E+04  0.00000000000E+00 0. -1.
          1   -1    0    0  502    0  0.00000000000E+00 -0.00000000000E+00 -0.45551521675E+02  0.45551521675E+02  0.00000000000E+00 0.  1.
          6    1    1    2  502    0 -0.59312146467E+02  0.89442634539E+02  0.26374162138E+03  0.33317646741E+03  0.17300000000E+03 0.  1.
         -6    1    1    2    0  501  0.59312146467E+02 -0.89442634539E+02  0.94556561920E+03  0.96723381652E+03  0.17300000000E+03 0. -1.
<mgrwt>
<rscale>  2 0.20358516E+03</rscale>
<asrwt>0</asrwt>
<pdfrwt beam="1">  1        1 0.70079274E-02 0.20358516E+03</pdfrwt>
<pdfrwt beam="2">  1       -1 0.19305517E+00 0.20358516E+03</pdfrwt>
<totfact> 0.19507720E+02</totfact>
</mgrwt>
</event>
<event>
 4    1  0.1790407E+000  0.2797917E+03  0.7546771E-02  0.1095803E+00
          1   -1    0    0  502    0  0.00000000000E+00  0.00000000000E+00  0.39110123615E+03  0.39110123615E+03  0.00000000000E+00 0. -1.
         -1   -1    0    0    0  501 -0.00000000000E+00 -0.00000000000E+00 -0.22884273043E+03  0.22884273043E+03  0.00000000000E+00 0.  1.
          6    1    1    2  502    0 -0.11413640741E+03 -0.18795554603E+03 -0.28607684366E+02  0.28125043357E+03  0.17300000000E+03 0. -1.
         -6    1    1    2    0  501  0.11413640741E+03  0.18795554603E+03  0.19086619009E+03  0.33869353301E+03  0.17300000000E+03 0. -1.
<mgrwt>
<rscale>  2 0.27979172E+03</rscale>
<asrwt>0</asrwt>
<pdfrwt beam="1">  1        1 0.60169421E-01 0.27979172E+03</pdfrwt>
<pdfrwt beam="2">  1       -1 0.35206574E-01 0.27979172E+03</pdfrwt>
<totfact> 0.48528211E+02</totfact>
</mgrwt>
</event>
<event>
 4    1  0.1790407E+000  0.1845666E+03  0.7546771E-02  0.1163455E+00
          2   -1    0    0  502    0  0.00000000000E+00  0.00000000000E+00  0.73364949999E+03  0.73364949999E+03  0.00000000000E+00 0.  1.
         -2   -1    0    0    0  501 -0.00000000000E+00 -0.00000000000E+00 -0.66272676939E+02  0.66272676939E+02  0.00000000000E+00 0. -1.
          6    1    1    2  502    0 -0.54574046988E+02 -0.34022065721E+02  0.11484749787E+03  0.21738163521E+03  0.17300000000E+03 0. -1.
         -6    1    1    2    0  501  0.54574046988E+02  0.34022065721E+02  0.55252932518E+03  0.58254054172E+03  0.17300000000E+03 0.  1.
<mgrwt>
<rscale>  2 0.18456659E+03</rscale>
<asrwt>0</asrwt>
<pdfrwt beam="1">  1        2 0.11286915E+00 0.18456659E+03</pdfrwt>
<pdfrwt beam="2">  1       -2 0.10195797E-01 0.18456659E+03</pdfrwt>
<totfact> 0.25215206E+03</totfact>
</mgrwt>
</event>
<event>
 4    1  0.1790407E+000  0.1908523E+03  0.7546771E-02  0.1157695E+00
          2   -1    0    0  502    0  0.00000000000E+00  0.00000000000E+00  0.62385151644E+03  0.62385151644E+03  0.00000000000E+00 0. -1.
         -2   -1    0    0    0  501 -0.00000000000E+00 -0.00000000000E+00 -0.58386938404E+02  0.58386938404E+02  0.00000000000E+00 0.  1.
          6    1    1    2  502    0  0.50882195744E+02 -0.62502819237E+02  0.28349018783E+03  0.34174740211E+03  0.17300000000E+03 0. -1.
         -6    1    1    2    0  501 -0.50882195744E+02  0.62502819237E+02  0.28197439021E+03  0.34049105273E+03  0.17300000000E+03 0.  1.
<mgrwt>
<rscale>  2 0.19085230E+03</rscale>
<asrwt>0</asrwt>
<pdfrwt beam="1">  1        2 0.95977152E-01 0.19085230E+03</pdfrwt>
<pdfrwt beam="2">  1       -2 0.89826063E-02 0.19085230E+03</pdfrwt>
<totfact> 0.37390588E+03</totfact>
</mgrwt>
</event>
<event>
 4    1  0.1790407E+000  0.2249521E+03  0.7546771E-02  0.1130244E+00
         -2   -1    0    0    0  501 -0.00000000000E+00  0.00000000000E+00  0.31499463441E+02  0.31499463441E+02  0.00000000000E+00 0.  1.
          2   -1    0    0  502    0  0.00000000000E+00 -0.00000000000E+00 -0.17541046519E+04  0.17541046519E+04  0.00000000000E+00 0. -1.
          6    1    1    2  502    0  0.14378218186E+03 -0.10680289354E+01 -0.11203013079E+04  0.11426628886E+04  0.17300000000E+03 0.  1.
         -6    1    1    2    0  501 -0.14378218186E+03  0.10680289354E+01 -0.60230388058E+03  0.64294122676E+03  0.17300000000E+03 0. -1.
<mgrwt>
<rscale>  2 0.22495212E+03</rscale>
<asrwt>0</asrwt>
<pdfrwt beam="1">  1        2 0.26986235E+00 0.22495212E+03</pdfrwt>
<pdfrwt beam="2">  1       -2 0.48460695E-02 0.22495212E+03</pdfrwt>
<totfact> 0.20584827E+03</totfact>
</mgrwt>
</event>
<event>
 4    1  0.1790407E+000  0.1756907E+03  0.7546771E-02  0.1172040E+00
         -2   -1    0    0    0  501 -0.00000000000E+00  0.00000000000E+00  0.45957685763E+02  0.45957685763E+02  0.00000000000E+00 0.  1.
          2   -1    0    0  502    0  0.00000000000E+00 -0.00000000000E+00 -0.84649201685E+03  0.84649201685E+03  0.00000000000E+00 0. -1.
          6    1    1    2  502    0  0.17665851326E+02 -0.25022523975E+02 -0.19746502368E+03  0.26430975121E+03  0.17300000000E+03 0.  1.
         -6    1    1    2    0  501 -0.17665851326E+02  0.25022523975E+02 -0.60306930741E+03  0.62813995140E+03  0.17300000000E+03 0. -1.
<mgrwt>
<rscale>  2 0.17569066E+03</rscale>
<asrwt>0</asrwt>
<pdfrwt beam="1">  1        2 0.13022953E+00 0.17569066E+03</pdfrwt>
<pdfrwt beam="2">  1       -2 0.70704140E-02 0.17569066E+03</pdfrwt>
<totfact> 0.37295150E+03</totfact>
</mgrwt>
</event>
<event>
 4    1  0.1790407E+000  0.1763096E+03  0.7546771E-02  0.1171423E+00
          3   -1    0    0  502    0  0.00000000000E+00  0.00000000000E+00  0.69298009917E+03  0.69298009917E+03  0.00000000000E+00 0. -1.
         -3   -1    0    0    0  501 -0.00000000000E+00 -0.00000000000E+00 -0.47581477704E+02  0.47581477704E+02  0.00000000000E+00 0.  1.
          6    1    1    2  502    0 -0.16206224038E+02 -0.29890641501E+02  0.41130144907E+03  0.44749745715E+03  0.17300000000E+03 0. -1.
         -6    1    1    2    0  501  0.16206224038E+02  0.29890641501E+02  0.23409717240E+03  0.29306411973E+03  0.17300000000E+03 0.  1.
<mgrwt>
<rscale>  2 0.17630965E+03</rscale>
<asrwt>0</asrwt>
<pdfrwt beam="1">  1        3 0.10661232E+00 0.17630965E+03</pdfrwt>
<pdfrwt beam="2">  1       -3 0.73202278E-02 0.17630965E+03</pdfrwt>
<totfact> 0.23247296E+02</totfact>
</mgrwt>
</event>
<event>
 4    1  0.1790407E+000  0.2896864E+03  0.7546771E-02  0.1090513E+00
         -2   -1    0    0    0  501 -0.00000000000E+00  0.00000000000E+00  0.18547927393E+03  0.18547927393E+03  0.00000000000E+00 0. -1.
          2   -1    0    0  502    0  0.00000000000E+00 -0.00000000000E+00 -0.90163555217E+03  0.90163555217E+03  0.00000000000E+00 0.  1.
          6    1    1    2  502    0 -0.12380423853E+03 -0.19662578309E+03  0.25582967530E+02  0.29081381721E+03  0.17300000000E+03 0. -1.
         -6    1    1    2    0  501  0.12380423853E+03  0.19662578309E+03 -0.74173924577E+03  0.79630100890E+03  0.17300000000E+03 0.  1.
<mgrwt>
<rscale>  2 0.28968636E+03</rscale>
<asrwt>0</asrwt>
<pdfrwt beam="1">  1        2 0.13871316E+00 0.28968636E+03</pdfrwt>
<pdfrwt beam="2">  1       -2 0.28535273E-01 0.28968636E+03</pdfrwt>
<totfact> 0.34142782E+02</totfact>
</mgrwt>
</event>
<event>
 4    1  0.1790407E+000  0.1851101E+03  0.7546771E-02  0.1162947E+00
         -2   -1    0    0    0  501 -0.00000000000E+00  0.00000000000E+00  0.63006486986E+02  0.63006486986E+02  0.00000000000E+00 0. -1.
          2   -1    0    0  502    0  0.00000000000E+00 -0.00000000000E+00 -0.64814738094E+03  0.64814738094E+03  0.00000000000E+00 0.  1.
          6    1    1    2  502    0 -0.61602796804E+02 -0.23277849678E+02 -0.14992963297E+03  0.23821137190E+03  0.17300000000E+03 0. -1.
         -6    1    1    2    0  501  0.61602796804E+02  0.23277849678E+02 -0.43521126098E+03  0.47294249602E+03  0.17300000000E+03 0. -1.
<mgrwt>
<rscale>  2 0.18511014E+03</rscale>
<asrwt>0</asrwt>
<pdfrwt beam="1">  1        2 0.99714985E-01 0.18511014E+03</pdfrwt>
<pdfrwt beam="2">  1       -2 0.96933053E-02 0.18511014E+03</pdfrwt>
<totfact> 0.31683815E+03</totfact>
</mgrwt>
</event>
<event>
 4    1  0.1790407E+000  0.1955194E+03  0.7546771E-02  0.1153575E+00
         -1   -1    0    0    0  501 -0.00000000000E+00  0.00000000000E+00  0.37255350587E+03  0.37255350587E+03  0.00000000000E+00 0. -1.
          1   -1    0    0  502    0  0.00000000000E+00 -0.00000000000E+00 -0.14550023944E+03  0.14550023944E+03  0.00000000000E+00 0.  1.
          6    1    1    2  502    0 -0.87612455481E+02 -0.24957499781E+02 -0.27107516382E+02  0.19738955544E+03  0.17300000000E+03 0.  1.
         -6    1    1    2    0  501  0.87612455481E+02  0.24957499781E+02  0.25416078281E+03  0.32066418988E+03  0.17300000000E+03 0. -1.
<mgrwt>
<rscale>  2 0.19551936E+03</rscale>
<asrwt>0</asrwt>
<pdfrwt beam="1">  1        1 0.22384652E-01 0.19551936E+03</pdfrwt>
<pdfrwt beam="2">  1       -1 0.57315924E-01 0.19551936E+03</pdfrwt>
<totfact> 0.70041338E+02</totfact>
</mgrwt>
</event>
<event>
 4    1  0.1790407E+000  0.1791734E+03  0.7546771E-02  0.1168605E+00
         -2   -1    0    0    0  501 -0.00000000000E+00  0.00000000000E+00  0.34242037342E+02  0.34242037342E+02  0.00000000000E+00 0.  1.
          2   -1    0    0  502    0  0.00000000000E+00 -0.00000000000E+00 -0.97227701356E+03  0.97227701356E+03  0.00000000000E+00 0. -1.
          6    1    1    2  502    0  0.46228311038E+02  0.60864781444E+01 -0.37388569608E+03  0.41460054955E+03  0.17300000000E+03 0.  1.
         -6    1    1    2    0  501 -0.46228311038E+02 -0.60864781444E+01 -0.56414928014E+03  0.59191850135E+03  0.17300000000E+03 0. -1.
<mgrwt>
<rscale>  2 0.17917339E+03</rscale>
<asrwt>0</asrwt>
<pdfrwt beam="1">  1        2 0.14958107E+00 0.17917339E+03</pdfrwt>
<pdfrwt beam="2">  1       -2 0.52680060E-02 0.17917339E+03</pdfrwt>
<totfact> 0.48676779E+03</totfact>
</mgrwt>
</event>
<event>
 4    1  0.1790407E+000  0.2987723E+03  0.7546771E-02  0.1085856E+00
         -1   -1    0    0    0  501 -0.00000000000E+00  0.00000000000E+00  0.20389573510E+03  0.20389573510E+03  0.00000000000E+00 0.  1.
          1   -1    0    0  502    0  0.00000000000E+00 -0.00000000000E+00 -0.46382463045E+03  0.46382463045E+03  0.00000000000E+00 0. -1.
          6    1    1    2  502    0 -0.23719415738E+03 -0.55450949194E+02 -0.20905192116E+03  0.36464720183E+03  0.17300000000E+03 0.  1.
         -6    1    1    2    0  501  0.23719415738E+03  0.55450949194E+02 -0.50876974199E+02  0.30307316372E+03  0.17300000000E+03 0. -1.
<mgrwt>
<rscale>  2 0.29877228E+03</rscale>
<asrwt>0</asrwt>
<pdfrwt beam="1">  1        1 0.71357635E-01 0.29877228E+03</pdfrwt>
<pdfrwt beam="2">  1       -1 0.31368575E-01 0.29877228E+03</pdfrwt>
<totfact> 0.47432064E+02</totfact>
</mgrwt>
</event>
<event>
 4    1  0.1790407E+000  0.1926521E+03  0.7546771E-02  0.1156091E+00
          1   -1    0    0  502    0  0.00000000000E+00  0.00000000000E+00  0.68121255496E+03  0.68121255496E+03  0.00000000000E+00 0.  1.
         -1   -1    0    0    0  501 -0.00000000000E+00 -0.00000000000E+00 -0.11142220467E+03  0.11142220467E+03  0.00000000000E+00 0. -1.
          6    1    1    2  502    0 -0.31462153107E+01 -0.84710940959E+02  0.15857341348E+01  0.19265865343E+03  0.17300000000E+03 0. -1.
         -6    1    1    2    0  501  0.31462153107E+01  0.84710940959E+02  0.56820461616E+03  0.59997610620E+03  0.17300000000E+03 0.  1.
<mgrwt>
<rscale>  2 0.19265213E+03</rscale>
<asrwt>0</asrwt>
<pdfrwt beam="1">  1        1 0.10480193E+00 0.19265213E+03</pdfrwt>
<pdfrwt beam="2">  1       -1 0.17141878E-01 0.19265213E+03</pdfrwt>
<totfact> 0.76472373E+02</totfact>
</mgrwt>
</event>
<event>
 4    1  0.1790407E+000  0.1838823E+03  0.7546771E-02  0.1164098E+00
         -2   -1    0    0    0  501 -0.00000000000E+00  0.00000000000E+00  0.53597756318E+02  0.53597756318E+02  0.00000000000E+00 0.  1.
          2   -1    0    0  502    0  0.00000000000E+00 -0.00000000000E+00 -0.72351497430E+03  0.72351497430E+03  0.00000000000E+00 0. -1.
          6    1    1    2  502    0  0.60507568502E+02 -0.14917741572E+02 -0.47400623325E+03  0.50842365604E+03  0.17300000000E+03 0. -1.
         -6    1    1    2    0  501 -0.60507568502E+02  0.14917741572E+02 -0.19591098473E+03  0.26868907458E+03  0.17300000000E+03 0.  1.
<mgrwt>
<rscale>  2 0.18388231E+03</rscale>
<asrwt>0</asrwt>
<pdfrwt beam="1">  1        2 0.11131000E+00 0.18388231E+03</pdfrwt>
<pdfrwt beam="2">  1       -2 0.82458085E-02 0.18388231E+03</pdfrwt>
<totfact> 0.35799487E+03</totfact>
</mgrwt>
</event>
<event>
 4    1  0.1790407E+000  0.1969330E+03  0.7546771E-02  0.1152353E+00
          1   -1    0    0  502    0  0.00000000000E+00  0.00000000000E+00  0.47371306141E+03  0.47371306141E+03  0.00000000000E+00 0. -1.
         -1   -1    0    0    0  501 -0.00000000000E+00 -0.00000000000E+00 -0.82237268478E+02  0.82237268478E+02  0.00000000000E+00 0.  1.
          6    1    1    2  502    0 -0.34870906540E+02 -0.87393491517E+02  0.21432963377E+03  0.29106664940E+03  0.17300000000E+03 0.  1.
         -6    1    1    2    0  501  0.34870906540E+02  0.87393491517E+02  0.17714615916E+03  0.26488368049E+03  0.17300000000E+03 0. -1.
<mgrwt>
<rscale>  2 0.19693299E+03</rscale>
<asrwt>0</asrwt>
<pdfrwt beam="1">  1        1 0.72878931E-01 0.19693299E+03</pdfrwt>
<pdfrwt beam="2">  1       -1 0.12651888E-01 0.19693299E+03</pdfrwt>
<totfact> 0.20274984E+03</totfact>
</mgrwt>
</event>
<event>
 4    1  0.1790407E+000  0.2030280E+03  0.7546771E-02  0.1147209E+00
          2   -1    0    0  502    0  0.00000000000E+00  0.00000000000E+00  0.29669761701E+04  0.29669761701E+04  0.00000000000E+00 0.  1.
         -2   -1    0    0    0  501 -0.00000000000E+00 -0.00000000000E+00 -0.14406737484E+02  0.14406737484E+02  0.00000000000E+00 0. -1.
          6    1    1    2  502    0 -0.10309600375E+03  0.25740358016E+02  0.11948005958E+04  0.12119277272E+04  0.17300000000E+03 0.  1.
         -6    1    1    2    0  501  0.10309600375E+03 -0.25740358016E+02  0.17577688368E+04  0.17694551804E+04  0.17300000000E+03 0. -1.
<mgrwt>
<rscale>  2 0.20302796E+03</rscale>
<asrwt>0</asrwt>
<pdfrwt beam="1">  1        2 0.45645739E+00 0.20302796E+03</pdfrwt>
<pdfrwt beam="2">  1       -2 0.22164235E-02 0.20302796E+03</pdfrwt>
<totfact> 0.14641404E+03</totfact>
</mgrwt>
</event>
<event>
 4    1  0.1790407E+000  0.2008055E+03  0.7546771E-02  0.1149061E+00
         -1   -1    0    0    0  501 -0.00000000000E+00  0.00000000000E+00  0.25267137885E+03  0.25267137885E+03  0.00000000000E+00 0. -1.
          1   -1    0    0  502    0  0.00000000000E+00 -0.00000000000E+00 -0.25565817819E+03  0.25565817819E+03  0.00000000000E+00 0.  1.
          6    1    1    2  502    0  0.82125098091E+02 -0.60409622503E+02 -0.15729933107E+03  0.25508024969E+03  0.17300000000E+03 0.  1.
         -6    1    1    2    0  501 -0.82125098091E+02  0.60409622503E+02  0.15431253173E+03  0.25324930735E+03  0.17300000000E+03 0.  1.
<mgrwt>
<rscale>  2 0.20080551E+03</rscale>
<asrwt>0</asrwt>
<pdfrwt beam="1">  1        1 0.39332027E-01 0.20080551E+03</pdfrwt>
<pdfrwt beam="2">  1       -1 0.38872520E-01 0.20080551E+03</pdfrwt>
<totfact> 0.69905016E+02</totfact>
</mgrwt>
</event>
<event>
 4    1  0.1790407E+000  0.2178553E+03  0.7546771E-02  0.1135492E+00
         -1   -1    0    0    0  501 -0.00000000000E+00  0.00000000000E+00  0.67686199605E+02  0.67686199605E+02  0.00000000000E+00 0.  1.
          1   -1    0    0  502    0  0.00000000000E+00 -0.00000000000E+00 -0.71764688198E+03  0.71764688198E+03  0.00000000000E+00 0. -1.
          6    1    1    2  502    0  0.47733100209E+02  0.12350502407E+03 -0.38444129041E+03  0.44187786276E+03  0.17300000000E+03 0. -1.
         -6    1    1    2    0  501 -0.47733100209E+02 -0.12350502407E+03 -0.26551939196E+03  0.34345521882E+03  0.17300000000E+03 0. -1.
<mgrwt>
<rscale>  2 0.21785532E+03</rscale>
<asrwt>0</asrwt>
<pdfrwt beam="1">  1        1 0.11040720E+00 0.21785532E+03</pdfrwt>
<pdfrwt beam="2">  1       -1 0.10413262E-01 0.21785532E+03</pdfrwt>
<totfact> 0.15516893E+03</totfact>
</mgrwt>
</event>
<event>
 4    1  0.1790407E+000  0.1761071E+03  0.7546771E-02  0.1171625E+00
          2   -1    0    0  502    0  0.00000000000E+00  0.00000000000E+00  0.50689538881E+03  0.50689538881E+03  0.00000000000E+00 0.  1.
         -2   -1    0    0    0  501 -0.00000000000E+00 -0.00000000000E+00 -0.10158096029E+03  0.10158096029E+03  0.00000000000E+00 0. -1.
          6    1    1    2  502    0 -0.12956243648E+02 -0.30279562464E+02  0.10797536816E+02  0.17643781611E+03  0.17300000000E+03 0. -1.
         -6    1    1    2    0  501  0.12956243648E+02  0.30279562464E+02  0.39451689171E+03  0.43203853300E+03  0.17300000000E+03 0.  1.
<mgrwt>
<rscale>  2 0.17610712E+03</rscale>
<asrwt>0</asrwt>
<pdfrwt beam="1">  1        2 0.77983905E-01 0.17610712E+03</pdfrwt>
<pdfrwt beam="2">  1       -2 0.15627840E-01 0.17610712E+03</pdfrwt>
<totfact> 0.19383913E+03</totfact>
</mgrwt>
</event>
<event>
 4    1  0.1790407E+000  0.2689649E+03  0.7546771E-02  0.1101874E+00
         -2   -1    0    0    0  501 -0.00000000000E+00  0.00000000000E+00  0.13809148379E+04  0.13809148379E+04  0.00000000000E+00 0.  1.
          2   -1    0    0  502    0  0.00000000000E+00 -0.00000000000E+00 -0.77944471887E+02  0.77944471887E+02  0.00000000000E+00 0. -1.
          6    1    1    2  502    0  0.18401302650E+03  0.92478647968E+02  0.23380003442E+03  0.35637697786E+03  0.17300000000E+03 0.  1.
         -6    1    1    2    0  501 -0.18401302650E+03 -0.92478647968E+02  0.10691703316E+04  0.11024823319E+04  0.17300000000E+03 0.  1.
<mgrwt>
<rscale>  2 0.26896486E+03</rscale>
<asrwt>0</asrwt>
<pdfrwt beam="1">  1        2 0.11991458E-01 0.26896486E+03</pdfrwt>
<pdfrwt beam="2">  1       -2 0.21244842E+00 0.26896486E+03</pdfrwt>
<totfact> 0.61707726E+01</totfact>
</mgrwt>
</event>
<event>
 4    1  0.1790407E+000  0.2479130E+03  0.7546771E-02  0.1114631E+00
         -2   -1    0    0    0  501 -0.00000000000E+00  0.00000000000E+00  0.74972737846E+02  0.74972737846E+02  0.00000000000E+00 0.  1.
          2   -1    0    0  502    0  0.00000000000E+00 -0.00000000000E+00 -0.21199719887E+04  0.21199719887E+04  0.00000000000E+00 0. -1.
          6    1    1    2  502    0 -0.15404590071E+03  0.88327338621E+02 -0.16302526336E+03  0.29671214125E+03  0.17300000000E+03 0.  1.
         -6    1    1    2    0  501  0.15404590071E+03 -0.88327338621E+02 -0.18819739875E+04  0.18982325853E+04  0.17300000000E+03 0. -1.
<mgrwt>
<rscale>  2 0.24791301E+03</rscale>
<asrwt>0</asrwt>
<pdfrwt beam="1">  1        2 0.32614958E+00 0.24791301E+03</pdfrwt>
<pdfrwt beam="2">  1       -2 0.11534266E-01 0.24791301E+03</pdfrwt>
<totfact> 0.34124300E+02</totfact>
</mgrwt>
</event>
<event>
 4    1  0.1790407E+000  0.1995696E+03  0.7546771E-02  0.1150103E+00
          2   -1    0    0  502    0  0.00000000000E+00  0.00000000000E+00  0.83498015392E+03  0.83498015392E+03  0.00000000000E+00 0.  1.
         -2   -1    0    0    0  501 -0.00000000000E+00 -0.00000000000E+00 -0.48393263829E+02  0.48393263829E+02  0.00000000000E+00 0. -1.
          6    1    1    2  502    0  0.67105939716E+02  0.73456251005E+02  0.34040410573E+03  0.39459217320E+03  0.17300000000E+03 0.  1.
         -6    1    1    2    0  501 -0.67105939716E+02 -0.73456251005E+02  0.44618278437E+03  0.48878124455E+03  0.17300000000E+03 0.  1.
<mgrwt>
<rscale>  2 0.19956961E+03</rscale>
<asrwt>0</asrwt>
<pdfrwt beam="1">  1        2 0.12845847E+00 0.19956961E+03</pdfrwt>
<pdfrwt beam="2">  1       -2 0.74451182E-02 0.19956961E+03</pdfrwt>
<totfact> 0.35170929E+03</totfact>
</mgrwt>
</event>
<event>
 4    1  0.1790407E+000  0.2319308E+03  0.7546771E-02  0.1125288E+00
         -1   -1    0    0    0  501 -0.00000000000E+00  0.00000000000E+00  0.28725323090E+02  0.28725323090E+02  0.00000000000E+00 0.  1.
          1   -1    0    0  502    0  0.00000000000E+00 -0.00000000000E+00 -0.19750978234E+04  0.19750978234E+04  0.00000000000E+00 0. -1.
          6    1    1    2  502    0  0.10491549379E+03 -0.11338272977E+03 -0.74497940798E+03  0.78024753929E+03  0.17300000000E+03 0.  1.
         -6    1    1    2    0  501 -0.10491549379E+03  0.11338272977E+03 -0.12013930923E+04  0.12235756072E+04  0.17300000000E+03 0. -1.
<mgrwt>
<rscale>  2 0.23193082E+03</rscale>
<asrwt>0</asrwt>
<pdfrwt beam="1">  1        1 0.30386133E+00 0.23193082E+03</pdfrwt>
<pdfrwt beam="2">  1       -1 0.44192786E-02 0.23193082E+03</pdfrwt>
<totfact> 0.74514175E+02</totfact>
</mgrwt>
</event>
<event>
 4    1  0.1790407E+000  0.2211456E+03  0.7546771E-02  0.1133032E+00
         -3   -1    0    0    0  501 -0.00000000000E+00  0.00000000000E+00  0.36019963317E+04  0.36019963317E+04  0.00000000000E+00 0. -1.
          3   -1    0    0  502    0  0.00000000000E+00 -0.00000000000E+00 -0.16764653290E+02  0.16764653290E+02  0.00000000000E+00 0.  1.
          6    1    1    2  502    0 -0.18938322905E+02 -0.13644682442E+03  0.25815622526E+04  0.25910169934E+04  0.17300000000E+03 0. -1.
         -6    1    1    2    0  501  0.18938322905E+02  0.13644682442E+03  0.10036694258E+04  0.10277439916E+04  0.17300000000E+03 0.  1.
<mgrwt>
<rscale>  2 0.22114564E+03</rscale>
<asrwt>0</asrwt>
<pdfrwt beam="1">  1        3 0.25791803E-02 0.22114564E+03</pdfrwt>
<pdfrwt beam="2">  1       -3 0.55415267E+00 0.22114564E+03</pdfrwt>
<totfact> 0.32999618E+00</totfact>
</mgrwt>
</event>
<event>
 4    1  0.1790407E+000  0.2456493E+03  0.7546771E-02  0.1116086E+00
         -1   -1    0    0    0  501 -0.00000000000E+00  0.00000000000E+00  0.32128286672E+02  0.32128286672E+02  0.00000000000E+00 0. -1.
          1   -1    0    0  502    0  0.00000000000E+00 -0.00000000000E+00 -0.19596835833E+04  0.19596835833E+04  0.00000000000E+00 0.  1.
          6    1    1    2  502    0  0.16810737082E+03  0.46416509079E+02 -0.11668454767E+04  0.11924227216E+04  0.17300000000E+03 0.  1.
         -6    1    1    2    0  501 -0.16810737082E+03 -0.46416509079E+02 -0.76070982000E+03  0.79938914846E+03  0.17300000000E+03 0. -1.
<mgrwt>
<rscale>  2 0.24564930E+03</rscale>
<asrwt>0</asrwt>
<pdfrwt beam="1">  1        1 0.30148987E+00 0.24564930E+03</pdfrwt>
<pdfrwt beam="2">  1       -1 0.49428119E-02 0.24564930E+03</pdfrwt>
<totfact> 0.64367004E+02</totfact>
</mgrwt>
</event>
<event>
 4    1  0.1790407E+000  0.2654602E+03  0.7546771E-02  0.1103906E+00
         -2   -1    0    0    0  501 -0.00000000000E+00  0.00000000000E+00  0.21890285392E+03  0.21890285392E+03  0.00000000000E+00 0.  1.
          2   -1    0    0  502    0  0.00000000000E+00 -0.00000000000E+00 -0.32661015946E+03  0.32661015946E+03  0.00000000000E+00 0. -1.
          6    1    1    2  502    0  0.14185176890E+03 -0.14289219123E+03 -0.21166575435E+02  0.26630269727E+03  0.17300000000E+03 0.  1.
         -6    1    1    2    0  501 -0.14185176890E+03  0.14289219123E+03 -0.86540730106E+02  0.27921031611E+03  0.17300000000E+03 0. -1.
<mgrwt>
<rscale>  2 0.26546017E+03</rscale>
<asrwt>0</asrwt>
<pdfrwt beam="1">  1        2 0.50247717E-01 0.26546017E+03</pdfrwt>
<pdfrwt beam="2">  1       -2 0.33677362E-01 0.26546017E+03</pdfrwt>
<totfact> 0.82463849E+02</totfact>
</mgrwt>
</event>
<event>
 4    1  0.1790407E+000  0.1740249E+03  0.7546771E-02  0.1173714E+00
          2   -1    0    0  502    0  0.00000000000E+00  0.00000000000E+00  0.45190568347E+03  0.45190568347E+03  0.00000000000E+00 0.  1.
         -2   -1    0    0    0  501 -0.00000000000E+00 -0.00000000000E+00 -0.74654188570E+02  0.74654188570E+02  0.00000000000E+00 0. -1.
          6    1    1    2  502    0 -0.40688876769E+01  0.18415149952E+02  0.27284295059E+03  0.32361697928E+03  0.17300000000E+03 0.  1.
         -6    1    1    2    0  501  0.40688876769E+01 -0.18415149952E+02  0.10440854431E+03  0.20294289275E+03  0.17300000000E+03 0. -1.
<mgrwt>
<rscale>  2 0.17402492E+03</rscale>
<asrwt>0</asrwt>
<pdfrwt beam="1">  1        2 0.69523950E-01 0.17402492E+03</pdfrwt>
<pdfrwt beam="2">  1       -2 0.11485260E-01 0.17402492E+03</pdfrwt>
<totfact> 0.36263809E+03</totfact>
</mgrwt>
</event>
<event>
 4    1  0.1790407E+000  0.2757849E+03  0.7546771E-02  0.1098014E+00
          1   -1    0    0  502    0  0.00000000000E+00  0.00000000000E+00  0.34754160894E+03  0.34754160894E+03  0.00000000000E+00 0. -1.
         -1   -1    0    0    0  501 -0.00000000000E+00 -0.00000000000E+00 -0.22028822319E+03  0.22028822319E+03  0.00000000000E+00 0.  1.
          6    1    1    2  502    0  0.15074851888E+03  0.15298105850E+03  0.86616877447E+02  0.28906712657E+03  0.17300000000E+03 0. -1.
         -6    1    1    2    0  501 -0.15074851888E+03 -0.15298105850E+03  0.40636508301E+02  0.27876270556E+03  0.17300000000E+03 0.  1.
<mgrwt>
<rscale>  2 0.27578492E+03</rscale>
<asrwt>0</asrwt>
<pdfrwt beam="1">  1        1 0.53467940E-01 0.27578492E+03</pdfrwt>
<pdfrwt beam="2">  1       -1 0.33890496E-01 0.27578492E+03</pdfrwt>
<totfact> 0.60329809E+02</totfact>
</mgrwt>
</event>
<event>
 4    1  0.1790407E+000  0.2529282E+03  0.7546771E-02  0.1111468E+00
         -1   -1    0    0    0  501 -0.00000000000E+00  0.00000000000E+00  0.94134263484E+02  0.94134263484E+02  0.00000000000E+00 0.  1.
          1   -1    0    0  502    0  0.00000000000E+00 -0.00000000000E+00 -0.79740256830E+03  0.79740256830E+03  0.00000000000E+00 0. -1.
          6    1    1    2  502    0  0.12522815611E+02  0.18408385910E+03 -0.52297724635E+03  0.58092847089E+03  0.17300000000E+03 0. -1.
         -6    1    1    2    0  501 -0.12522815611E+02 -0.18408385910E+03 -0.18029105846E+03  0.31060836089E+03  0.17300000000E+03 0.  1.
<mgrwt>
<rscale>  2 0.25292823E+03</rscale>
<asrwt>0</asrwt>
<pdfrwt beam="1">  1        1 0.12267732E+00 0.25292823E+03</pdfrwt>
<pdfrwt beam="2">  1       -1 0.14482194E-01 0.25292823E+03</pdfrwt>
<totfact> 0.79011031E+02</totfact>
</mgrwt>
</event>
<event>
 4    1  0.1790407E+000  0.1882192E+03  0.7546771E-02  0.1160077E+00
         -1   -1    0    0    0  501 -0.00000000000E+00  0.00000000000E+00  0.59590634909E+02  0.59590634909E+02  0.00000000000E+00 0.  1.
          1   -1    0    0  502    0  0.00000000000E+00 -0.00000000000E+00 -0.59454804747E+03  0.59454804747E+03  0.00000000000E+00 0. -1.
          6    1    1    2  502    0 -0.73783167210E+02 -0.73142500115E+01 -0.27050917323E+03  0.32954767002E+03  0.17300000000E+03 0. -1.
         -6    1    1    2    0  501  0.73783167210E+02  0.73142500115E+01 -0.26444823934E+03  0.32459101236E+03  0.17300000000E+03 0.  1.
<mgrwt>
<rscale>  2 0.18821916E+03</rscale>
<asrwt>0</asrwt>
<pdfrwt beam="1">  1        1 0.91468931E-01 0.18821916E+03</pdfrwt>
<pdfrwt beam="2">  1       -1 0.91677899E-02 0.18821916E+03</pdfrwt>
<totfact> 0.24590085E+03</totfact>
</mgrwt>
</event>
<event>
 4    1  0.1790407E+000  0.1749453E+03  0.7546771E-02  0.1172787E+00
          4   -1    0    0  502    0  0.00000000000E+00  0.00000000000E+00  0.21900724461E+03  0.21900724461E+03  0.00000000000E+00 0. -1.
         -4   -1    0    0    0  501 -0.00000000000E+00 -0.00000000000E+00 -0.29776358460E+03  0.29776358460E+03  0.00000000000E+00 0.  1.
          6    1    1    2  502    0 -0.24118108906E+02  0.97549898433E+01  0.14884888502E+03  0.22969944183E+03  0.17300000000E+03 0. -1.
         -6    1    1    2    0  501  0.24118108906E+02 -0.97549898433E+01 -0.22760522501E+03  0.28707138738E+03  0.17300000000E+03 0.  1.
<mgrwt>
<rscale>  2 0.17494526E+03</rscale>
<asrwt>0</asrwt>
<pdfrwt beam="1">  1        4 0.33693422E-01 0.17494526E+03</pdfrwt>
<pdfrwt beam="2">  1       -4 0.45809782E-01 0.17494526E+03</pdfrwt>
<totfact> 0.68843555E+01</totfact>
</mgrwt>
</event>
<event>
 4    1  0.1790407E+000  0.2036786E+03  0.7546771E-02  0.1146672E+00
         -2   -1    0    0    0  501 -0.00000000000E+00  0.00000000000E+00  0.31334754242E+02  0.31334754242E+02  0.00000000000E+00 0.  1.
          2   -1    0    0  502    0  0.00000000000E+00 -0.00000000000E+00 -0.15383983033E+04  0.15383983033E+04  0.00000000000E+00 0. -1.
          6    1    1    2  502    0  0.10704685681E+03 -0.98449313740E+01 -0.10465841179E+04  0.10662191464E+04  0.17300000000E+03 0. -1.
         -6    1    1    2    0  501 -0.10704685681E+03  0.98449313740E+01 -0.46047943109E+03  0.50351391111E+03  0.17300000000E+03 0.  1.
<mgrwt>
<rscale>  2 0.20367855E+03</rscale>
<asrwt>0</asrwt>
<pdfrwt beam="1">  1        2 0.23667667E+00 0.20367855E+03</pdfrwt>
<pdfrwt beam="2">  1       -2 0.48207312E-02 0.20367855E+03</pdfrwt>
<totfact> 0.26931619E+03</totfact>
</mgrwt>
</event>
<event>
 4    1  0.1790407E+000  0.2708585E+03  0.7546771E-02  0.1100789E+00
          2   -1    0    0  502    0  0.00000000000E+00  0.00000000000E+00  0.31947843324E+03  0.31947843324E+03  0.00000000000E+00 0.  1.
         -2   -1    0    0    0  501 -0.00000000000E+00 -0.00000000000E+00 -0.23093259155E+03  0.23093259155E+03  0.00000000000E+00 0. -1.
          6    1    1    2  502    0 -0.66384014128E+02  0.19755630514E+03  0.23666097790E+02  0.27189044709E+03  0.17300000000E+03 0.  1.
         -6    1    1    2    0  501  0.66384014128E+02 -0.19755630514E+03  0.64879743905E+02  0.27852057770E+03  0.17300000000E+03 0. -1.
<mgrwt>
<rscale>  2 0.27085851E+03</rscale>
<asrwt>0</asrwt>
<pdfrwt beam="1">  1        2 0.49150528E-01 0.27085851E+03</pdfrwt>
<pdfrwt beam="2">  1       -2 0.35528091E-01 0.27085851E+03</pdfrwt>
<totfact> 0.76440122E+02</totfact>
</mgrwt>
</event>
<event>
 4    1  0.1790407E+000  0.1918553E+03  0.7546771E-02  0.1156799E+00
          1   -1    0    0  502    0  0.00000000000E+00  0.00000000000E+00  0.22755905291E+03  0.22755905291E+03  0.00000000000E+00 0.  1.
         -1   -1    0    0    0  501 -0.00000000000E+00 -0.00000000000E+00 -0.17621678676E+03  0.17621678676E+03  0.00000000000E+00 0. -1.
          6    1    1    2  502    0  0.78298447721E+02 -0.27364639705E+02  0.83510080449E+02  0.20924245257E+03  0.17300000000E+03 0.  1.
         -6    1    1    2    0  501 -0.78298447721E+02  0.27364639705E+02 -0.32167814298E+02  0.19453338710E+03  0.17300000000E+03 0. -1.
<mgrwt>
<rscale>  2 0.19185534E+03</rscale>
<asrwt>0</asrwt>
<pdfrwt beam="1">  1        1 0.35009085E-01 0.19185534E+03</pdfrwt>
<pdfrwt beam="2">  1       -1 0.27110275E-01 0.19185534E+03</pdfrwt>
<totfact> 0.14990738E+03</totfact>
</mgrwt>
</event>
<event>
 4    1  0.1790407E+000  0.1730698E+03  0.7546771E-02  0.1174684E+00
         -2   -1    0    0    0  501 -0.00000000000E+00  0.00000000000E+00  0.44689988349E+03  0.44689988349E+03  0.00000000000E+00 0.  1.
          2   -1    0    0  502    0  0.00000000000E+00 -0.00000000000E+00 -0.71187643955E+02  0.71187643955E+02  0.00000000000E+00 0. -1.
          6    1    1    2  502    0 -0.15450760127E+01 -0.46640065411E+01  0.25050211835E+03  0.30447405721E+03  0.17300000000E+03 0.  1.
         -6    1    1    2    0  501  0.15450760127E+01  0.46640065411E+01  0.12521012118E+03  0.21361347023E+03  0.17300000000E+03 0. -1.
<mgrwt>
<rscale>  2 0.17306976E+03</rscale>
<asrwt>0</asrwt>
<pdfrwt beam="1">  1        2 0.10951945E-01 0.17306976E+03</pdfrwt>
<pdfrwt beam="2">  1       -2 0.68753827E-01 0.17306976E+03</pdfrwt>
<totfact> 0.11167006E+03</totfact>
</mgrwt>
</event>
<event>
 4    1  0.1790407E+000  0.2674159E+03  0.7546771E-02  0.1102768E+00
          2   -1    0    0  502    0  0.00000000000E+00  0.00000000000E+00  0.28013978819E+03  0.28013978819E+03  0.00000000000E+00 0. -1.
         -2   -1    0    0    0  501 -0.00000000000E+00 -0.00000000000E+00 -0.31499030476E+03  0.31499030476E+03  0.00000000000E+00 0.  1.
          6    1    1    2  502    0  0.20263264423E+03 -0.22853007205E+02 -0.14699237299E+03  0.30515243103E+03  0.17300000000E+03 0. -1.
         -6    1    1    2    0  501 -0.20263264423E+03  0.22853007205E+02  0.11214185643E+03  0.28997766191E+03  0.17300000000E+03 0.  1.
<mgrwt>
<rscale>  2 0.26741587E+03</rscale>
<asrwt>0</asrwt>
<pdfrwt beam="1">  1        2 0.43098429E-01 0.26741587E+03</pdfrwt>
<pdfrwt beam="2">  1       -2 0.48460047E-01 0.26741587E+03</pdfrwt>
<totfact> 0.48384738E+02</totfact>
</mgrwt>
</event>
<event>
 4    1  0.1790407E+000  0.2777895E+03  0.7546771E-02  0.1096902E+00
         -1   -1    0    0    0  501 -0.00000000000E+00  0.00000000000E+00  0.10719533498E+04  0.10719533498E+04  0.00000000000E+00 0.  1.
          1   -1    0    0  502    0  0.00000000000E+00 -0.00000000000E+00 -0.72294090265E+02  0.72294090265E+02  0.00000000000E+00 0. -1.
          6    1    1    2  502    0 -0.13653906094E+03 -0.16910086580E+03  0.46255910130E+03  0.53956273052E+03  0.17300000000E+03 0.  1.
         -6    1    1    2    0  501  0.13653906094E+03  0.16910086580E+03  0.53710015822E+03  0.60468470953E+03  0.17300000000E+03 0. -1.
<mgrwt>
<rscale>  2 0.27778952E+03</rscale>
<asrwt>0</asrwt>
<pdfrwt beam="1">  1        1 0.11122168E-01 0.27778952E+03</pdfrwt>
<pdfrwt beam="2">  1       -1 0.16491589E+00 0.27778952E+03</pdfrwt>
<totfact> 0.16297739E+02</totfact>
</mgrwt>
</event>
<event>
 4    1  0.1790407E+000  0.3491519E+03  0.7546771E-02  0.1062964E+00
         -1   -1    0    0    0  501 -0.00000000000E+00  0.00000000000E+00  0.91586602676E+02  0.91586602676E+02  0.00000000000E+00 0.  1.
          1   -1    0    0  502    0  0.00000000000E+00 -0.00000000000E+00 -0.13416133424E+04  0.13416133424E+04  0.00000000000E+00 0. -1.
          6    1    1    2  502    0  0.12215293524E+03  0.27759093556E+03 -0.68857605064E+03  0.77203888801E+03  0.17300000000E+03 0. -1.
         -6    1    1    2    0  501 -0.12215293524E+03 -0.27759093556E+03 -0.56145068904E+03  0.66116105701E+03  0.17300000000E+03 0.  1.
<mgrwt>
<rscale>  2 0.34915193E+03</rscale>
<asrwt>0</asrwt>
<pdfrwt beam="1">  1        1 0.20640204E+00 0.34915193E+03</pdfrwt>
<pdfrwt beam="2">  1       -1 0.14090247E-01 0.34915193E+03</pdfrwt>
<totfact> 0.32289473E+02</totfact>
</mgrwt>
</event>
<event>
 4    1  0.1790407E+000  0.2510330E+03  0.7546771E-02  0.1112654E+00
         -2   -1    0    0    0  501 -0.00000000000E+00  0.00000000000E+00  0.24681217930E+02  0.24681217930E+02  0.00000000000E+00 0.  1.
          2   -1    0    0  502    0  0.00000000000E+00 -0.00000000000E+00 -0.26921317167E+04  0.26921317167E+04  0.00000000000E+00 0. -1.
          6    1    1    2  502    0 -0.11604482704E+03 -0.14007912947E+03 -0.10252014840E+04  0.10554883454E+04  0.17300000000E+03 0.  1.
         -6    1    1    2    0  501  0.11604482704E+03  0.14007912947E+03 -0.16422490148E+04  0.16613245893E+04  0.17300000000E+03 0. -1.
<mgrwt>
<rscale>  2 0.25103299E+03</rscale>
<asrwt>0</asrwt>
<pdfrwt beam="1">  1        2 0.41417417E+00 0.25103299E+03</pdfrwt>
<pdfrwt beam="2">  1       -2 0.37971099E-02 0.25103299E+03</pdfrwt>
<totfact> 0.93582451E+02</totfact>
</mgrwt>
</event>
<event>
 4    1  0.1790407E+000  0.2086706E+03  0.7546771E-02  0.1142623E+00
         -2   -1    0    0    0  501 -0.00000000000E+00  0.00000000000E+00  0.51460899947E+02  0.51460899947E+02  0.00000000000E+00 0. -1.
          2   -1    0    0  502    0  0.00000000000E+00 -0.00000000000E+00 -0.90233331718E+03  0.90233331718E+03  0.00000000000E+00 0.  1.
          6    1    1    2  502    0 -0.10653066598E+03 -0.47598500665E+02 -0.54444058645E+03  0.58305999026E+03  0.17300000000E+03 0.  1.
         -6    1    1    2    0  501  0.10653066598E+03  0.47598500665E+02 -0.30643183078E+03  0.37073422687E+03  0.17300000000E+03 0. -1.
<mgrwt>
<rscale>  2 0.20867055E+03</rscale>
<asrwt>0</asrwt>
<pdfrwt beam="1">  1        2 0.13882052E+00 0.20867055E+03</pdfrwt>
<pdfrwt beam="2">  1       -2 0.79170609E-02 0.20867055E+03</pdfrwt>
<totfact> 0.28909188E+03</totfact>
</mgrwt>
</event>
<event>
 4    1  0.1790407E+000  0.2373799E+03  0.7546771E-02  0.1121551E+00
          2   -1    0    0  502    0  0.00000000000E+00  0.00000000000E+00  0.33325021092E+03  0.33325021092E+03  0.00000000000E+00 0.  1.
         -2   -1    0    0    0  501 -0.00000000000E+00 -0.00000000000E+00 -0.18884733834E+03  0.18884733834E+03  0.00000000000E+00 0. -1.
          6    1    1    2  502    0 -0.14819581944E+03  0.66769822440E+02  0.15663841567E+03  0.28440253753E+03  0.17300000000E+03 0.  1.
         -6    1    1    2    0  501  0.14819581944E+03 -0.66769822440E+02 -0.12235543087E+02  0.23769501174E+03  0.17300000000E+03 0. -1.
<mgrwt>
<rscale>  2 0.23737989E+03</rscale>
<asrwt>0</asrwt>
<pdfrwt beam="1">  1        2 0.51269263E-01 0.23737989E+03</pdfrwt>
<pdfrwt beam="2">  1       -2 0.29053437E-01 0.23737989E+03</pdfrwt>
<totfact> 0.10566881E+03</totfact>
</mgrwt>
</event>
<event>
 4    1  0.1790407E+000  0.2245015E+03  0.7546771E-02  0.1130571E+00
          2   -1    0    0  502    0  0.00000000000E+00  0.00000000000E+00  0.81188391926E+03  0.81188391926E+03  0.00000000000E+00 0. -1.
         -2   -1    0    0    0  501 -0.00000000000E+00 -0.00000000000E+00 -0.82330551555E+02  0.82330551555E+02  0.00000000000E+00 0.  1.
          6    1    1    2  502    0  0.10516966452E+03 -0.97011682111E+02  0.14302824995E+03  0.26619166982E+03  0.17300000000E+03 0.  1.
         -6    1    1    2    0  501 -0.10516966452E+03  0.97011682111E+02  0.58652511776E+03  0.62802280099E+03  0.17300000000E+03 0. -1.
<mgrwt>
<rscale>  2 0.22450150E+03</rscale>
<asrwt>0</asrwt>
<pdfrwt beam="1">  1        2 0.12490521E+00 0.22450150E+03</pdfrwt>
<pdfrwt beam="2">  1       -2 0.12666239E-01 0.22450150E+03</pdfrwt>
<totfact> 0.15735399E+03</totfact>
</mgrwt>
</event>
<event>
 4    1  0.1790407E+000  0.2444819E+03  0.7546771E-02  0.1116843E+00
         -1   -1    0    0    0  501 -0.00000000000E+00  0.00000000000E+00  0.41205070822E+02  0.41205070822E+02  0.00000000000E+00 0. -1.
          1   -1    0    0  502    0  0.00000000000E+00 -0.00000000000E+00 -0.15105137094E+04  0.15105137094E+04  0.00000000000E+00 0.  1.
          6    1    1    2  502    0  0.14611553247E+03  0.92155494769E+02 -0.88919564056E+03  0.92219318542E+03  0.17300000000E+03 0.  1.
         -6    1    1    2    0  501 -0.14611553247E+03 -0.92155494769E+02 -0.58011299805E+03  0.62952559483E+03  0.17300000000E+03 0. -1.
<mgrwt>
<rscale>  2 0.24448187E+03</rscale>
<asrwt>0</asrwt>
<pdfrwt beam="1">  1        1 0.23238669E+00 0.24448187E+03</pdfrwt>
<pdfrwt beam="2">  1       -1 0.63392426E-02 0.24448187E+03</pdfrwt>
<totfact> 0.86796483E+02</totfact>
</mgrwt>
</event>
<event>
 4    1  0.1790407E+000  0.2707548E+03  0.7546771E-02  0.1100848E+00
          2   -1    0    0  502    0  0.00000000000E+00  0.00000000000E+00  0.11362926148E+04  0.11362926148E+04  0.00000000000E+00 0.  1.
         -2   -1    0    0    0  501 -0.00000000000E+00 -0.00000000000E+00 -0.73980829408E+02  0.73980829408E+02  0.00000000000E+00 0. -1.
          6    1    1    2  502    0 -0.20116033503E+03 -0.53978469224E+02  0.74761130655E+03  0.79512943677E+03  0.17300000000E+03 0.  1.
         -6    1    1    2    0  501  0.20116033503E+03  0.53978469224E+02  0.31470047881E+03  0.41514400742E+03  0.17300000000E+03 0. -1.
<mgrwt>
<rscale>  2 0.27075479E+03</rscale>
<asrwt>0</asrwt>
<pdfrwt beam="1">  1        2 0.17481424E+00 0.27075479E+03</pdfrwt>
<pdfrwt beam="2">  1       -2 0.11381667E-01 0.27075479E+03</pdfrwt>
<totfact> 0.11731953E+03</totfact>
</mgrwt>
</event>
<event>
 4    1  0.1790407E+000  0.2236008E+03  0.7546771E-02  0.1131227E+00
          2   -1    0    0  502    0  0.00000000000E+00  0.00000000000E+00  0.20690682770E+04  0.20690682770E+04  0.00000000000E+00 0. -1.
         -2   -1    0    0    0  501 -0.00000000000E+00 -0.00000000000E+00 -0.24173749022E+02  0.24173749022E+02  0.00000000000E+00 0.  1.
          6    1    1    2  502    0  0.85652015382E+02  0.11283639715E+03  0.10016144110E+04  0.10262693353E+04  0.17300000000E+03 0. -1.
         -6    1    1    2    0  501 -0.85652015382E+02 -0.11283639715E+03  0.10432801170E+04  0.10669726907E+04  0.17300000000E+03 0. -1.
<mgrwt>
<rscale>  2 0.22360081E+03</rscale>
<asrwt>0</asrwt>
<pdfrwt beam="1">  1        2 0.31831806E+00 0.22360081E+03</pdfrwt>
<pdfrwt beam="2">  1       -2 0.37190399E-02 0.22360081E+03</pdfrwt>
<totfact> 0.21014216E+03</totfact>
</mgrwt>
</event>
<event>
 4    1  0.1790407E+000  0.2472146E+03  0.7546771E-02  0.1115078E+00
         -2   -1    0    0    0  501 -0.00000000000E+00  0.00000000000E+00  0.92703810338E+02  0.92703810338E+02  0.00000000000E+00 0. -1.
          2   -1    0    0  502    0  0.00000000000E+00 -0.00000000000E+00 -0.70060566696E+03  0.70060566696E+03  0.00000000000E+00 0.  1.
          6    1    1    2  502    0 -0.11330255244E+03  0.13545696565E+03 -0.20758149191E+03  0.32280819958E+03  0.17300000000E+03 0.  1.
         -6    1    1    2    0  501  0.11330255244E+03 -0.13545696565E+03 -0.40032036471E+03  0.47050127772E+03  0.17300000000E+03 0. -1.
<mgrwt>
<rscale>  2 0.24721460E+03</rscale>
<asrwt>0</asrwt>
<pdfrwt beam="1">  1        2 0.10778549E+00 0.24721460E+03</pdfrwt>
<pdfrwt beam="2">  1       -2 0.14262125E-01 0.24721460E+03</pdfrwt>
<totfact> 0.15582325E+03</totfact>
</mgrwt>
</event>
<event>
 4    1  0.1790407E+000  0.1779204E+03  0.7546771E-02  0.1169831E+00
          1   -1    0    0  502    0  0.00000000000E+00  0.00000000000E+00  0.86957979132E+03  0.86957979132E+03  0.00000000000E+00 0. -1.
         -1   -1    0    0    0  501 -0.00000000000E+00 -0.00000000000E+00 -0.90819338087E+02  0.90819338087E+02  0.00000000000E+00 0.  1.
          6    1    1    2  502    0  0.44399044286E+01 -0.41315493714E+02  0.17677663294E+02  0.17879648361E+03  0.17300000000E+03 0.  1.
         -6    1    1    2    0  501 -0.44399044286E+01  0.41315493714E+02  0.76108278994E+03  0.78160264579E+03  0.17300000000E+03 0. -1.
<mgrwt>
<rscale>  2 0.17792044E+03</rscale>
<asrwt>0</asrwt>
<pdfrwt beam="1">  1        1 0.13378150E+00 0.17792044E+03</pdfrwt>
<pdfrwt beam="2">  1       -1 0.13972206E-01 0.17792044E+03</pdfrwt>
<totfact> 0.73286465E+02</totfact>
</mgrwt>
</event>
<event>
 4    1  0.1790407E+000  0.3944798E+03  0.7546771E-02  0.1045708E+00
         -2   -1    0    0    0  501 -0.00000000000E+00  0.00000000000E+00  0.17335894577E+03  0.17335894577E+03  0.00000000000E+00 0.  1.
          2   -1    0    0  502    0  0.00000000000E+00 -0.00000000000E+00 -0.89764479741E+03  0.89764479741E+03  0.00000000000E+00 0. -1.
          6    1    1    2  502    0  0.15838403102E+03 -0.31717477009E+03 -0.36126349335E+03  0.53490713931E+03  0.17300000000E+03 0.  1.
         -6    1    1    2    0  501 -0.15838403102E+03  0.31717477009E+03 -0.36302235829E+03  0.53609660387E+03  0.17300000000E+03 0. -1.
<mgrwt>
<rscale>  2 0.39447983E+03</rscale>
<asrwt>0</asrwt>
<pdfrwt beam="1">  1        2 0.13809920E+00 0.39447983E+03</pdfrwt>
<pdfrwt beam="2">  1       -2 0.26670607E-01 0.39447983E+03</pdfrwt>
<totfact> 0.38467186E+02</totfact>
</mgrwt>
</event>
<event>
 4    1  0.1790407E+000  0.1930265E+03  0.7546771E-02  0.1155760E+00
          2   -1    0    0  502    0  0.00000000000E+00  0.00000000000E+00  0.82825789240E+03  0.82825789240E+03  0.00000000000E+00 0. -1.
         -2   -1    0    0    0  501 -0.00000000000E+00 -0.00000000000E+00 -0.46188946280E+02  0.46188946280E+02  0.00000000000E+00 0.  1.
          6    1    1    2  502    0  0.64585050192E+01  0.85372784948E+02  0.32044686087E+03  0.37409278974E+03  0.17300000000E+03 0. -1.
         -6    1    1    2    0  501 -0.64585050192E+01 -0.85372784948E+02  0.46162208524E+03  0.50035404893E+03  0.17300000000E+03 0. -1.
<mgrwt>
<rscale>  2 0.19302649E+03</rscale>
<asrwt>0</asrwt>
<pdfrwt beam="1">  1        2 0.12742428E+00 0.19302649E+03</pdfrwt>
<pdfrwt beam="2">  1       -2 0.71059923E-02 0.19302649E+03</pdfrwt>
<totfact> 0.38162754E+03</totfact>
</mgrwt>
</event>
<event>
 4    1  0.1790407E+000  0.2155247E+03  0.7546771E-02  0.1137264E+00
          1   -1    0    0  502    0  0.00000000000E+00  0.00000000000E+00  0.23230611389E+04  0.23230611389E+04  0.00000000000E+00 0. -1.
         -1   -1    0    0    0  501 -0.00000000000E+00 -0.00000000000E+00 -0.26917867997E+02  0.26917867997E+02  0.00000000000E+00 0.  1.
          6    1    1    2  502    0  0.12589852289E+03 -0.25912569184E+02  0.17439247851E+04  0.17571922363E+04  0.17300000000E+03 0. -1.
         -6    1    1    2    0  501 -0.12589852289E+03  0.25912569184E+02  0.55221848583E+03  0.59278677060E+03  0.17300000000E+03 0.  1.
<mgrwt>
<rscale>  2 0.21552471E+03</rscale>
<asrwt>0</asrwt>
<pdfrwt beam="1">  1        1 0.35739386E+00 0.21552471E+03</pdfrwt>
<pdfrwt beam="2">  1       -1 0.41412123E-02 0.21552471E+03</pdfrwt>
<totfact> 0.48942096E+02</totfact>
</mgrwt>
</event>
<event>
 4    1  0.1790407E+000  0.2060092E+03  0.7546771E-02  0.1144766E+00
         -3   -1    0    0    0  501 -0.00000000000E+00  0.00000000000E+00  0.18410938613E+03  0.18410938613E+03  0.00000000000E+00 0. -1.
          3   -1    0    0  502    0  0.00000000000E+00 -0.00000000000E+00 -0.23533851847E+03  0.23533851847E+03  0.00000000000E+00 0.  1.
          6    1    1    2  502    0  0.94469420043E+02 -0.59885806063E+02  0.44137474596E+01  0.20605645406E+03  0.17300000000E+03 0. -1.
         -6    1    1    2    0  501 -0.94469420043E+02  0.59885806063E+02 -0.55642879804E+02  0.21339145054E+03  0.17300000000E+03 0.  1.
<mgrwt>
<rscale>  2 0.20600918E+03</rscale>
<asrwt>0</asrwt>
<pdfrwt beam="1">  1        3 0.36205926E-01 0.20600918E+03</pdfrwt>
<pdfrwt beam="2">  1       -3 0.28324521E-01 0.20600918E+03</pdfrwt>
<totfact> 0.22025635E+02</totfact>
</mgrwt>
</event>
<event>
 4    1  0.1790407E+000  0.2109056E+03  0.7546771E-02  0.1140851E+00
          1   -1    0    0  502    0  0.00000000000E+00  0.00000000000E+00  0.26691313144E+04  0.26691313144E+04  0.00000000000E+00 0.  1.
         -1   -1    0    0    0  501 -0.00000000000E+00 -0.00000000000E+00 -0.29132904713E+02  0.29132904713E+02  0.00000000000E+00 0. -1.
          6    1    1    2  502    0  0.11187896739E+03 -0.45113825581E+02  0.43740971295E+03  0.48560108894E+03  0.17300000000E+03 0. -1.
         -6    1    1    2    0  501 -0.11187896739E+03  0.45113825581E+02  0.22025886968E+04  0.22126631302E+04  0.17300000000E+03 0.  1.
<mgrwt>
<rscale>  2 0.21090557E+03</rscale>
<asrwt>0</asrwt>
<pdfrwt beam="1">  1        1 0.41063539E+00 0.21090557E+03</pdfrwt>
<pdfrwt beam="2">  1       -1 0.44819875E-02 0.21090557E+03</pdfrwt>
<totfact> 0.25720240E+02</totfact>
</mgrwt>
</event>
<event>
 4    1  0.1790407E+000  0.2383591E+03  0.7546771E-02  0.1120891E+00
         -2   -1    0    0    0  501 -0.00000000000E+00  0.00000000000E+00  0.48318801180E+02  0.48318801180E+02  0.00000000000E+00 0. -1.
          2   -1    0    0  502    0  0.00000000000E+00 -0.00000000000E+00 -0.12231572085E+04  0.12231572085E+04  0.00000000000E+00 0.  1.
          6    1    1    2  502    0  0.16235137739E+03 -0.22980697221E+02 -0.46237723436E+03  0.52019975878E+03  0.17300000000E+03 0.  1.
         -6    1    1    2    0  501 -0.16235137739E+03  0.22980697221E+02 -0.71246117292E+03  0.75127625086E+03  0.17300000000E+03 0. -1.
<mgrwt>
<rscale>  2 0.23835915E+03</rscale>
<asrwt>0</asrwt>
<pdfrwt beam="1">  1        2 0.18817802E+00 0.23835915E+03</pdfrwt>
<pdfrwt beam="2">  1       -2 0.74336621E-02 0.23835915E+03</pdfrwt>
<totfact> 0.20557239E+03</totfact>
</mgrwt>
</event>
<event>
 4    1  0.1790407E+000  0.2400252E+03  0.7546771E-02  0.1119776E+00
          2   -1    0    0  502    0  0.00000000000E+00  0.00000000000E+00  0.10713456363E+04  0.10713456363E+04  0.00000000000E+00 0.  1.
         -2   -1    0    0    0  501 -0.00000000000E+00 -0.00000000000E+00 -0.10387255281E+03  0.10387255281E+03  0.00000000000E+00 0. -1.
          6    1    1    2  502    0  0.11648005830E+03 -0.11880869869E+03  0.75657451660E+02  0.25166676550E+03  0.17300000000E+03 0. -1.
         -6    1    1    2    0  501 -0.11648005830E+03  0.11880869869E+03  0.89181563183E+03  0.92355142360E+03  0.17300000000E+03 0.  1.
<mgrwt>
<rscale>  2 0.24002523E+03</rscale>
<asrwt>0</asrwt>
<pdfrwt beam="1">  1        2 0.16482240E+00 0.24002523E+03</pdfrwt>
<pdfrwt beam="2">  1       -2 0.15980394E-01 0.24002523E+03</pdfrwt>
<totfact> 0.73557657E+02</totfact>
</mgrwt>
</event>
<event>
 4    1  0.1790407E+000  0.1798193E+03  0.7546771E-02  0.1167978E+00
         -2   -1    0    0    0  501 -0.00000000000E+00  0.00000000000E+00  0.42197115891E+02  0.42197115891E+02  0.00000000000E+00 0.  1.
          2   -1    0    0  502    0  0.00000000000E+00 -0.00000000000E+00 -0.10771463186E+04  0.10771463186E+04  0.00000000000E+00 0. -1.
          6    1    1    2  502    0  0.48989026320E+02  0.24639466402E+01 -0.81813740540E+03  0.83766569098E+03  0.17300000000E+03 0. -1.
         -6    1    1    2    0  501 -0.48989026320E+02 -0.24639466402E+01 -0.21681179729E+03  0.28167774349E+03  0.17300000000E+03 0.  1.
<mgrwt>
<rscale>  2 0.17981934E+03</rscale>
<asrwt>0</asrwt>
<pdfrwt beam="1">  1        2 0.16571479E+00 0.17981934E+03</pdfrwt>
<pdfrwt beam="2">  1       -2 0.64918652E-02 0.17981934E+03</pdfrwt>
<totfact> 0.30643223E+03</totfact>
</mgrwt>
</event>
<event>
 4    1  0.1790407E+000  0.1816750E+03  0.7546771E-02  0.1166192E+00
          2   -1    0    0  502    0  0.00000000000E+00  0.00000000000E+00  0.14621212743E+03  0.14621212743E+03  0.00000000000E+00 0. -1.
         -2   -1    0    0    0  501 -0.00000000000E+00 -0.00000000000E+00 -0.22847164172E+03  0.22847164172E+03  0.00000000000E+00 0.  1.
          6    1    1    2  502    0  0.17072396050E+02 -0.52776360935E+02 -0.61617444380E+02  0.19183983015E+03  0.17300000000E+03 0.  1.
         -6    1    1    2    0  501 -0.17072396050E+02  0.52776360935E+02 -0.20642069910E+02  0.18284393900E+03  0.17300000000E+03 0. -1.
<mgrwt>
<rscale>  2 0.18167501E+03</rscale>
<asrwt>0</asrwt>
<pdfrwt beam="1">  1        2 0.22494173E-01 0.18167501E+03</pdfrwt>
<pdfrwt beam="2">  1       -2 0.35149483E-01 0.18167501E+03</pdfrwt>
<totfact> 0.18200174E+03</totfact>
</mgrwt>
</event>
<event>
 4    1  0.1790407E+000  0.1857808E+03  0.7546771E-02  0.1162323E+00
          2   -1    0    0  502    0  0.00000000000E+00  0.00000000000E+00  0.16583430606E+04  0.16583430606E+04  0.00000000000E+00 0. -1.
         -2   -1    0    0    0  501 -0.00000000000E+00 -0.00000000000E+00 -0.21433158110E+02  0.21433158110E+02  0.00000000000E+00 0.  1.
          6    1    1    2  502    0  0.42646975508E+02 -0.52599664677E+02  0.96136318149E+03  0.97914945538E+03  0.17300000000E+03 0. -1.
         -6    1    1    2    0  501 -0.42646975508E+02  0.52599664677E+02  0.67554672104E+03  0.70062676337E+03  0.17300000000E+03 0.  1.
<mgrwt>
<rscale>  2 0.18578076E+03</rscale>
<asrwt>0</asrwt>
<pdfrwt beam="1">  1        2 0.25512960E+00 0.18578076E+03</pdfrwt>
<pdfrwt beam="2">  1       -2 0.32974102E-02 0.18578076E+03</pdfrwt>
<totfact> 0.41157419E+03</totfact>
</mgrwt>
</event>
<event>
 4    1  0.1790407E+000  0.2159545E+03  0.7546771E-02  0.1136936E+00
         -1   -1    0    0    0  501 -0.00000000000E+00  0.00000000000E+00  0.29156515564E+03  0.29156515564E+03  0.00000000000E+00 0. -1.
          1   -1    0    0  502    0  0.00000000000E+00 -0.00000000000E+00 -0.18816276163E+03  0.18816276163E+03  0.00000000000E+00 0.  1.
          6    1    1    2  502    0  0.60275850415E+02 -0.11434234158E+03 -0.41175698417E+02  0.21984491661E+03  0.17300000000E+03 0.  1.
         -6    1    1    2    0  501 -0.60275850415E+02  0.11434234158E+03  0.14457809243E+03  0.25988300066E+03  0.17300000000E+03 0. -1.
<mgrwt>
<rscale>  2 0.21595451E+03</rscale>
<asrwt>0</asrwt>
<pdfrwt beam="1">  1        1 0.28948117E-01 0.21595451E+03</pdfrwt>
<pdfrwt beam="2">  1       -1 0.44856178E-01 0.21595451E+03</pdfrwt>
<totfact> 0.79593805E+02</totfact>
</mgrwt>
</event>
<event>
 4    1  0.1790407E+000  0.1773257E+03  0.7546771E-02  0.1170417E+00
         -3   -1    0    0    0  501 -0.00000000000E+00  0.00000000000E+00  0.54347036289E+04  0.54347036289E+04  0.00000000000E+00 0. -1.
          3   -1    0    0  502    0  0.00000000000E+00 -0.00000000000E+00 -0.58569440990E+01  0.58569440990E+01  0.00000000000E+00 0.  1.
          6    1    1    2  502    0  0.26570917418E+02  0.28449476537E+02  0.24147201918E+04  0.24212224167E+04  0.17300000000E+03 0.  1.
         -6    1    1    2    0  501 -0.26570917418E+02 -0.28449476537E+02  0.30141264929E+04  0.30193381562E+04  0.17300000000E+03 0.  1.
<mgrwt>
<rscale>  2 0.17732565E+03</rscale>
<asrwt>0</asrwt>
<pdfrwt beam="1">  1        3 0.90107267E-03 0.17732565E+03</pdfrwt>
<pdfrwt beam="2">  1       -3 0.83610422E+00 0.17732565E+03</pdfrwt>
<totfact> 0.24160976E-01</totfact>
</mgrwt>
</event>
<event>
 4    1  0.1790407E+000  0.1781900E+03  0.7546771E-02  0.1169566E+00
          2   -1    0    0  502    0  0.00000000000E+00  0.00000000000E+00  0.10157914538E+04  0.10157914538E+04  0.00000000000E+00 0.  1.
         -2   -1    0    0    0  501 -0.00000000000E+00 -0.00000000000E+00 -0.38032990132E+02  0.38032990132E+02  0.00000000000E+00 0. -1.
          6    1    1    2  502    0  0.42337706974E+02  0.54961494414E+01  0.71126646505E+03  0.73324734803E+03  0.17300000000E+03 0.  1.
         -6    1    1    2    0  501 -0.42337706974E+02 -0.54961494414E+01  0.26649199864E+03  0.32057709592E+03  0.17300000000E+03 0. -1.
<mgrwt>
<rscale>  2 0.17819004E+03</rscale>
<asrwt>0</asrwt>
<pdfrwt beam="1">  1        2 0.15627559E+00 0.17819004E+03</pdfrwt>
<pdfrwt beam="2">  1       -2 0.58512300E-02 0.17819004E+03</pdfrwt>
<totfact> 0.39044692E+03</totfact>
</mgrwt>
</event>
<event>
 4    1  0.1790407E+000  0.2296247E+03  0.7546771E-02  0.1126904E+00
          1   -1    0    0  502    0  0.00000000000E+00  0.00000000000E+00  0.68732611195E+02  0.68732611195E+02  0.00000000000E+00 0.  1.
         -1   -1    0    0    0  501 -0.00000000000E+00 -0.00000000000E+00 -0.10666891882E+04  0.10666891882E+04  0.00000000000E+00 0. -1.
          6    1    1    2  502    0  0.46102633676E+02  0.14378118123E+03 -0.19813319455E+03  0.30328904314E+03  0.17300000000E+03 0.  1.
         -6    1    1    2    0  501 -0.46102633676E+02 -0.14378118123E+03 -0.79982338241E+03  0.83213275621E+03  0.17300000000E+03 0. -1.
<mgrwt>
<rscale>  2 0.22962465E+03</rscale>
<asrwt>0</asrwt>
<pdfrwt beam="1">  1        1 0.10574247E-01 0.22962465E+03</pdfrwt>
<pdfrwt beam="2">  1       -1 0.16410605E+00 0.22962465E+03</pdfrwt>
<totfact> 0.17758148E+02</totfact>
</mgrwt>
</event>
<event>
 4    1  0.1790407E+000  0.1749782E+03  0.7546771E-02  0.1172754E+00
          2   -1    0    0  502    0  0.00000000000E+00  0.00000000000E+00  0.37387716351E+03  0.37387716351E+03  0.00000000000E+00 0. -1.
         -2   -1    0    0    0  501 -0.00000000000E+00 -0.00000000000E+00 -0.12849279341E+03  0.12849279341E+03  0.00000000000E+00 0.  1.
          6    1    1    2  502    0  0.66830749846E+01  0.25371221249E+02 -0.28577971392E+02  0.17729653919E+03  0.17300000000E+03 0.  1.
         -6    1    1    2    0  501 -0.66830749846E+01 -0.25371221249E+02  0.27396234149E+03  0.32507341773E+03  0.17300000000E+03 0. -1.
<mgrwt>
<rscale>  2 0.17497818E+03</rscale>
<asrwt>0</asrwt>
<pdfrwt beam="1">  1        2 0.57519563E-01 0.17497818E+03</pdfrwt>
<pdfrwt beam="2">  1       -2 0.19768122E-01 0.17497818E+03</pdfrwt>
<totfact> 0.18215599E+03</totfact>
</mgrwt>
</event>
<event>
 4    1  0.1790407E+000  0.1983778E+03  0.7546771E-02  0.1151115E+00
         -2   -1    0    0    0  501 -0.00000000000E+00  0.00000000000E+00  0.32918325136E+03  0.32918325136E+03  0.00000000000E+00 0.  1.
          2   -1    0    0  502    0  0.00000000000E+00 -0.00000000000E+00 -0.13834146132E+03  0.13834146132E+03  0.00000000000E+00 0. -1.
          6    1    1    2  502    0  0.87202644363E+02  0.42666558641E+02  0.18157638007E+03  0.26893069406E+03  0.17300000000E+03 0.  1.
         -6    1    1    2    0  501 -0.87202644363E+02 -0.42666558641E+02  0.92654099748E+01  0.19859401862E+03  0.17300000000E+03 0. -1.
<mgrwt>
<rscale>  2 0.19837776E+03</rscale>
<asrwt>0</asrwt>
<pdfrwt beam="1">  1        2 0.21283302E-01 0.19837776E+03</pdfrwt>
<pdfrwt beam="2">  1       -2 0.50643577E-01 0.19837776E+03</pdfrwt>
<totfact> 0.96156430E+02</totfact>
</mgrwt>
</event>
<event>
 4    1  0.1790407E+000  0.2189206E+03  0.7546771E-02  0.1134690E+00
         -2   -1    0    0    0  501 -0.00000000000E+00  0.00000000000E+00  0.12764790343E+02  0.12764790343E+02  0.00000000000E+00 0. -1.
          2   -1    0    0  502    0  0.00000000000E+00 -0.00000000000E+00 -0.37638113230E+04  0.37638113230E+04  0.00000000000E+00 0.  1.
          6    1    1    2  502    0  0.39024164177E+02  0.12835236162E+03 -0.19691235919E+04  0.19812556458E+04  0.17300000000E+03 0.  1.
         -6    1    1    2    0  501 -0.39024164177E+02 -0.12835236162E+03 -0.17819229408E+04  0.17953204675E+04  0.17300000000E+03 0.  1.
<mgrwt>
<rscale>  2 0.21892057E+03</rscale>
<asrwt>0</asrwt>
<pdfrwt beam="1">  1        2 0.57904808E+00 0.21892057E+03</pdfrwt>
<pdfrwt beam="2">  1       -2 0.19638133E-02 0.21892057E+03</pdfrwt>
<totfact> 0.53948759E+02</totfact>
</mgrwt>
</event>
<event>
 4    1  0.1790407E+000  0.4128816E+03  0.7546771E-02  0.1039408E+00
         -1   -1    0    0    0  501 -0.00000000000E+00  0.00000000000E+00  0.16218086884E+03  0.16218086884E+03  0.00000000000E+00 0. -1.
          1   -1    0    0  502    0  0.00000000000E+00 -0.00000000000E+00 -0.10678927294E+04  0.10678927294E+04  0.00000000000E+00 0.  1.
          6    1    1    2  502    0 -0.25188509187E+03 -0.27766189530E+03 -0.52994011432E+03  0.67179442716E+03  0.17300000000E+03 0.  1.
         -6    1    1    2    0  501  0.25188509187E+03  0.27766189530E+03 -0.37577174628E+03  0.55827917112E+03  0.17300000000E+03 0. -1.
<mgrwt>
<rscale>  2 0.41288161E+03</rscale>
<asrwt>0</asrwt>
<pdfrwt beam="1">  1        1 0.16429119E+00 0.41288161E+03</pdfrwt>
<pdfrwt beam="2">  1       -1 0.24950903E-01 0.41288161E+03</pdfrwt>
<totfact> 0.19679026E+02</totfact>
</mgrwt>
</event>
<event>
 4    1  0.1790407E+000  0.4950426E+03  0.7546771E-02  0.1015081E+00
         -2   -1    0    0    0  501 -0.00000000000E+00  0.00000000000E+00  0.14517284219E+03  0.14517284219E+03  0.00000000000E+00 0.  1.
          2   -1    0    0  502    0  0.00000000000E+00 -0.00000000000E+00 -0.16928851948E+04  0.16928851948E+04  0.00000000000E+00 0. -1.
          6    1    1    2  502    0 -0.36065964084E+03  0.29165519564E+03 -0.82268743552E+03  0.96014673162E+03  0.17300000000E+03 0.  1.
         -6    1    1    2    0  501  0.36065964084E+03 -0.29165519564E+03 -0.72502491704E+03  0.87791130532E+03  0.17300000000E+03 0.  1.
<mgrwt>
<rscale>  2 0.49504255E+03</rscale>
<asrwt>0</asrwt>
<pdfrwt beam="1">  1        2 0.26044389E+00 0.49504255E+03</pdfrwt>
<pdfrwt beam="2">  1       -2 0.22334282E-01 0.49504255E+03</pdfrwt>
<totfact> 0.18154674E+02</totfact>
</mgrwt>
</event>
<event>
 4    1  0.1790407E+000  0.2181562E+03  0.7546771E-02  0.1135265E+00
         -1   -1    0    0    0  501 -0.00000000000E+00  0.00000000000E+00  0.18962924046E+03  0.18962924046E+03  0.00000000000E+00 0. -1.
          1   -1    0    0  502    0  0.00000000000E+00 -0.00000000000E+00 -0.46791641749E+03  0.46791641749E+03  0.00000000000E+00 0.  1.
          6    1    1    2  502    0  0.56005718486E+02 -0.12052594873E+03 -0.36300709278E+03  0.42351658082E+03  0.17300000000E+03 0.  1.
         -6    1    1    2    0  501 -0.56005718486E+02  0.12052594873E+03  0.84719915742E+02  0.23402907713E+03  0.17300000000E+03 0.  1.
<mgrwt>
<rscale>  2 0.21815624E+03</rscale>
<asrwt>0</asrwt>
<pdfrwt beam="1">  1        1 0.71987141E-01 0.21815624E+03</pdfrwt>
<pdfrwt beam="2">  1       -1 0.29173729E-01 0.21815624E+03</pdfrwt>
<totfact> 0.53266707E+02</totfact>
</mgrwt>
</event>
<event>
 4    1  0.1790407E+000  0.1774484E+03  0.7546771E-02  0.1170296E+00
          2   -1    0    0  502    0  0.00000000000E+00  0.00000000000E+00  0.53686636226E+03  0.53686636226E+03  0.00000000000E+00 0. -1.
         -2   -1    0    0    0  501 -0.00000000000E+00 -0.00000000000E+00 -0.14837255102E+03  0.14837255102E+03  0.00000000000E+00 0.  1.
          6    1    1    2  502    0  0.32909476493E+02  0.21815419866E+02 -0.72182856839E+02  0.19156803232E+03  0.17300000000E+03 0.  1.
         -6    1    1    2    0  501 -0.32909476493E+02 -0.21815419866E+02  0.46067666809E+03  0.49367088096E+03  0.17300000000E+03 0. -1.
<mgrwt>
<rscale>  2 0.17744843E+03</rscale>
<asrwt>0</asrwt>
<pdfrwt beam="1">  1        2 0.82594824E-01 0.17744843E+03</pdfrwt>
<pdfrwt beam="2">  1       -2 0.22826547E-01 0.17744843E+03</pdfrwt>
<totfact> 0.95829032E+02</totfact>
</mgrwt>
</event>
<event>
 4    1  0.1790407E+000  0.2140908E+03  0.7546771E-02  0.1138367E+00
         -1   -1    0    0    0  501 -0.00000000000E+00  0.00000000000E+00  0.24640097893E+03  0.24640097893E+03  0.00000000000E+00 0.  1.
          1   -1    0    0  502    0  0.00000000000E+00 -0.00000000000E+00 -0.22265655374E+03  0.22265655374E+03  0.00000000000E+00 0. -1.
          6    1    1    2  502    0  0.12513364121E+03  0.15730947933E+02  0.10700945945E+03  0.23934476242E+03  0.17300000000E+03 0.  1.
         -6    1    1    2    0  501 -0.12513364121E+03 -0.15730947933E+02 -0.83265034266E+02  0.22971277025E+03  0.17300000000E+03 0. -1.
<mgrwt>
<rscale>  2 0.21409085E+03</rscale>
<asrwt>0</asrwt>
<pdfrwt beam="1">  1        1 0.34254854E-01 0.21409085E+03</pdfrwt>
<pdfrwt beam="2">  1       -1 0.37907843E-01 0.21409085E+03</pdfrwt>
<totfact> 0.86913760E+02</totfact>
</mgrwt>
</event>
<event>
 4    1  0.1790407E+000  0.2317048E+03  0.7546771E-02  0.1125446E+00
          1   -1    0    0  502    0  0.00000000000E+00  0.00000000000E+00  0.50874505813E+03  0.50874505813E+03  0.00000000000E+00 0.  1.
         -1   -1    0    0    0  501 -0.00000000000E+00 -0.00000000000E+00 -0.11247963401E+03  0.11247963401E+03  0.00000000000E+00 0. -1.
          6    1    1    2  502    0  0.99109178665E+01 -0.15381769303E+03  0.27534905372E+03  0.35986693425E+03  0.17300000000E+03 0.  1.
         -6    1    1    2    0  501 -0.99109178665E+01  0.15381769303E+03  0.12091637040E+03  0.26135775789E+03  0.17300000000E+03 0.  1.
<mgrwt>
<rscale>  2 0.23170479E+03</rscale>
<asrwt>0</asrwt>
<pdfrwt beam="1">  1        1 0.78268469E-01 0.23170479E+03</pdfrwt>
<pdfrwt beam="2">  1       -1 0.17304559E-01 0.23170479E+03</pdfrwt>
<totfact> 0.11266194E+03</totfact>
</mgrwt>
</event>
<event>
 4    1  0.1790407E+000  0.2712706E+03  0.7546771E-02  0.1100555E+00
          2   -1    0    0  502    0  0.00000000000E+00  0.00000000000E+00  0.12135067677E+04  0.12135067677E+04  0.00000000000E+00 0. -1.
         -2   -1    0    0    0  501 -0.00000000000E+00 -0.00000000000E+00 -0.70348851317E+02  0.70348851317E+02  0.00000000000E+00 0.  1.
          6    1    1    2  502    0  0.20799794447E+03  0.19888898673E+02  0.33311135093E+03  0.42959386089E+03  0.17300000000E+03 0.  1.
         -6    1    1    2    0  501 -0.20799794447E+03 -0.19888898673E+02  0.81004656543E+03  0.85426175810E+03  0.17300000000E+03 0. -1.
<mgrwt>
<rscale>  2 0.27127055E+03</rscale>
<asrwt>0</asrwt>
<pdfrwt beam="1">  1        2 0.18669333E+00 0.27127055E+03</pdfrwt>
<pdfrwt beam="2">  1       -2 0.10822901E-01 0.27127055E+03</pdfrwt>
<totfact> 0.11487126E+03</totfact>
</mgrwt>
</event>
<event>
 4    1  0.1790407E+000  0.2013179E+03  0.7546771E-02  0.1148632E+00
         -1   -1    0    0    0  501 -0.00000000000E+00  0.00000000000E+00  0.17216199091E+03  0.17216199091E+03  0.00000000000E+00 0.  1.
          1   -1    0    0  502    0  0.00000000000E+00 -0.00000000000E+00 -0.28485417397E+03  0.28485417397E+03  0.00000000000E+00 0. -1.
          6    1    1    2  502    0 -0.59363184886E+02  0.84118362494E+02  0.38854995619E+02  0.20503316150E+03  0.17300000000E+03 0.  1.
         -6    1    1    2    0  501  0.59363184886E+02 -0.84118362494E+02 -0.15154717868E+03  0.25198300339E+03  0.17300000000E+03 0. -1.
<mgrwt>
<rscale>  2 0.20131787E+03</rscale>
<asrwt>0</asrwt>
<pdfrwt beam="1">  1        1 0.43823719E-01 0.20131787E+03</pdfrwt>
<pdfrwt beam="2">  1       -1 0.26486460E-01 0.20131787E+03</pdfrwt>
<totfact> 0.11780131E+03</totfact>
</mgrwt>
</event>
<event>
 4    1  0.1790407E+000  0.1831482E+03  0.7546771E-02  0.1164791E+00
         -2   -1    0    0    0  501 -0.00000000000E+00  0.00000000000E+00  0.57651458113E+02  0.57651458113E+02  0.00000000000E+00 0.  1.
          2   -1    0    0  502    0  0.00000000000E+00 -0.00000000000E+00 -0.59989940940E+03  0.59989940940E+03  0.00000000000E+00 0. -1.
          6    1    1    2  502    0  0.38664837868E+02  0.46035728039E+02 -0.21406146628E+03  0.28171895443E+03  0.17300000000E+03 0. -1.
         -6    1    1    2    0  501 -0.38664837868E+02 -0.46035728039E+02 -0.32818648501E+03  0.37583191308E+03  0.17300000000E+03 0. -1.
<mgrwt>
<rscale>  2 0.18314819E+03</rscale>
<asrwt>0</asrwt>
<pdfrwt beam="1">  1        2 0.92292220E-01 0.18314819E+03</pdfrwt>
<pdfrwt beam="2">  1       -2 0.88694548E-02 0.18314819E+03</pdfrwt>
<totfact> 0.39850239E+03</totfact>
</mgrwt>
</event>
<event>
 4    1  0.1790407E+000  0.1829431E+03  0.7546771E-02  0.1164985E+00
          2   -1    0    0  502    0  0.00000000000E+00  0.00000000000E+00  0.24951229182E+04  0.24951229182E+04  0.00000000000E+00 0. -1.
         -2   -1    0    0    0  501 -0.00000000000E+00 -0.00000000000E+00 -0.13549260744E+02  0.13549260744E+02  0.00000000000E+00 0.  1.
          6    1    1    2  502    0  0.35403523088E+02 -0.47809645010E+02  0.13663740781E+04  0.13785667531E+04  0.17300000000E+03 0.  1.
         -6    1    1    2    0  501 -0.35403523088E+02  0.47809645010E+02  0.11151995794E+04  0.11301054259E+04  0.17300000000E+03 0. -1.
<mgrwt>
<rscale>  2 0.18294308E+03</rscale>
<asrwt>0</asrwt>
<pdfrwt beam="1">  1        2 0.38386470E+00 0.18294308E+03</pdfrwt>
<pdfrwt beam="2">  1       -2 0.20845036E-02 0.18294308E+03</pdfrwt>
<totfact> 0.29517946E+03</totfact>
</mgrwt>
</event>
<event>
 4    1  0.1790407E+000  0.1788043E+03  0.7546771E-02  0.1168965E+00
         -1   -1    0    0    0  501 -0.00000000000E+00  0.00000000000E+00  0.22050845783E+03  0.22050845783E+03  0.00000000000E+00 0. -1.
          1   -1    0    0  502    0  0.00000000000E+00 -0.00000000000E+00 -0.15274500979E+03  0.15274500979E+03  0.00000000000E+00 0.  1.
          6    1    1    2  502    0 -0.12665084598E+02  0.43377184626E+02  0.75939825796E+02  0.19426230117E+03  0.17300000000E+03 0. -1.
         -6    1    1    2    0  501  0.12665084598E+02 -0.43377184626E+02 -0.81763777550E+01  0.17899116645E+03  0.17300000000E+03 0.  1.
<mgrwt>
<rscale>  2 0.17880432E+03</rscale>
<asrwt>0</asrwt>
<pdfrwt beam="1">  1        1 0.23499232E-01 0.17880432E+03</pdfrwt>
<pdfrwt beam="2">  1       -1 0.33924378E-01 0.17880432E+03</pdfrwt>
<totfact> 0.16895683E+03</totfact>
</mgrwt>
</event>
<event>
 4    1  0.1790407E+000  0.1877434E+03  0.7546771E-02  0.1160512E+00
          2   -1    0    0  502    0  0.00000000000E+00  0.00000000000E+00  0.34417179442E+03  0.34417179442E+03  0.00000000000E+00 0. -1.
         -2   -1    0    0    0  501 -0.00000000000E+00 -0.00000000000E+00 -0.10321317627E+03  0.10321317627E+03  0.00000000000E+00 0.  1.
          6    1    1    2  502    0 -0.14649662396E+02 -0.71442199281E+02  0.10078102818E+03  0.21308312014E+03  0.17300000000E+03 0.  1.
         -6    1    1    2    0  501  0.14649662396E+02  0.71442199281E+02  0.14017758997E+03  0.23430185056E+03  0.17300000000E+03 0. -1.
<mgrwt>
<rscale>  2 0.18774344E+03</rscale>
<asrwt>0</asrwt>
<pdfrwt beam="1">  1        2 0.52949506E-01 0.18774344E+03</pdfrwt>
<pdfrwt beam="2">  1       -2 0.15878950E-01 0.18774344E+03</pdfrwt>
<totfact> 0.28814143E+03</totfact>
</mgrwt>
</event>
<event>
 4    1  0.1790407E+000  0.2875001E+03  0.7546771E-02  0.1091662E+00
         -2   -1    0    0    0  501 -0.00000000000E+00  0.00000000000E+00  0.52004901841E+02  0.52004901841E+02  0.00000000000E+00 0.  1.
          2   -1    0    0  502    0  0.00000000000E+00 -0.00000000000E+00 -0.15897302515E+04  0.15897302515E+04  0.00000000000E+00 0. -1.
          6    1    1    2  502    0 -0.32588591829E+02  0.22729997156E+03 -0.78079607667E+03  0.83204495476E+03  0.17300000000E+03 0.  1.
         -6    1    1    2    0  501  0.32588591829E+02 -0.22729997156E+03 -0.75692927301E+03  0.80969019861E+03  0.17300000000E+03 0. -1.
<mgrwt>
<rscale>  2 0.28750008E+03</rscale>
<asrwt>0</asrwt>
<pdfrwt beam="1">  1        2 0.24457391E+00 0.28750008E+03</pdfrwt>
<pdfrwt beam="2">  1       -2 0.80007532E-02 0.28750008E+03</pdfrwt>
<totfact> 0.11549402E+03</totfact>
</mgrwt>
</event>
<event>
 4    1  0.1790407E+000  0.2080767E+03  0.7546771E-02  0.1143098E+00
          2   -1    0    0  502    0  0.00000000000E+00  0.00000000000E+00  0.21083383237E+04  0.21083383237E+04  0.00000000000E+00 0.  1.
         -2   -1    0    0    0  501 -0.00000000000E+00 -0.00000000000E+00 -0.28738438975E+02  0.28738438975E+02  0.00000000000E+00 0. -1.
          6    1    1    2  502    0 -0.57876559181E+02  0.10008612899E+03  0.46892441548E+03  0.51301660475E+03  0.17300000000E+03 0. -1.
         -6    1    1    2    0  501  0.57876559181E+02 -0.10008612899E+03  0.16106754692E+04  0.16240601579E+04  0.17300000000E+03 0.  1.
<mgrwt>
<rscale>  2 0.20807674E+03</rscale>
<asrwt>0</asrwt>
<pdfrwt beam="1">  1        2 0.32435962E+00 0.20807674E+03</pdfrwt>
<pdfrwt beam="2">  1       -2 0.44213000E-02 0.20807674E+03</pdfrwt>
<totfact> 0.15473325E+03</totfact>
</mgrwt>
</event>
<event>
 4    1  0.1790407E+000  0.2375272E+03  0.7546771E-02  0.1121451E+00
         -2   -1    0    0    0  501 -0.00000000000E+00  0.00000000000E+00  0.45053183188E+02  0.45053183188E+02  0.00000000000E+00 0.  1.
          2   -1    0    0  502    0  0.00000000000E+00 -0.00000000000E+00 -0.13809869535E+04  0.13809869535E+04  0.00000000000E+00 0. -1.
          6    1    1    2  502    0 -0.10025537982E+03  0.12821476106E+03 -0.45029153678E+03  0.50909884525E+03  0.17300000000E+03 0.  1.
         -6    1    1    2    0  501  0.10025537982E+03 -0.12821476106E+03 -0.88564223352E+03  0.91694129143E+03  0.17300000000E+03 0. -1.
<mgrwt>
<rscale>  2 0.23752719E+03</rscale>
<asrwt>0</asrwt>
<pdfrwt beam="1">  1        2 0.21245950E+00 0.23752719E+03</pdfrwt>
<pdfrwt beam="2">  1       -2 0.69312601E-02 0.23752719E+03</pdfrwt>
<totfact> 0.18748943E+03</totfact>
</mgrwt>
</event>
<event>
 4    1  0.1790407E+000  0.2049924E+03  0.7546771E-02  0.1145594E+00
         -2   -1    0    0    0  501 -0.00000000000E+00  0.00000000000E+00  0.10637593646E+03  0.10637593646E+03  0.00000000000E+00 0.  1.
          2   -1    0    0  502    0  0.00000000000E+00 -0.00000000000E+00 -0.62560130217E+03  0.62560130217E+03  0.00000000000E+00 0. -1.
          6    1    1    2  502    0  0.10985699898E+03 -0.49334903425E+01 -0.48180011818E+03  0.52359646048E+03  0.17300000000E+03 0. -1.
         -6    1    1    2    0  501 -0.10985699898E+03  0.49334903425E+01 -0.37425247535E+02  0.20838077815E+03  0.17300000000E+03 0.  1.
<mgrwt>
<rscale>  2 0.20499244E+03</rscale>
<asrwt>0</asrwt>
<pdfrwt beam="1">  1        2 0.96246353E-01 0.20499244E+03</pdfrwt>
<pdfrwt beam="2">  1       -2 0.16365529E-01 0.20499244E+03</pdfrwt>
<totfact> 0.14172762E+03</totfact>
</mgrwt>
</event>
<event>
 4    1  0.1790407E+000  0.2183808E+03  0.7546771E-02  0.1135096E+00
          2   -1    0    0  502    0  0.00000000000E+00  0.00000000000E+00  0.66185597254E+03  0.66185597254E+03  0.00000000000E+00 0.  1.
         -2   -1    0    0    0  501 -0.00000000000E+00 -0.00000000000E+00 -0.73591934600E+02  0.73591934600E+02  0.00000000000E+00 0. -1.
          6    1    1    2  502    0  0.71019837806E+02 -0.11277120366E+03  0.34727021784E+03  0.41022770011E+03  0.17300000000E+03 0.  1.
         -6    1    1    2    0  501 -0.71019837806E+02  0.11277120366E+03  0.24099382010E+03  0.32522020703E+03  0.17300000000E+03 0. -1.
<mgrwt>
<rscale>  2 0.21838077E+03</rscale>
<asrwt>0</asrwt>
<pdfrwt beam="1">  1        2 0.10182399E+00 0.21838077E+03</pdfrwt>
<pdfrwt beam="2">  1       -2 0.11321836E-01 0.21838077E+03</pdfrwt>
<totfact> 0.24241187E+03</totfact>
</mgrwt>
</event>
<event>
 4    1  0.1790407E+000  0.2075046E+03  0.7546771E-02  0.1143557E+00
          2   -1    0    0  502    0  0.00000000000E+00  0.00000000000E+00  0.47610024162E+03  0.47610024162E+03  0.00000000000E+00 0. -1.
         -2   -1    0    0    0  501 -0.00000000000E+00 -0.00000000000E+00 -0.10012999976E+03  0.10012999976E+03  0.00000000000E+00 0.  1.
          6    1    1    2  502    0 -0.11022210220E+03 -0.31308582790E+02  0.27761712059E+03  0.34659689095E+03  0.17300000000E+03 0. -1.
         -6    1    1    2    0  501  0.11022210220E+03  0.31308582790E+02  0.98353121266E+02  0.22963335044E+03  0.17300000000E+03 0.  1.
<mgrwt>
<rscale>  2 0.20750455E+03</rscale>
<asrwt>0</asrwt>
<pdfrwt beam="1">  1        2 0.73246190E-01 0.20750455E+03</pdfrwt>
<pdfrwt beam="2">  1       -2 0.15404616E-01 0.20750455E+03</pdfrwt>
<totfact> 0.21364389E+03</totfact>
</mgrwt>
</event>
<event>
 4    1  0.1790407E+000  0.2224203E+03  0.7546771E-02  0.1132091E+00
          1   -1    0    0  502    0  0.00000000000E+00  0.00000000000E+00  0.60227612325E+03  0.60227612325E+03  0.00000000000E+00 0. -1.
         -1   -1    0    0    0  501 -0.00000000000E+00 -0.00000000000E+00 -0.88030059136E+02  0.88030059136E+02  0.00000000000E+00 0.  1.
          6    1    1    2  502    0  0.12181763017E+03 -0.68572904389E+02  0.34640572290E+03  0.41166455166E+03  0.17300000000E+03 0. -1.
         -6    1    1    2    0  501 -0.12181763017E+03  0.68572904389E+02  0.16784034122E+03  0.27864163073E+03  0.17300000000E+03 0.  1.
<mgrwt>
<rscale>  2 0.22242027E+03</rscale>
<asrwt>0</asrwt>
<pdfrwt beam="1">  1        1 0.92657863E-01 0.22242027E+03</pdfrwt>
<pdfrwt beam="2">  1       -1 0.13543086E-01 0.22242027E+03</pdfrwt>
<totfact> 0.13220937E+03</totfact>
</mgrwt>
</event>
<event>
 4    1  0.1790407E+000  0.1854018E+03  0.7546771E-02  0.1162675E+00
          1   -1    0    0  502    0  0.00000000000E+00  0.00000000000E+00  0.14336961917E+04  0.14336961917E+04  0.00000000000E+00 0. -1.
         -1   -1    0    0    0  501 -0.00000000000E+00 -0.00000000000E+00 -0.27401020584E+02  0.27401020584E+02  0.00000000000E+00 0.  1.
          6    1    1    2  502    0 -0.12822030664E+02 -0.65424945429E+02  0.96144389966E+03  0.97915688229E+03  0.17300000000E+03 0. -1.
         -6    1    1    2    0  501  0.12822030664E+02  0.65424945429E+02  0.44485127147E+03  0.48194033001E+03  0.17300000000E+03 0. -1.
<mgrwt>
<rscale>  2 0.18540180E+03</rscale>
<asrwt>0</asrwt>
<pdfrwt beam="1">  1        1 0.22056859E+00 0.18540180E+03</pdfrwt>
<pdfrwt beam="2">  1       -1 0.42155427E-02 0.18540180E+03</pdfrwt>
<totfact> 0.18027218E+03</totfact>
</mgrwt>
</event>
<event>
 4    1  0.1790407E+000  0.1748337E+03  0.7546771E-02  0.1172899E+00
          4   -1    0    0  502    0  0.00000000000E+00  0.00000000000E+00  0.31503437447E+02  0.31503437447E+02  0.00000000000E+00 0.  1.
         -4   -1    0    0    0  501 -0.00000000000E+00 -0.00000000000E+00 -0.97305381913E+03  0.97305381913E+03  0.00000000000E+00 0. -1.
          6    1    1    2  502    0 -0.21190216165E+02  0.13740284231E+02 -0.44390657768E+03  0.47709524246E+03  0.17300000000E+03 0.  1.
         -6    1    1    2    0  501  0.21190216165E+02 -0.13740284231E+02 -0.49764380400E+03  0.52746201411E+03  0.17300000000E+03 0. -1.
<mgrwt>
<rscale>  2 0.17483369E+03</rscale>
<asrwt>0</asrwt>
<pdfrwt beam="1">  1        4 0.48466831E-02 0.17483369E+03</pdfrwt>
<pdfrwt beam="2">  1       -4 0.14970058E+00 0.17483369E+03</pdfrwt>
<totfact> 0.14006118E+02</totfact>
</mgrwt>
</event>
<event>
 4    1  0.1790407E+000  0.3940872E+03  0.7546771E-02  0.1045847E+00
          1   -1    0    0  502    0  0.00000000000E+00  0.00000000000E+00  0.58751994625E+03  0.58751994625E+03  0.00000000000E+00 0. -1.
         -1   -1    0    0    0  501 -0.00000000000E+00 -0.00000000000E+00 -0.36175257513E+03  0.36175257513E+03  0.00000000000E+00 0.  1.
          6    1    1    2  502    0 -0.10650237020E+03 -0.33768767463E+03 -0.13341594286E+03  0.41605833036E+03  0.17300000000E+03 0.  1.
         -6    1    1    2    0  501  0.10650237020E+03  0.33768767463E+03  0.35918331398E+03  0.53321419101E+03  0.17300000000E+03 0. -1.
<mgrwt>
<rscale>  2 0.39408720E+03</rscale>
<asrwt>0</asrwt>
<pdfrwt beam="1">  1        1 0.90387684E-01 0.39408720E+03</pdfrwt>
<pdfrwt beam="2">  1       -1 0.55654242E-01 0.39408720E+03</pdfrwt>
<totfact> 0.12094555E+02</totfact>
</mgrwt>
</event>
<event>
 4    1  0.1790407E+000  0.2196046E+03  0.7546771E-02  0.1134178E+00
          2   -1    0    0  502    0  0.00000000000E+00  0.00000000000E+00  0.12495586607E+04  0.12495586607E+04  0.00000000000E+00 0. -1.
         -2   -1    0    0    0  501 -0.00000000000E+00 -0.00000000000E+00 -0.38887354662E+02  0.38887354662E+02  0.00000000000E+00 0.  1.
          6    1    1    2  502    0 -0.11109455777E+03 -0.77169865404E+02  0.54943711653E+03  0.59169868507E+03  0.17300000000E+03 0.  1.
         -6    1    1    2    0  501  0.11109455777E+03  0.77169865404E+02  0.66123418946E+03  0.69674733024E+03  0.17300000000E+03 0. -1.
<mgrwt>
<rscale>  2 0.21960462E+03</rscale>
<asrwt>0</asrwt>
<pdfrwt beam="1">  1        2 0.19223976E+00 0.21960462E+03</pdfrwt>
<pdfrwt beam="2">  1       -2 0.59826709E-02 0.21960462E+03</pdfrwt>
<totfact> 0.27777538E+03</totfact>
</mgrwt>
</event>
<event>
 4    1  0.1790407E+000  0.2032763E+03  0.7546771E-02  0.1147004E+00
         -1   -1    0    0    0  501 -0.00000000000E+00  0.00000000000E+00  0.88567246395E+02  0.88567246395E+02  0.00000000000E+00 0. -1.
          1   -1    0    0  502    0  0.00000000000E+00 -0.00000000000E+00 -0.62826306568E+03  0.62826306568E+03  0.00000000000E+00 0.  1.
          6    1    1    2  502    0 -0.96768874748E+02 -0.45033915667E+02 -0.45168598377E+03  0.49531959038E+03  0.17300000000E+03 0.  1.
         -6    1    1    2    0  501  0.96768874748E+02  0.45033915667E+02 -0.88009835521E+02  0.22151072170E+03  0.17300000000E+03 0.  1.
<mgrwt>
<rscale>  2 0.20327634E+03</rscale>
<asrwt>0</asrwt>
<pdfrwt beam="1">  1        1 0.96655855E-01 0.20327634E+03</pdfrwt>
<pdfrwt beam="2">  1       -1 0.13625730E-01 0.20327634E+03</pdfrwt>
<totfact> 0.12337906E+03</totfact>
</mgrwt>
</event>
<event>
 4    1  0.1790407E+000  0.2202120E+03  0.7546771E-02  0.1133725E+00
         -2   -1    0    0    0  501 -0.00000000000E+00  0.00000000000E+00  0.59044367477E+03  0.59044367477E+03  0.00000000000E+00 0. -1.
          2   -1    0    0  502    0  0.00000000000E+00 -0.00000000000E+00 -0.84468573227E+02  0.84468573227E+02  0.00000000000E+00 0.  1.
          6    1    1    2  502    0 -0.46709684235E+01  0.13617088820E+03  0.30913310611E+03  0.37954789689E+03  0.17300000000E+03 0.  1.
         -6    1    1    2    0  501  0.46709684235E+01 -0.13617088820E+03  0.19684199544E+03  0.29536435111E+03  0.17300000000E+03 0. -1.
<mgrwt>
<rscale>  2 0.22021201E+03</rscale>
<asrwt>0</asrwt>
<pdfrwt beam="1">  1        2 0.12995166E-01 0.22021201E+03</pdfrwt>
<pdfrwt beam="2">  1       -2 0.90837485E-01 0.22021201E+03</pdfrwt>
<totfact> 0.49512231E+02</totfact>
</mgrwt>
</event>
<event>
 4    1  0.1790407E+000  0.1740545E+03  0.7546771E-02  0.1173684E+00
         -1   -1    0    0    0  501 -0.00000000000E+00  0.00000000000E+00  0.48769510467E+02  0.48769510467E+02  0.00000000000E+00 0.  1.
          1   -1    0    0  502    0  0.00000000000E+00 -0.00000000000E+00 -0.63606666359E+03  0.63606666359E+03  0.00000000000E+00 0. -1.
          6    1    1    2  502    0 -0.17093038741E+02  0.85905818226E+01 -0.34602148257E+03  0.38733168792E+03  0.17300000000E+03 0.  1.
         -6    1    1    2    0  501  0.17093038741E+02 -0.85905818226E+01 -0.24127567055E+03  0.29750448614E+03  0.17300000000E+03 0.  1.
<mgrwt>
<rscale>  2 0.17405450E+03</rscale>
<asrwt>0</asrwt>
<pdfrwt beam="1">  1        1 0.97856400E-01 0.17405450E+03</pdfrwt>
<pdfrwt beam="2">  1       -1 0.75030023E-02 0.17405450E+03</pdfrwt>
<totfact> 0.30314378E+03</totfact>
</mgrwt>
</event>
<event>
 4    1  0.1790407E+000  0.1857221E+03  0.7546771E-02  0.1162377E+00
         -1   -1    0    0    0  501 -0.00000000000E+00  0.00000000000E+00  0.63042432507E+02  0.63042432507E+02  0.00000000000E+00 0.  1.
          1   -1    0    0  502    0  0.00000000000E+00 -0.00000000000E+00 -0.59144393654E+03  0.59144393654E+03  0.00000000000E+00 0. -1.
          6    1    1    2  502    0  0.66853504694E+02  0.97104771488E+01 -0.35377070507E+03  0.39955775080E+03  0.17300000000E+03 0. -1.
         -6    1    1    2    0  501 -0.66853504694E+02 -0.97104771488E+01 -0.17463079896E+03  0.25492861825E+03  0.17300000000E+03 0.  1.
<mgrwt>
<rscale>  2 0.18572206E+03</rscale>
<asrwt>0</asrwt>
<pdfrwt beam="1">  1        1 0.90991371E-01 0.18572206E+03</pdfrwt>
<pdfrwt beam="2">  1       -1 0.96988362E-02 0.18572206E+03</pdfrwt>
<totfact> 0.22710665E+03</totfact>
</mgrwt>
</event>
<event>
 4    1  0.1790407E+000  0.2317500E+03  0.7546771E-02  0.1125414E+00
         -2   -1    0    0    0  501 -0.00000000000E+00  0.00000000000E+00  0.76605463480E+02  0.76605463480E+02  0.00000000000E+00 0. -1.
          2   -1    0    0  502    0  0.00000000000E+00 -0.00000000000E+00 -0.92231562455E+03  0.92231562455E+03  0.00000000000E+00 0.  1.
          6    1    1    2  502    0  0.37454519534E+02 -0.14958687669E+03 -0.17824773000E+03  0.29237018993E+03  0.17300000000E+03 0. -1.
         -6    1    1    2    0  501 -0.37454519534E+02  0.14958687669E+03 -0.66746243107E+03  0.70655089810E+03  0.17300000000E+03 0.  1.
<mgrwt>
<rscale>  2 0.23175003E+03</rscale>
<asrwt>0</asrwt>
<pdfrwt beam="1">  1        2 0.14189471E+00 0.23175003E+03</pdfrwt>
<pdfrwt beam="2">  1       -2 0.11785456E-01 0.23175003E+03</pdfrwt>
<totfact> 0.14959028E+03</totfact>
</mgrwt>
</event>
<event>
 4    1  0.1790407E+000  0.2098078E+03  0.7546771E-02  0.1141718E+00
         -2   -1    0    0    0  501 -0.00000000000E+00  0.00000000000E+00  0.98044524802E+02  0.98044524802E+02  0.00000000000E+00 0. -1.
          2   -1    0    0  502    0  0.00000000000E+00 -0.00000000000E+00 -0.46177184367E+03  0.46177184367E+03  0.00000000000E+00 0.  1.
          6    1    1    2  502    0 -0.62793231272E+02  0.10073396636E+03 -0.22846422035E+03  0.31018578603E+03  0.17300000000E+03 0. -1.
         -6    1    1    2    0  501  0.62793231272E+02 -0.10073396636E+03 -0.13526309851E+03  0.24963058244E+03  0.17300000000E+03 0. -1.
<mgrwt>
<rscale>  2 0.20980782E+03</rscale>
<asrwt>0</asrwt>
<pdfrwt beam="1">  1        2 0.71041819E-01 0.20980782E+03</pdfrwt>
<pdfrwt beam="2">  1       -2 0.15083774E-01 0.20980782E+03</pdfrwt>
<totfact> 0.22886386E+03</totfact>
</mgrwt>
</event>
<event>
 4    1  0.1790407E+000  0.1994805E+03  0.7546771E-02  0.1150178E+00
          1   -1    0    0  502    0  0.00000000000E+00  0.00000000000E+00  0.30877011866E+03  0.30877011866E+03  0.00000000000E+00 0.  1.
         -1   -1    0    0    0  501 -0.00000000000E+00 -0.00000000000E+00 -0.12889008948E+03  0.12889008948E+03  0.00000000000E+00 0. -1.
          6    1    1    2  502    0 -0.74606182984E+02  0.65554369435E+02  0.87499413900E+02  0.21782700779E+03  0.17300000000E+03 0.  1.
         -6    1    1    2    0  501  0.74606182984E+02 -0.65554369435E+02  0.92380615281E+02  0.21983320034E+03  0.17300000000E+03 0. -1.
<mgrwt>
<rscale>  2 0.19948047E+03</rscale>
<asrwt>0</asrwt>
<pdfrwt beam="1">  1        1 0.47503095E-01 0.19948047E+03</pdfrwt>
<pdfrwt beam="2">  1       -1 0.19829245E-01 0.19948047E+03</pdfrwt>
<totfact> 0.17133326E+03</totfact>
</mgrwt>
</event>
<event>
 4    1  0.1790407E+000  0.2857688E+03  0.7546771E-02  0.1092579E+00
         -2   -1    0    0    0  501 -0.00000000000E+00  0.00000000000E+00  0.35676620275E+02  0.35676620275E+02  0.00000000000E+00 0. -1.
          2   -1    0    0  502    0  0.00000000000E+00 -0.00000000000E+00 -0.24163377218E+04  0.24163377218E+04  0.00000000000E+00 0.  1.
          6    1    1    2  502    0 -0.20529114410E+03  0.97930217204E+02 -0.14717751064E+04  0.14992617334E+04  0.17300000000E+03 0.  1.
         -6    1    1    2    0  501  0.20529114410E+03 -0.97930217204E+02 -0.90888599510E+03  0.95275260870E+03  0.17300000000E+03 0. -1.
<mgrwt>
<rscale>  2 0.28576875E+03</rscale>
<asrwt>0</asrwt>
<pdfrwt beam="1">  1        2 0.37174431E+00 0.28576875E+03</pdfrwt>
<pdfrwt beam="2">  1       -2 0.54887101E-02 0.28576875E+03</pdfrwt>
<totfact> 0.75448111E+02</totfact>
</mgrwt>
</event>
<event>
 4    1  0.1790407E+000  0.3929840E+03  0.7546771E-02  0.1046237E+00
         -1   -1    0    0    0  501 -0.00000000000E+00  0.00000000000E+00  0.28204720168E+03  0.28204720168E+03  0.00000000000E+00 0.  1.
          1   -1    0    0  502    0  0.00000000000E+00 -0.00000000000E+00 -0.11662485745E+04  0.11662485745E+04  0.00000000000E+00 0. -1.
          6    1    1    2  502    0 -0.33301392927E+02  0.35128112365E+03 -0.96953628638E+03  0.10461534406E+04  0.17300000000E+03 0. -1.
         -6    1    1    2    0  501  0.33301392927E+02 -0.35128112365E+03  0.85334913572E+02  0.40214233560E+03  0.17300000000E+03 0.  1.
<mgrwt>
<rscale>  2 0.39298398E+03</rscale>
<asrwt>0</asrwt>
<pdfrwt beam="1">  1        1 0.17942286E+00 0.39298398E+03</pdfrwt>
<pdfrwt beam="2">  1       -1 0.43391877E-01 0.39298398E+03</pdfrwt>
<totfact> 0.63655356E+01</totfact>
</mgrwt>
</event>
<event>
 4    1  0.1790407E+000  0.2163758E+03  0.7546771E-02  0.1136614E+00
          2   -1    0    0  502    0  0.00000000000E+00  0.00000000000E+00  0.81197499023E+02  0.81197499023E+02  0.00000000000E+00 0.  1.
         -2   -1    0    0    0  501 -0.00000000000E+00 -0.00000000000E+00 -0.57898807719E+03  0.57898807719E+03  0.00000000000E+00 0. -1.
          6    1    1    2  502    0  0.11856546153E+03  0.53213976665E+02 -0.22769678584E+03  0.31410877457E+03  0.17300000000E+03 0.  1.
         -6    1    1    2    0  501 -0.11856546153E+03 -0.53213976665E+02 -0.27009379233E+03  0.34607680164E+03  0.17300000000E+03 0. -1.
<mgrwt>
<rscale>  2 0.21637582E+03</rscale>
<asrwt>0</asrwt>
<pdfrwt beam="1">  1        2 0.12491923E-01 0.21637582E+03</pdfrwt>
<pdfrwt beam="2">  1       -2 0.89075091E-01 0.21637582E+03</pdfrwt>
<totfact> 0.54272995E+02</totfact>
</mgrwt>
</event>
<event>
 4    1  0.1790407E+000  0.3035562E+03  0.7546771E-02  0.1083476E+00
         -1   -1    0    0    0  501 -0.00000000000E+00  0.00000000000E+00  0.61648832747E+03  0.61648832747E+03  0.00000000000E+00 0. -1.
          1   -1    0    0  502    0  0.00000000000E+00 -0.00000000000E+00 -0.15010987212E+03  0.15010987212E+03  0.00000000000E+00 0.  1.
          6    1    1    2  502    0 -0.75832652480E+02  0.23762743119E+03  0.25821845838E+03  0.39852623438E+03  0.17300000000E+03 0. -1.
         -6    1    1    2    0  501  0.75832652480E+02 -0.23762743119E+03  0.20815999697E+03  0.36807196521E+03  0.17300000000E+03 0. -1.
<mgrwt>
<rscale>  2 0.30355623E+03</rscale>
<asrwt>0</asrwt>
<pdfrwt beam="1">  1        1 0.23093827E-01 0.30355623E+03</pdfrwt>
<pdfrwt beam="2">  1       -1 0.94844356E-01 0.30355623E+03</pdfrwt>
<totfact> 0.24081567E+02</totfact>
</mgrwt>
</event>
<event>
 4    1  0.1790407E+000  0.1794577E+03  0.7546771E-02  0.1168329E+00
         -2   -1    0    0    0  501 -0.00000000000E+00  0.00000000000E+00  0.50565410234E+03  0.50565410234E+03  0.00000000000E+00 0.  1.
          2   -1    0    0  502    0  0.00000000000E+00 -0.00000000000E+00 -0.87116411782E+02  0.87116411782E+02  0.00000000000E+00 0. -1.
          6    1    1    2  502    0 -0.75889830068E+01 -0.47100826274E+02  0.55573742180E+02  0.18786570022E+03  0.17300000000E+03 0. -1.
         -6    1    1    2    0  501  0.75889830068E+01  0.47100826274E+02  0.36296394837E+03  0.40490481390E+03  0.17300000000E+03 0.  1.
<mgrwt>
<rscale>  2 0.17945774E+03</rscale>
<asrwt>0</asrwt>
<pdfrwt beam="1">  1        2 0.13402525E-01 0.17945774E+03</pdfrwt>
<pdfrwt beam="2">  1       -2 0.77792937E-01 0.17945774E+03</pdfrwt>
<totfact> 0.67102617E+02</totfact>
</mgrwt>
</event>
<event>
 4    1  0.1790407E+000  0.2026331E+03  0.7546771E-02  0.1147536E+00
         -4   -1    0    0    0  501 -0.00000000000E+00  0.00000000000E+00  0.19485983563E+03  0.19485983563E+03  0.00000000000E+00 0. -1.
          4   -1    0    0  502    0  0.00000000000E+00 -0.00000000000E+00 -0.40879719486E+03  0.40879719486E+03  0.00000000000E+00 0.  1.
          6    1    1    2  502    0  0.66758257780E+02 -0.81697652861E+02 -0.31706935653E+03  0.37628865026E+03  0.17300000000E+03 0.  1.
         -6    1    1    2    0  501 -0.66758257780E+02  0.81697652861E+02  0.10313199730E+03  0.22736838024E+03  0.17300000000E+03 0. -1.
<mgrwt>
<rscale>  2 0.20263310E+03</rscale>
<asrwt>0</asrwt>
<pdfrwt beam="1">  1        4 0.62891876E-01 0.20263310E+03</pdfrwt>
<pdfrwt beam="2">  1       -4 0.29978436E-01 0.20263310E+03</pdfrwt>
<totfact> 0.45460171E+01</totfact>
</mgrwt>
</event>
<event>
 4    1  0.1790407E+000  0.2807173E+03  0.7546771E-02  0.1095298E+00
         -1   -1    0    0    0  501 -0.00000000000E+00  0.00000000000E+00  0.69054315678E+03  0.69054315678E+03  0.00000000000E+00 0.  1.
          1   -1    0    0  502    0  0.00000000000E+00 -0.00000000000E+00 -0.11448335466E+03  0.11448335466E+03  0.00000000000E+00 0. -1.
          6    1    1    2  502    0  0.15257711071E+03  0.15997953173E+03  0.26523810990E+03  0.38620393606E+03  0.17300000000E+03 0. -1.
         -6    1    1    2    0  501 -0.15257711071E+03 -0.15997953173E+03  0.31082169222E+03  0.41882257537E+03  0.17300000000E+03 0.  1.
<mgrwt>
<rscale>  2 0.28071734E+03</rscale>
<asrwt>0</asrwt>
<pdfrwt beam="1">  1        1 0.17612824E-01 0.28071734E+03</pdfrwt>
<pdfrwt beam="2">  1       -1 0.10623741E+00 0.28071734E+03</pdfrwt>
<totfact> 0.26581022E+02</totfact>
</mgrwt>
</event>
<event>
 4    1  0.1790407E+000  0.2177119E+03  0.7546771E-02  0.1135600E+00
          1   -1    0    0  502    0  0.00000000000E+00  0.00000000000E+00  0.47460060480E+03  0.47460060480E+03  0.00000000000E+00 0. -1.
         -1   -1    0    0    0  501 -0.00000000000E+00 -0.00000000000E+00 -0.28793778558E+03  0.28793778558E+03  0.00000000000E+00 0.  1.
          6    1    1    2  502    0 -0.13182374598E+03  0.95905009927E+01  0.40146519019E+03  0.45669768627E+03  0.17300000000E+03 0. -1.
         -6    1    1    2    0  501  0.13182374598E+03 -0.95905009927E+01 -0.21480237097E+03  0.30584070411E+03  0.17300000000E+03 0.  1.
<mgrwt>
<rscale>  2 0.21771191E+03</rscale>
<asrwt>0</asrwt>
<pdfrwt beam="1">  1        1 0.73015478E-01 0.21771191E+03</pdfrwt>
<pdfrwt beam="2">  1       -1 0.44298121E-01 0.21771191E+03</pdfrwt>
<totfact> 0.25227970E+02</totfact>
</mgrwt>
</event>
<event>
 4    1  0.1790407E+000  0.3123437E+03  0.7546771E-02  0.1079228E+00
         -2   -1    0    0    0  501 -0.00000000000E+00  0.00000000000E+00  0.45936284626E+03  0.45936284626E+03  0.00000000000E+00 0.  1.
          2   -1    0    0  502    0  0.00000000000E+00 -0.00000000000E+00 -0.22431500379E+03  0.22431500379E+03  0.00000000000E+00 0. -1.
          6    1    1    2  502    0 -0.25285274048E+03  0.60786948021E+02  0.19638088723E+03  0.36894988046E+03  0.17300000000E+03 0. -1.
         -6    1    1    2    0  501  0.25285274048E+03 -0.60786948021E+02  0.38666955235E+02  0.31472796960E+03  0.17300000000E+03 0. -1.
<mgrwt>
<rscale>  2 0.31234366E+03</rscale>
<asrwt>0</asrwt>
<pdfrwt beam="1">  1        2 0.34510001E-01 0.31234366E+03</pdfrwt>
<pdfrwt beam="2">  1       -2 0.70671207E-01 0.31234366E+03</pdfrwt>
<totfact> 0.28189286E+02</totfact>
</mgrwt>
</event>
<event>
 4    1  0.1790407E+000  0.1815115E+03  0.7546771E-02  0.1166348E+00
         -1   -1    0    0    0  501 -0.00000000000E+00  0.00000000000E+00  0.72679123084E+02  0.72679123084E+02  0.00000000000E+00 0. -1.
          1   -1    0    0  502    0  0.00000000000E+00 -0.00000000000E+00 -0.92932203665E+03  0.92932203665E+03  0.00000000000E+00 0.  1.
          6    1    1    2  502    0 -0.37583309599E+02  0.40061650624E+02 -0.69760995711E+02  0.19445574698E+03  0.17300000000E+03 0. -1.
         -6    1    1    2    0  501  0.37583309599E+02 -0.40061650624E+02 -0.78688191786E+03  0.80754541275E+03  0.17300000000E+03 0.  1.
<mgrwt>
<rscale>  2 0.18151155E+03</rscale>
<asrwt>0</asrwt>
<pdfrwt beam="1">  1        1 0.14297261E+00 0.18151155E+03</pdfrwt>
<pdfrwt beam="2">  1       -1 0.11181404E-01 0.18151155E+03</pdfrwt>
<totfact> 0.93175887E+02</totfact>
</mgrwt>
</event>
<event>
 4    1  0.1790407E+000  0.2979814E+03  0.7546771E-02  0.1086254E+00
          2   -1    0    0  502    0  0.00000000000E+00  0.00000000000E+00  0.39690892535E+03  0.39690892535E+03  0.00000000000E+00 0.  1.
         -2   -1    0    0    0  501 -0.00000000000E+00 -0.00000000000E+00 -0.25039030221E+03  0.25039030221E+03  0.00000000000E+00 0. -1.
          6    1    1    2  502    0  0.23823280760E+03  0.45924038949E+02  0.17890546015E+03  0.34756301823E+03  0.17300000000E+03 0.  1.
         -6    1    1    2    0  501 -0.23823280760E+03 -0.45924038949E+02 -0.32386837007E+02  0.29973620932E+03  0.17300000000E+03 0. -1.
<mgrwt>
<rscale>  2 0.29798136E+03</rscale>
<asrwt>0</asrwt>
<pdfrwt beam="1">  1        2 0.61062911E-01 0.29798136E+03</pdfrwt>
<pdfrwt beam="2">  1       -2 0.38521585E-01 0.29798136E+03</pdfrwt>
<totfact> 0.51788679E+02</totfact>
</mgrwt>
</event>
<event>
 4    1  0.1790407E+000  0.2790104E+03  0.7546771E-02  0.1096231E+00
          1   -1    0    0  502    0  0.00000000000E+00  0.00000000000E+00  0.20460443263E+04  0.20460443263E+04  0.00000000000E+00 0. -1.
         -1   -1    0    0    0  501 -0.00000000000E+00 -0.00000000000E+00 -0.63628539605E+02  0.63628539605E+02  0.00000000000E+00 0.  1.
          6    1    1    2  502    0 -0.53629619666E+02 -0.21223023561E+03  0.16600421333E+04  0.16833260805E+04  0.17300000000E+03 0. -1.
         -6    1    1    2    0  501  0.53629619666E+02  0.21223023561E+03  0.32237365342E+03  0.42634678541E+03  0.17300000000E+03 0.  1.
<mgrwt>
<rscale>  2 0.27901041E+03</rscale>
<asrwt>0</asrwt>
<pdfrwt beam="1">  1        1 0.31477600E+00 0.27901041E+03</pdfrwt>
<pdfrwt beam="2">  1       -1 0.97890077E-02 0.27901041E+03</pdfrwt>
<totfact> 0.19848295E+02</totfact>
</mgrwt>
</event>
<event>
 4    1  0.1790407E+000  0.2424162E+03  0.7546771E-02  0.1118194E+00
         -2   -1    0    0    0  501 -0.00000000000E+00  0.00000000000E+00  0.65768592202E+02  0.65768592202E+02  0.00000000000E+00 0. -1.
          2   -1    0    0  502    0  0.00000000000E+00 -0.00000000000E+00 -0.10064455555E+04  0.10064455555E+04  0.00000000000E+00 0.  1.
          6    1    1    2  502    0  0.10710572543E+02 -0.16947534723E+03 -0.64991553478E+03  0.69365395698E+03  0.17300000000E+03 0.  1.
         -6    1    1    2    0  501 -0.10710572543E+02  0.16947534723E+03 -0.29076142849E+03  0.37856019069E+03  0.17300000000E+03 0. -1.
<mgrwt>
<rscale>  2 0.24241619E+03</rscale>
<asrwt>0</asrwt>
<pdfrwt beam="1">  1        2 0.15483777E+00 0.24241619E+03</pdfrwt>
<pdfrwt beam="2">  1       -2 0.10118245E-01 0.24241619E+03</pdfrwt>
<totfact> 0.16934666E+03</totfact>
</mgrwt>
</event>
<event>
 4    1  0.1790407E+000  0.1783514E+03  0.7546771E-02  0.1169408E+00
          2   -1    0    0  502    0  0.00000000000E+00  0.00000000000E+00  0.64260948234E+03  0.64260948234E+03  0.00000000000E+00 0.  1.
         -2   -1    0    0    0  501 -0.00000000000E+00 -0.00000000000E+00 -0.53740845351E+02  0.53740845351E+02  0.00000000000E+00 0. -1.
          6    1    1    2  502    0 -0.38343683990E+02  0.20247806773E+02  0.19662766925E+03  0.26546497339E+03  0.17300000000E+03 0. -1.
         -6    1    1    2    0  501  0.38343683990E+02 -0.20247806773E+02  0.39224096774E+03  0.43088535430E+03  0.17300000000E+03 0.  1.
<mgrwt>
<rscale>  2 0.17835137E+03</rscale>
<asrwt>0</asrwt>
<pdfrwt beam="1">  1        2 0.98862992E-01 0.17835137E+03</pdfrwt>
<pdfrwt beam="2">  1       -2 0.82678228E-02 0.17835137E+03</pdfrwt>
<totfact> 0.41020025E+03</totfact>
</mgrwt>
</event>
<event>
 4    1  0.1790407E+000  0.2284634E+03  0.7546771E-02  0.1127726E+00
         -1   -1    0    0    0  501 -0.00000000000E+00  0.00000000000E+00  0.24837101298E+03  0.24837101298E+03  0.00000000000E+00 0. -1.
          1   -1    0    0  502    0  0.00000000000E+00 -0.00000000000E+00 -0.27704178832E+03  0.27704178832E+03  0.00000000000E+00 0.  1.
          6    1    1    2  502    0 -0.14681340392E+03 -0.26690289260E+02  0.11475070832E+03  0.25566241838E+03  0.17300000000E+03 0.  1.
         -6    1    1    2    0  501  0.14681340392E+03  0.26690289260E+02 -0.14342148367E+03  0.26975038293E+03  0.17300000000E+03 0.  1.
<mgrwt>
<rscale>  2 0.22846345E+03</rscale>
<asrwt>0</asrwt>
<pdfrwt beam="1">  1        1 0.42621814E-01 0.22846345E+03</pdfrwt>
<pdfrwt beam="2">  1       -1 0.38210925E-01 0.22846345E+03</pdfrwt>
<totfact> 0.65169543E+02</totfact>
</mgrwt>
</event>
<event>
 4    1  0.1790407E+000  0.4544658E+03  0.7546771E-02  0.1026399E+00
          2   -1    0    0  502    0  0.00000000000E+00  0.00000000000E+00  0.63537861513E+03  0.63537861513E+03  0.00000000000E+00 0.  1.
         -2   -1    0    0    0  501 -0.00000000000E+00 -0.00000000000E+00 -0.39465646535E+03  0.39465646535E+03  0.00000000000E+00 0. -1.
          6    1    1    2  502    0 -0.39323713443E+03  0.14823860348E+03 -0.95906539954E+02  0.46447517895E+03  0.17300000000E+03 0. -1.
         -6    1    1    2    0  501  0.39323713443E+03 -0.14823860348E+03  0.33662868973E+03  0.56555990152E+03  0.17300000000E+03 0.  1.
<mgrwt>
<rscale>  2 0.45446576E+03</rscale>
<asrwt>0</asrwt>
<pdfrwt beam="1">  1        2 0.97750556E-01 0.45446576E+03</pdfrwt>
<pdfrwt beam="2">  1       -2 0.60716380E-01 0.45446576E+03</pdfrwt>
<totfact> 0.12056415E+02</totfact>
</mgrwt>
</event>
<event>
 4    1  0.1790407E+000  0.2225448E+03  0.7546771E-02  0.1132000E+00
          2   -1    0    0  502    0  0.00000000000E+00  0.00000000000E+00  0.33029650547E+04  0.33029650547E+04  0.00000000000E+00 0. -1.
         -2   -1    0    0    0  501 -0.00000000000E+00 -0.00000000000E+00 -0.20116228570E+02  0.20116228570E+02  0.00000000000E+00 0.  1.
          6    1    1    2  502    0 -0.51483086760E+02  0.13017939422E+03  0.80303151166E+03  0.83329814089E+03  0.17300000000E+03 0.  1.
         -6    1    1    2    0  501  0.51483086760E+02 -0.13017939422E+03  0.24798173145E+04  0.24897831424E+04  0.17300000000E+03 0. -1.
<mgrwt>
<rscale>  2 0.22254479E+03</rscale>
<asrwt>0</asrwt>
<pdfrwt beam="1">  1        2 0.50814804E+00 0.22254479E+03</pdfrwt>
<pdfrwt beam="2">  1       -2 0.30948070E-02 0.22254479E+03</pdfrwt>
<totfact> 0.55708571E+02</totfact>
</mgrwt>
</event>
<event>
 4    1  0.1790407E+000  0.1854415E+03  0.7546771E-02  0.1162638E+00
          1   -1    0    0  502    0  0.00000000000E+00  0.00000000000E+00  0.13260323159E+03  0.13260323159E+03  0.00000000000E+00 0.  1.
         -1   -1    0    0    0  501 -0.00000000000E+00 -0.00000000000E+00 -0.29780822813E+03  0.29780822813E+03  0.00000000000E+00 0. -1.
          6    1    1    2  502    0 -0.55613563764E+02 -0.36968691862E+02 -0.52508937053E+01  0.18551583366E+03  0.17300000000E+03 0.  1.
         -6    1    1    2    0  501  0.55613563764E+02  0.36968691862E+02 -0.15995410283E+03  0.24489562607E+03  0.17300000000E+03 0. -1.
<mgrwt>
<rscale>  2 0.18544151E+03</rscale>
<asrwt>0</asrwt>
<pdfrwt beam="1">  1        1 0.20400497E-01 0.18544151E+03</pdfrwt>
<pdfrwt beam="2">  1       -1 0.45816650E-01 0.18544151E+03</pdfrwt>
<totfact> 0.11925928E+03</totfact>
</mgrwt>
</event>
<event>
 4    1  0.1790407E+000  0.2296641E+03  0.7546771E-02  0.1126876E+00
          2   -1    0    0  502    0  0.00000000000E+00  0.00000000000E+00  0.33101933347E+03  0.33101933347E+03  0.00000000000E+00 0.  1.
         -2   -1    0    0    0  501 -0.00000000000E+00 -0.00000000000E+00 -0.16310326124E+03  0.16310326124E+03  0.00000000000E+00 0. -1.
          6    1    1    2  502    0 -0.11760263408E+03  0.94795737748E+02  0.46444950293E+02  0.23431334756E+03  0.17300000000E+03 0. -1.
         -6    1    1    2    0  501  0.11760263408E+03 -0.94795737748E+02  0.12147112194E+03  0.25980924715E+03  0.17300000000E+03 0. -1.
<mgrwt>
<rscale>  2 0.22966413E+03</rscale>
<asrwt>0</asrwt>
<pdfrwt beam="1">  1        2 0.50926051E-01 0.22966413E+03</pdfrwt>
<pdfrwt beam="2">  1       -2 0.25092810E-01 0.22966413E+03</pdfrwt>
<totfact> 0.13824474E+03</totfact>
</mgrwt>
</event>
<event>
 4    1  0.1790407E+000  0.2113006E+03  0.7546771E-02  0.1140540E+00
         -2   -1    0    0    0  501 -0.00000000000E+00  0.00000000000E+00  0.16560141233E+03  0.16560141233E+03  0.00000000000E+00 0.  1.
          2   -1    0    0  502    0  0.00000000000E+00 -0.00000000000E+00 -0.41058671335E+03  0.41058671335E+03  0.00000000000E+00 0. -1.
          6    1    1    2  502    0 -0.11830113206E+03 -0.26903120601E+02 -0.29130501803E+03  0.35987018392E+03  0.17300000000E+03 0. -1.
         -6    1    1    2    0  501  0.11830113206E+03  0.26903120601E+02  0.46319717006E+02  0.21631794176E+03  0.17300000000E+03 0.  1.
<mgrwt>
<rscale>  2 0.21130058E+03</rscale>
<asrwt>0</asrwt>
<pdfrwt beam="1">  1        2 0.63167186E-01 0.21130058E+03</pdfrwt>
<pdfrwt beam="2">  1       -2 0.25477141E-01 0.21130058E+03</pdfrwt>
<totfact> 0.10646021E+03</totfact>
</mgrwt>
</event>
<event>
 4    1  0.1790407E+000  0.2302338E+03  0.7546771E-02  0.1126475E+00
          2   -1    0    0  502    0  0.00000000000E+00  0.00000000000E+00  0.12655834613E+04  0.12655834613E+04  0.00000000000E+00 0.  1.
         -2   -1    0    0    0  501 -0.00000000000E+00 -0.00000000000E+00 -0.43430406778E+02  0.43430406778E+02  0.00000000000E+00 0. -1.
          6    1    1    2  502    0 -0.84982184903E+02  0.12592318376E+03  0.73458245448E+03  0.76981751240E+03  0.17300000000E+03 0. -1.
         -6    1    1    2    0  501  0.84982184903E+02 -0.12592318376E+03  0.48757060008E+03  0.53919635572E+03  0.17300000000E+03 0.  1.
<mgrwt>
<rscale>  2 0.23023384E+03</rscale>
<asrwt>0</asrwt>
<pdfrwt beam="1">  1        2 0.19470512E+00 0.23023384E+03</pdfrwt>
<pdfrwt beam="2">  1       -2 0.66816020E-02 0.23023384E+03</pdfrwt>
<totfact> 0.22963375E+03</totfact>
</mgrwt>
</event>
<event>
 4    1  0.1790407E+000  0.1918726E+03  0.7546771E-02  0.1156783E+00
          1   -1    0    0  502    0  0.00000000000E+00  0.00000000000E+00  0.69920832758E+03  0.69920832758E+03  0.00000000000E+00 0.  1.
         -1   -1    0    0    0  501 -0.00000000000E+00 -0.00000000000E+00 -0.59220057700E+02  0.59220057700E+02  0.00000000000E+00 0. -1.
          6    1    1    2  502    0  0.81093871341E+02 -0.17603281485E+02  0.19370937723E+03  0.27265071853E+03  0.17300000000E+03 0. -1.
         -6    1    1    2    0  501 -0.81093871341E+02  0.17603281485E+02  0.44627889265E+03  0.48577766675E+03  0.17300000000E+03 0.  1.
<mgrwt>
<rscale>  2 0.19187259E+03</rscale>
<asrwt>0</asrwt>
<pdfrwt beam="1">  1        1 0.10757051E+00 0.19187259E+03</pdfrwt>
<pdfrwt beam="2">  1       -1 0.91107786E-02 0.19187259E+03</pdfrwt>
<totfact> 0.19764723E+03</totfact>
</mgrwt>
</event>
<event>
 4    1  0.1790407E+000  0.1869817E+03  0.7546771E-02  0.1161212E+00
          4   -1    0    0  502    0  0.00000000000E+00  0.00000000000E+00  0.11518960315E+04  0.11518960315E+04  0.00000000000E+00 0.  1.
         -4   -1    0    0    0  501 -0.00000000000E+00 -0.00000000000E+00 -0.30364042698E+02  0.30364042698E+02  0.00000000000E+00 0. -1.
          6    1    1    2  502    0  0.30977852604E+02  0.63824186006E+02  0.54891144139E+03  0.57988440620E+03  0.17300000000E+03 0.  1.
         -6    1    1    2    0  501 -0.30977852604E+02 -0.63824186006E+02  0.57262054741E+03  0.60237566799E+03  0.17300000000E+03 0.  1.
<mgrwt>
<rscale>  2 0.18698169E+03</rscale>
<asrwt>0</asrwt>
<pdfrwt beam="1">  1        4 0.17721474E+00 0.18698169E+03</pdfrwt>
<pdfrwt beam="2">  1       -4 0.46713921E-02 0.18698169E+03</pdfrwt>
<totfact> 0.95980208E+01</totfact>
</mgrwt>
</event>
<event>
 4    1  0.1790407E+000  0.2469353E+03  0.7546771E-02  0.1115257E+00
         -2   -1    0    0    0  501 -0.00000000000E+00  0.00000000000E+00  0.51474629311E+02  0.51474629311E+02  0.00000000000E+00 0. -1.
          2   -1    0    0  502    0  0.00000000000E+00 -0.00000000000E+00 -0.13515548886E+04  0.13515548886E+04  0.00000000000E+00 0.  1.
          6    1    1    2  502    0 -0.85756636323E+02  0.15392799059E+03 -0.40348447734E+03  0.47305047344E+03  0.17300000000E+03 0. -1.
         -6    1    1    2    0  501  0.85756636323E+02 -0.15392799059E+03 -0.89659578199E+03  0.92997904452E+03  0.17300000000E+03 0.  1.
<mgrwt>
<rscale>  2 0.24693527E+03</rscale>
<asrwt>0</asrwt>
<pdfrwt beam="1">  1        2 0.20793152E+00 0.24693527E+03</pdfrwt>
<pdfrwt beam="2">  1       -2 0.79191738E-02 0.24693527E+03</pdfrwt>
<totfact> 0.15805239E+03</totfact>
</mgrwt>
</event>
<event>
 4    1  0.1790407E+000  0.2088595E+03  0.7546771E-02  0.1142472E+00
          1   -1    0    0  502    0  0.00000000000E+00  0.00000000000E+00  0.63319763080E+02  0.63319763080E+02  0.00000000000E+00 0. -1.
         -1   -1    0    0    0  501 -0.00000000000E+00 -0.00000000000E+00 -0.12343380029E+04  0.12343380029E+04  0.00000000000E+00 0.  1.
          6    1    1    2  502    0 -0.80791867898E+02 -0.84651940442E+02 -0.10168073708E+04  0.10380363704E+04  0.17300000000E+03 0.  1.
         -6    1    1    2    0  501  0.80791867898E+02  0.84651940442E+02 -0.15421086909E+03  0.25962139566E+03  0.17300000000E+03 0. -1.
<mgrwt>
<rscale>  2 0.20885947E+03</rscale>
<asrwt>0</asrwt>
<pdfrwt beam="1">  1        1 0.97415026E-02 0.20885947E+03</pdfrwt>
<pdfrwt beam="2">  1       -1 0.18989814E+00 0.20885947E+03</pdfrwt>
<totfact> 0.13109619E+02</totfact>
</mgrwt>
</event>
<event>
 4    1  0.1790407E+000  0.1886985E+03  0.7546771E-02  0.1159640E+00
          1   -1    0    0  502    0  0.00000000000E+00  0.00000000000E+00  0.61679534204E+03  0.61679534204E+03  0.00000000000E+00 0.  1.
         -1   -1    0    0    0  501 -0.00000000000E+00 -0.00000000000E+00 -0.58492242906E+02  0.58492242906E+02  0.00000000000E+00 0. -1.
          6    1    1    2  502    0  0.43470934457E+02 -0.61549970928E+02  0.24058816362E+03  0.30576099414E+03  0.17300000000E+03 0. -1.
         -6    1    1    2    0  501 -0.43470934457E+02  0.61549970928E+02  0.31771493551E+03  0.36952659081E+03  0.17300000000E+03 0.  1.
<mgrwt>
<rscale>  2 0.18869849E+03</rscale>
<asrwt>0</asrwt>
<pdfrwt beam="1">  1        1 0.94891586E-01 0.18869849E+03</pdfrwt>
<pdfrwt beam="2">  1       -1 0.89988070E-02 0.18869849E+03</pdfrwt>
<totfact> 0.24050381E+03</totfact>
</mgrwt>
</event>
<event>
 4    1  0.1790407E+000  0.1793610E+03  0.7546771E-02  0.1168423E+00
          2   -1    0    0  502    0  0.00000000000E+00  0.00000000000E+00  0.13652748808E+04  0.13652748808E+04  0.00000000000E+00 0.  1.
         -2   -1    0    0    0  501 -0.00000000000E+00 -0.00000000000E+00 -0.23976780570E+02  0.23976780570E+02  0.00000000000E+00 0. -1.
          6    1    1    2  502    0 -0.45258536208E+02 -0.13893961718E+02  0.76186792511E+03  0.78269605377E+03  0.17300000000E+03 0.  1.
         -6    1    1    2    0  501  0.45258536208E+02  0.13893961718E+02  0.57943017509E+03  0.60655560758E+03  0.17300000000E+03 0. -1.
<mgrwt>
<rscale>  2 0.17936102E+03</rscale>
<asrwt>0</asrwt>
<pdfrwt beam="1">  1        2 0.21004223E+00 0.17936102E+03</pdfrwt>
<pdfrwt beam="2">  1       -2 0.36887365E-02 0.17936102E+03</pdfrwt>
<totfact> 0.49699062E+03</totfact>
</mgrwt>
</event>
<event>
 4    1  0.1790407E+000  0.2015158E+03  0.7546771E-02  0.1148466E+00
         -1   -1    0    0    0  501 -0.00000000000E+00  0.00000000000E+00  0.58845840578E+02  0.58845840578E+02  0.00000000000E+00 0.  1.
          1   -1    0    0  502    0  0.00000000000E+00 -0.00000000000E+00 -0.18273955090E+04  0.18273955090E+04  0.00000000000E+00 0. -1.
          6    1    1    2  502    0  0.10229440343E+03 -0.14678997526E+02 -0.14024464050E+03  0.24551410781E+03  0.17300000000E+03 0.  1.
         -6    1    1    2    0  501 -0.10229440343E+03  0.14678997526E+02 -0.16283050279E+04  0.16407272418E+04  0.17300000000E+03 0. -1.
<mgrwt>
<rscale>  2 0.20151580E+03</rscale>
<asrwt>0</asrwt>
<pdfrwt beam="1">  1        1 0.28113778E+00 0.20151580E+03</pdfrwt>
<pdfrwt beam="2">  1       -1 0.90532059E-02 0.20151580E+03</pdfrwt>
<totfact> 0.31576228E+02</totfact>
</mgrwt>
</event>
<event>
 4    1  0.1790407E+000  0.2527327E+03  0.7546771E-02  0.1111590E+00
         -2   -1    0    0    0  501 -0.00000000000E+00  0.00000000000E+00  0.40147983766E+03  0.40147983766E+03  0.00000000000E+00 0. -1.
          2   -1    0    0  502    0  0.00000000000E+00 -0.00000000000E+00 -0.19175671839E+03  0.19175671839E+03  0.00000000000E+00 0.  1.
          6    1    1    2  502    0  0.11222320948E+03 -0.14611902505E+03  0.22727688183E+03  0.33989498267E+03  0.17300000000E+03 0. -1.
         -6    1    1    2    0  501 -0.11222320948E+03  0.14611902505E+03 -0.17553762564E+02  0.25334157339E+03  0.17300000000E+03 0.  1.
<mgrwt>
<rscale>  2 0.25273270E+03</rscale>
<asrwt>0</asrwt>
<pdfrwt beam="1">  1        2 0.29501034E-01 0.25273270E+03</pdfrwt>
<pdfrwt beam="2">  1       -2 0.61766129E-01 0.25273270E+03</pdfrwt>
<totfact> 0.44621640E+02</totfact>
</mgrwt>
</event>
<event>
 4    1  0.1790407E+000  0.2243805E+03  0.7546771E-02  0.1130659E+00
          2   -1    0    0  502    0  0.00000000000E+00  0.00000000000E+00  0.21122767119E+04  0.21122767119E+04  0.00000000000E+00 0. -1.
         -2   -1    0    0    0  501 -0.00000000000E+00 -0.00000000000E+00 -0.23884730081E+02  0.23884730081E+02  0.00000000000E+00 0.  1.
          6    1    1    2  502    0 -0.23971664174E+02  0.14086508890E+03  0.99557537197E+03  0.10205473704E+04  0.17300000000E+03 0.  1.
         -6    1    1    2    0  501  0.23971664174E+02 -0.14086508890E+03  0.10928166099E+04  0.11156140716E+04  0.17300000000E+03 0. -1.
<mgrwt>
<rscale>  2 0.22438051E+03</rscale>
<asrwt>0</asrwt>
<pdfrwt beam="1">  1        2 0.32496550E+00 0.22438051E+03</pdfrwt>
<pdfrwt beam="2">  1       -2 0.36745755E-02 0.22438051E+03</pdfrwt>
<totfact> 0.20307114E+03</totfact>
</mgrwt>
</event>
<event>
 4    1  0.1790407E+000  0.2309414E+03  0.7546771E-02  0.1125979E+00
         -2   -1    0    0    0  501 -0.00000000000E+00  0.00000000000E+00  0.46007929463E+03  0.46007929463E+03  0.00000000000E+00 0.  1.
          2   -1    0    0  502    0  0.00000000000E+00 -0.00000000000E+00 -0.22291123728E+03  0.22291123728E+03  0.00000000000E+00 0. -1.
          6    1    1    2  502    0  0.10343491898E+03  0.11272161186E+03  0.35516835151E+03  0.42364903182E+03  0.17300000000E+03 0.  1.
         -6    1    1    2    0  501 -0.10343491898E+03 -0.11272161186E+03 -0.11800029416E+03  0.25934150009E+03  0.17300000000E+03 0. -1.
<mgrwt>
<rscale>  2 0.23094143E+03</rscale>
<asrwt>0</asrwt>
<pdfrwt beam="1">  1        2 0.34294037E-01 0.23094143E+03</pdfrwt>
<pdfrwt beam="2">  1       -2 0.70781430E-01 0.23094143E+03</pdfrwt>
<totfact> 0.28350991E+02</totfact>
</mgrwt>
</event>
<event>
 4    1  0.1790407E+000  0.2470885E+03  0.7546771E-02  0.1115159E+00
          3   -1    0    0  502    0  0.00000000000E+00  0.00000000000E+00  0.27540757490E+03  0.27540757490E+03  0.00000000000E+00 0. -1.
         -3   -1    0    0    0  501 -0.00000000000E+00 -0.00000000000E+00 -0.57978579437E+03  0.57978579437E+03  0.00000000000E+00 0.  1.
          6    1    1    2  502    0 -0.16434083588E+03  0.64154696722E+02 -0.48824024911E+03  0.54720313989E+03  0.17300000000E+03 0.  1.
         -6    1    1    2    0  501  0.16434083588E+03 -0.64154696722E+02  0.18386202964E+03  0.30799022938E+03  0.17300000000E+03 0. -1.
<mgrwt>
<rscale>  2 0.24708852E+03</rscale>
<asrwt>0</asrwt>
<pdfrwt beam="1">  1        3 0.42370396E-01 0.24708852E+03</pdfrwt>
<pdfrwt beam="2">  1       -3 0.89197814E-01 0.24708852E+03</pdfrwt>
<totfact> 0.16058316E+01</totfact>
</mgrwt>
</event>
<event>
 4    1  0.1790407E+000  0.7477482E+03  0.7546771E-02  0.9638890E-01
          1   -1    0    0  502    0  0.00000000000E+00  0.00000000000E+00  0.25738932727E+04  0.25738932727E+04  0.00000000000E+00 0. -1.
         -1   -1    0    0    0  501 -0.00000000000E+00 -0.00000000000E+00 -0.22742140037E+03  0.22742140037E+03  0.00000000000E+00 0.  1.
          6    1    1    2  502    0 -0.56570497998E+03  0.45735783929E+03  0.14697389950E+04  0.16490178989E+04  0.17300000000E+03 0. -1.
         -6    1    1    2    0  501  0.56570497998E+03 -0.45735783929E+03  0.87673287730E+03  0.11522967741E+04  0.17300000000E+03 0.  1.
<mgrwt>
<rscale>  2 0.74774816E+03</rscale>
<asrwt>0</asrwt>
<pdfrwt beam="1">  1        1 0.39598356E+00 0.74774816E+03</pdfrwt>
<pdfrwt beam="2">  1       -1 0.34987910E-01 0.74774816E+03</pdfrwt>
<totfact> 0.98589932E+00</totfact>
</mgrwt>
</event>
<event>
 4    1  0.1790407E+000  0.2013458E+03  0.7546771E-02  0.1148609E+00
         -1   -1    0    0    0  501 -0.00000000000E+00  0.00000000000E+00  0.53426556242E+02  0.53426556242E+02  0.00000000000E+00 0. -1.
          1   -1    0    0  502    0  0.00000000000E+00 -0.00000000000E+00 -0.92746645798E+03  0.92746645798E+03  0.00000000000E+00 0.  1.
          6    1    1    2  502    0 -0.78147539812E+02  0.67112502757E+02 -0.22787105619E+03  0.30408114749E+03  0.17300000000E+03 0. -1.
         -6    1    1    2    0  501  0.78147539812E+02 -0.67112502757E+02 -0.64616884554E+03  0.67681186674E+03  0.17300000000E+03 0.  1.
<mgrwt>
<rscale>  2 0.20134579E+03</rscale>
<asrwt>0</asrwt>
<pdfrwt beam="1">  1        1 0.14268714E+00 0.20134579E+03</pdfrwt>
<pdfrwt beam="2">  1       -1 0.82194707E-02 0.20134579E+03</pdfrwt>
<totfact> 0.14996612E+03</totfact>
</mgrwt>
</event>
<event>
 4    1  0.1790407E+000  0.2147408E+03  0.7546771E-02  0.1137866E+00
          1   -1    0    0  502    0  0.00000000000E+00  0.00000000000E+00  0.12352741806E+04  0.12352741806E+04  0.00000000000E+00 0. -1.
         -1   -1    0    0    0  501 -0.00000000000E+00 -0.00000000000E+00 -0.40184145606E+02  0.40184145606E+02  0.00000000000E+00 0.  1.
          6    1    1    2  502    0 -0.93685640716E+01  0.12687333676E+03  0.42760488900E+03  0.47849718356E+03  0.17300000000E+03 0.  1.
         -6    1    1    2    0  501  0.93685640716E+01 -0.12687333676E+03  0.76748514599E+03  0.79696114265E+03  0.17300000000E+03 0. -1.
<mgrwt>
<rscale>  2 0.21474081E+03</rscale>
<asrwt>0</asrwt>
<pdfrwt beam="1">  1        1 0.19004215E+00 0.21474081E+03</pdfrwt>
<pdfrwt beam="2">  1       -1 0.61821772E-02 0.21474081E+03</pdfrwt>
<totfact> 0.13834369E+03</totfact>
</mgrwt>
</event>
<event>
 4    1  0.1790407E+000  0.1873797E+03  0.7546771E-02  0.1160846E+00
          1   -1    0    0  502    0  0.00000000000E+00  0.00000000000E+00  0.27470925020E+03  0.27470925020E+03  0.00000000000E+00 0.  1.
         -1   -1    0    0    0  501 -0.00000000000E+00 -0.00000000000E+00 -0.16160777714E+03  0.16160777714E+03  0.00000000000E+00 0. -1.
          6    1    1    2  502    0  0.70261833441E+02 -0.15666585280E+02  0.15631421679E+03  0.24401905972E+03  0.17300000000E+03 0.  1.
         -6    1    1    2    0  501 -0.70261833441E+02  0.15666585280E+02 -0.43212743732E+02  0.19229796763E+03  0.17300000000E+03 0.  1.
<mgrwt>
<rscale>  2 0.18737974E+03</rscale>
<asrwt>0</asrwt>
<pdfrwt beam="1">  1        1 0.42262962E-01 0.18737974E+03</pdfrwt>
<pdfrwt beam="2">  1       -1 0.24862735E-01 0.18737974E+03</pdfrwt>
<totfact> 0.13675884E+03</totfact>
</mgrwt>
</event>
<event>
 4    1  0.1790407E+000  0.2279021E+03  0.7546771E-02  0.1128125E+00
          2   -1    0    0  502    0  0.00000000000E+00  0.00000000000E+00  0.60445368592E+03  0.60445368592E+03  0.00000000000E+00 0. -1.
         -2   -1    0    0    0  501 -0.00000000000E+00 -0.00000000000E+00 -0.93042326444E+02  0.93042326444E+02  0.00000000000E+00 0.  1.
          6    1    1    2  502    0 -0.84596836353E+02  0.12187589073E+03  0.35214305004E+03  0.41945689308E+03  0.17300000000E+03 0.  1.
         -6    1    1    2    0  501  0.84596836353E+02 -0.12187589073E+03  0.15926830943E+03  0.27803911928E+03  0.17300000000E+03 0.  1.
<mgrwt>
<rscale>  2 0.22790208E+03</rscale>
<asrwt>0</asrwt>
<pdfrwt beam="1">  1        2 0.92992872E-01 0.22790208E+03</pdfrwt>
<pdfrwt beam="2">  1       -2 0.14314204E-01 0.22790208E+03</pdfrwt>
<totfact> 0.18440187E+03</totfact>
</mgrwt>
</event>
<event>
 4    1  0.1790407E+000  0.1799171E+03  0.7546771E-02  0.1167883E+00
         -3   -1    0    0    0  501 -0.00000000000E+00  0.00000000000E+00  0.23068515604E+03  0.23068515604E+03  0.00000000000E+00 0. -1.
          3   -1    0    0  502    0  0.00000000000E+00 -0.00000000000E+00 -0.15644989488E+03  0.15644989488E+03  0.00000000000E+00 0.  1.
          6    1    1    2  502    0  0.49389852663E+02  0.13457074720E+01  0.99266851125E+02  0.20548497806E+03  0.17300000000E+03 0. -1.
         -6    1    1    2    0  501 -0.49389852663E+02 -0.13457074720E+01 -0.25031589970E+02  0.18165007286E+03  0.17300000000E+03 0.  1.
<mgrwt>
<rscale>  2 0.17991712E+03</rscale>
<asrwt>0</asrwt>
<pdfrwt beam="1">  1        3 0.24069214E-01 0.17991712E+03</pdfrwt>
<pdfrwt beam="2">  1       -3 0.35490024E-01 0.17991712E+03</pdfrwt>
<totfact> 0.30361223E+02</totfact>
</mgrwt>
</event>
<event>
 4    1  0.1790407E+000  0.2834162E+03  0.7546771E-02  0.1093838E+00
          2   -1    0    0  502    0  0.00000000000E+00  0.00000000000E+00  0.16800347352E+04  0.16800347352E+04  0.00000000000E+00 0.  1.
         -2   -1    0    0    0  501 -0.00000000000E+00 -0.00000000000E+00 -0.55321920375E+02  0.55321920375E+02  0.00000000000E+00 0. -1.
          6    1    1    2  502    0 -0.31364601358E+02 -0.22228809055E+03  0.11320592559E+04  0.11669973832E+04  0.17300000000E+03 0.  1.
         -6    1    1    2    0  501  0.31364601358E+02  0.22228809055E+03  0.49265355888E+03  0.56835927238E+03  0.17300000000E+03 0. -1.
<mgrwt>
<rscale>  2 0.28341618E+03</rscale>
<asrwt>0</asrwt>
<pdfrwt beam="1">  1        2 0.25846684E+00 0.28341618E+03</pdfrwt>
<pdfrwt beam="2">  1       -2 0.85110660E-02 0.28341618E+03</pdfrwt>
<totfact> 0.93867726E+02</totfact>
</mgrwt>
</event>
<event>
 4    1  0.1790407E+000  0.1757207E+03  0.7546771E-02  0.1172010E+00
          2   -1    0    0  502    0  0.00000000000E+00  0.00000000000E+00  0.26394029727E+03  0.26394029727E+03  0.00000000000E+00 0. -1.
         -2   -1    0    0    0  501 -0.00000000000E+00 -0.00000000000E+00 -0.18079191548E+03  0.18079191548E+03  0.00000000000E+00 0.  1.
          6    1    1    2  502    0 -0.29661600900E+02 -0.83035625028E+01  0.17367451586E+03  0.24706395362E+03  0.17300000000E+03 0. -1.
         -6    1    1    2    0  501  0.29661600900E+02  0.83035625028E+01 -0.90526134065E+02  0.19766825913E+03  0.17300000000E+03 0.  1.
<mgrwt>
<rscale>  2 0.17572069E+03</rscale>
<asrwt>0</asrwt>
<pdfrwt beam="1">  1        2 0.40606200E-01 0.17572069E+03</pdfrwt>
<pdfrwt beam="2">  1       -2 0.27814141E-01 0.17572069E+03</pdfrwt>
<totfact> 0.14593945E+03</totfact>
</mgrwt>
</event>
<event>
 4    1  0.1790407E+000  0.1822563E+03  0.7546771E-02  0.1165637E+00
         -2   -1    0    0    0  501 -0.00000000000E+00  0.00000000000E+00  0.24668433357E+02  0.24668433357E+02  0.00000000000E+00 0.  1.
          2   -1    0    0  502    0  0.00000000000E+00 -0.00000000000E+00 -0.25567479602E+04  0.25567479602E+04  0.00000000000E+00 0. -1.
          6    1    1    2  502    0  0.55877887122E+02 -0.12885009028E+02 -0.37804232060E+03  0.41968244887E+03  0.17300000000E+03 0.  1.
         -6    1    1    2    0  501 -0.55877887122E+02  0.12885009028E+02 -0.21540372063E+04  0.21617339447E+04  0.17300000000E+03 0. -1.
<mgrwt>
<rscale>  2 0.18225631E+03</rscale>
<asrwt>0</asrwt>
<pdfrwt beam="1">  1        2 0.39334586E+00 0.18225631E+03</pdfrwt>
<pdfrwt beam="2">  1       -2 0.37951434E-02 0.18225631E+03</pdfrwt>
<totfact> 0.11275937E+03</totfact>
</mgrwt>
</event>
<event>
 4    1  0.1790407E+000  0.1922955E+03  0.7546771E-02  0.1156407E+00
         -1   -1    0    0    0  501 -0.00000000000E+00  0.00000000000E+00  0.86307711193E+02  0.86307711193E+02  0.00000000000E+00 0.  1.
          1   -1    0    0  502    0  0.00000000000E+00 -0.00000000000E+00 -0.45518402214E+03  0.45518402214E+03  0.00000000000E+00 0. -1.
          6    1    1    2  502    0  0.24682966816E+02  0.80245194731E+02 -0.25006695401E+03  0.31545367586E+03  0.17300000000E+03 0. -1.
         -6    1    1    2    0  501 -0.24682966816E+02 -0.80245194731E+02 -0.11880935694E+03  0.22603805747E+03  0.17300000000E+03 0.  1.
<mgrwt>
<rscale>  2 0.19229545E+03</rscale>
<asrwt>0</asrwt>
<pdfrwt beam="1">  1        1 0.70028313E-01 0.19229545E+03</pdfrwt>
<pdfrwt beam="2">  1       -1 0.13278109E-01 0.19229545E+03</pdfrwt>
<totfact> 0.19791152E+03</totfact>
</mgrwt>
</event>
<event>
 4    1  0.1790407E+000  0.2106225E+03  0.7546771E-02  0.1141074E+00
         -2   -1    0    0    0  501 -0.00000000000E+00  0.00000000000E+00  0.58802784872E+02  0.58802784872E+02  0.00000000000E+00 0.  1.
          2   -1    0    0  502    0  0.00000000000E+00 -0.00000000000E+00 -0.85528022340E+03  0.85528022340E+03  0.00000000000E+00 0. -1.
          6    1    1    2  502    0 -0.11838933767E+03  0.20416042506E+02 -0.55519068760E+03  0.59380009234E+03  0.17300000000E+03 0. -1.
         -6    1    1    2    0  501  0.11838933767E+03 -0.20416042506E+02 -0.24128675093E+03  0.32028291593E+03  0.17300000000E+03 0.  1.
<mgrwt>
<rscale>  2 0.21062253E+03</rscale>
<asrwt>0</asrwt>
<pdfrwt beam="1">  1        2 0.13158156E+00 0.21062253E+03</pdfrwt>
<pdfrwt beam="2">  1       -2 0.90465831E-02 0.21062253E+03</pdfrwt>
<totfact> 0.25176019E+03</totfact>
</mgrwt>
</event>
<event>
 4    1  0.1790407E+000  0.2768909E+03  0.7546771E-02  0.1097399E+00
          2   -1    0    0  502    0  0.00000000000E+00  0.00000000000E+00  0.55644785673E+03  0.55644785673E+03  0.00000000000E+00 0.  1.
         -2   -1    0    0    0  501 -0.00000000000E+00 -0.00000000000E+00 -0.16207072928E+03  0.16207072928E+03  0.00000000000E+00 0. -1.
          6    1    1    2  502    0  0.12949615095E+03  0.17311929545E+03  0.58110898174E+02  0.28292299315E+03  0.17300000000E+03 0.  1.
         -6    1    1    2    0  501 -0.12949615095E+03 -0.17311929545E+03  0.33626622927E+03  0.43559559286E+03  0.17300000000E+03 0.  1.
<mgrwt>
<rscale>  2 0.27689085E+03</rscale>
<asrwt>0</asrwt>
<pdfrwt beam="1">  1        2 0.85607361E-01 0.27689085E+03</pdfrwt>
<pdfrwt beam="2">  1       -2 0.24933959E-01 0.27689085E+03</pdfrwt>
<totfact> 0.78913756E+02</totfact>
</mgrwt>
</event>
<event>
 4    1  0.1790407E+000  0.2152275E+03  0.7546771E-02  0.1137492E+00
          2   -1    0    0  502    0  0.00000000000E+00  0.00000000000E+00  0.10167382143E+04  0.10167382143E+04  0.00000000000E+00 0. -1.
         -2   -1    0    0    0  501 -0.00000000000E+00 -0.00000000000E+00 -0.53643016903E+02  0.53643016903E+02  0.00000000000E+00 0.  1.
          6    1    1    2  502    0  0.12802631149E+03  0.17742542134E+01  0.68929276950E+03  0.72211315353E+03  0.17300000000E+03 0. -1.
         -6    1    1    2    0  501 -0.12802631149E+03 -0.17742542134E+01  0.27380242794E+03  0.34826807772E+03  0.17300000000E+03 0.  1.
<mgrwt>
<rscale>  2 0.21522752E+03</rscale>
<asrwt>0</asrwt>
<pdfrwt beam="1">  1        2 0.15642125E+00 0.21522752E+03</pdfrwt>
<pdfrwt beam="2">  1       -2 0.82527726E-02 0.21522752E+03</pdfrwt>
<totfact> 0.23010801E+03</totfact>
</mgrwt>
</event>
<event>
 4    1  0.1790407E+000  0.2232812E+03  0.7546771E-02  0.1131460E+00
         -1   -1    0    0    0  501 -0.00000000000E+00  0.00000000000E+00  0.60064908176E+02  0.60064908176E+02  0.00000000000E+00 0.  1.
          1   -1    0    0  502    0  0.00000000000E+00 -0.00000000000E+00 -0.96935461866E+03  0.96935461866E+03  0.00000000000E+00 0. -1.
          6    1    1    2  502    0  0.89011312732E+02 -0.10955576760E+03 -0.64979371611E+03  0.68708540481E+03  0.17300000000E+03 0. -1.
         -6    1    1    2    0  501 -0.89011312732E+02  0.10955576760E+03 -0.25949599438E+03  0.34233412203E+03  0.17300000000E+03 0.  1.
<mgrwt>
<rscale>  2 0.22328117E+03</rscale>
<asrwt>0</asrwt>
<pdfrwt beam="1">  1        1 0.14913148E+00 0.22328117E+03</pdfrwt>
<pdfrwt beam="2">  1       -1 0.92407550E-02 0.22328117E+03</pdfrwt>
<totfact> 0.11646563E+03</totfact>
</mgrwt>
</event>
<event>
 4    1  0.1790407E+000  0.2108880E+03  0.7546771E-02  0.1140865E+00
          2   -1    0    0  502    0  0.00000000000E+00  0.00000000000E+00  0.10371466541E+04  0.10371466541E+04  0.00000000000E+00 0.  1.
         -2   -1    0    0    0  501 -0.00000000000E+00 -0.00000000000E+00 -0.51310989361E+02  0.51310989361E+02  0.00000000000E+00 0. -1.
          6    1    1    2  502    0  0.31110163364E+02  0.11652006865E+03  0.71351135852E+03  0.74402434598E+03  0.17300000000E+03 0.  1.
         -6    1    1    2    0  501 -0.31110163364E+02 -0.11652006865E+03  0.27232430622E+03  0.34443329749E+03  0.17300000000E+03 0.  1.
<mgrwt>
<rscale>  2 0.21088805E+03</rscale>
<asrwt>0</asrwt>
<pdfrwt beam="1">  1        2 0.15956101E+00 0.21088805E+03</pdfrwt>
<pdfrwt beam="2">  1       -2 0.78939991E-02 0.21088805E+03</pdfrwt>
<totfact> 0.23972131E+03</totfact>
</mgrwt>
</event>
<event>
 4    1  0.1790407E+000  0.2190701E+03  0.7546771E-02  0.1134578E+00
          1   -1    0    0  502    0  0.00000000000E+00  0.00000000000E+00  0.16938918105E+03  0.16938918105E+03  0.00000000000E+00 0. -1.
         -1   -1    0    0    0  501 -0.00000000000E+00 -0.00000000000E+00 -0.28336843704E+03  0.28336843704E+03  0.00000000000E+00 0.  1.
          6    1    1    2  502    0  0.12829594651E+02  0.13378380721E+03 -0.54096096135E+02  0.22565037821E+03  0.17300000000E+03 0. -1.
         -6    1    1    2    0  501 -0.12829594651E+02 -0.13378380721E+03 -0.59883159856E+02  0.22710723988E+03  0.17300000000E+03 0. -1.
<mgrwt>
<rscale>  2 0.21907009E+03</rscale>
<asrwt>0</asrwt>
<pdfrwt beam="1">  1        1 0.26059874E-01 0.21907009E+03</pdfrwt>
<pdfrwt beam="2">  1       -1 0.43595144E-01 0.21907009E+03</pdfrwt>
<totfact> 0.95734204E+02</totfact>
</mgrwt>
</event>
<event>
 4    1  0.1790407E+000  0.1791426E+03  0.7546771E-02  0.1168635E+00
          4   -1    0    0  502    0  0.00000000000E+00  0.00000000000E+00  0.28223534241E+03  0.28223534241E+03  0.00000000000E+00 0.  1.
         -4   -1    0    0    0  501 -0.00000000000E+00 -0.00000000000E+00 -0.13670106272E+03  0.13670106272E+03  0.00000000000E+00 0. -1.
          6    1    1    2  502    0 -0.44166354618E+02 -0.14573568545E+02 -0.13142645978E+02  0.17962400988E+03  0.17300000000E+03 0. -1.
         -6    1    1    2    0  501  0.44166354618E+02  0.14573568545E+02  0.15867692567E+03  0.23931239525E+03  0.17300000000E+03 0.  1.
<mgrwt>
<rscale>  2 0.17914256E+03</rscale>
<asrwt>0</asrwt>
<pdfrwt beam="1">  1        4 0.43420822E-01 0.17914256E+03</pdfrwt>
<pdfrwt beam="2">  1       -4 0.21030933E-01 0.17914256E+03</pdfrwt>
<totfact> 0.18593359E+02</totfact>
</mgrwt>
</event>
<event>
 4    1  0.1790407E+000  0.1777302E+03  0.7546771E-02  0.1170018E+00
          1   -1    0    0  502    0  0.00000000000E+00  0.00000000000E+00  0.21750320691E+04  0.21750320691E+04  0.00000000000E+00 0. -1.
         -1   -1    0    0    0  501 -0.00000000000E+00 -0.00000000000E+00 -0.22320508555E+02  0.22320508555E+02  0.00000000000E+00 0.  1.
          6    1    1    2  502    0 -0.65257982006E+01  0.40204833857E+02  0.17257304323E+04  0.17348583630E+04  0.17300000000E+03 0. -1.
         -6    1    1    2    0  501  0.65257982006E+01 -0.40204833857E+02  0.42698112819E+03  0.46249421460E+03  0.17300000000E+03 0.  1.
<mgrwt>
<rscale>  2 0.17773017E+03</rscale>
<asrwt>0</asrwt>
<pdfrwt beam="1">  1        1 0.33462015E+00 0.17773017E+03</pdfrwt>
<pdfrwt beam="2">  1       -1 0.34339261E-02 0.17773017E+03</pdfrwt>
<totfact> 0.81098662E+02</totfact>
</mgrwt>
</event>
<event>
 4    1  0.1790407E+000  0.2110279E+03  0.7546771E-02  0.1140755E+00
         -1   -1    0    0    0  501 -0.00000000000E+00  0.00000000000E+00  0.13770580668E+04  0.13770580668E+04  0.00000000000E+00 0. -1.
          1   -1    0    0  502    0  0.00000000000E+00 -0.00000000000E+00 -0.39703939007E+02  0.39703939007E+02  0.00000000000E+00 0.  1.
          6    1    1    2  502    0 -0.66069272233E+02 -0.10118600591E+03  0.97377064091E+03  0.99637443646E+03  0.17300000000E+03 0. -1.
         -6    1    1    2    0  501  0.66069272233E+02  0.10118600591E+03  0.36358348683E+03  0.42038756930E+03  0.17300000000E+03 0.  1.
<mgrwt>
<rscale>  2 0.21102786E+03</rscale>
<asrwt>0</asrwt>
<pdfrwt beam="1">  1        1 0.61082994E-02 0.21102786E+03</pdfrwt>
<pdfrwt beam="2">  1       -1 0.21185505E+00 0.21102786E+03</pdfrwt>
<totfact> 0.17664521E+02</totfact>
</mgrwt>
</event>
<event>
 4    1  0.1790407E+000  0.3038513E+03  0.7546771E-02  0.1083331E+00
          1   -1    0    0  502    0  0.00000000000E+00  0.00000000000E+00  0.46117600064E+03  0.46117600064E+03  0.00000000000E+00 0.  1.
         -1   -1    0    0    0  501 -0.00000000000E+00 -0.00000000000E+00 -0.20141388251E+03  0.20141388251E+03  0.00000000000E+00 0. -1.
          6    1    1    2  502    0  0.72696541369E+02 -0.23898085039E+03  0.15564166281E+03  0.34139414345E+03  0.17300000000E+03 0.  1.
         -6    1    1    2    0  501 -0.72696541369E+02  0.23898085039E+03  0.10412045532E+03  0.32119573969E+03  0.17300000000E+03 0. -1.
<mgrwt>
<rscale>  2 0.30385134E+03</rscale>
<asrwt>0</asrwt>
<pdfrwt beam="1">  1        1 0.70950154E-01 0.30385134E+03</pdfrwt>
<pdfrwt beam="2">  1       -1 0.30986751E-01 0.30385134E+03</pdfrwt>
<totfact> 0.48797907E+02</totfact>
</mgrwt>
</event>
<event>
 4    1  0.1790407E+000  0.1753114E+03  0.7546771E-02  0.1172419E+00
          3   -1    0    0  502    0  0.00000000000E+00  0.00000000000E+00  0.75782477096E+02  0.75782477096E+02  0.00000000000E+00 0.  1.
         -3   -1    0    0    0  501 -0.00000000000E+00 -0.00000000000E+00 -0.51166620232E+03  0.51166620232E+03  0.00000000000E+00 0. -1.
          6    1    1    2  502    0 -0.24296872021E+02  0.14654895707E+02 -0.35170097201E+03  0.39297287142E+03  0.17300000000E+03 0. -1.
         -6    1    1    2    0  501  0.24296872021E+02 -0.14654895707E+02 -0.84182753216E+02  0.19447580800E+03  0.17300000000E+03 0.  1.
<mgrwt>
<rscale>  2 0.17531145E+03</rscale>
<asrwt>0</asrwt>
<pdfrwt beam="1">  1        3 0.11658843E-01 0.17531145E+03</pdfrwt>
<pdfrwt beam="2">  1       -3 0.78717874E-01 0.17531145E+03</pdfrwt>
<totfact> 0.21209260E+02</totfact>
</mgrwt>
</event>
<event>
 4    1  0.1790407E+000  0.2929355E+03  0.7546771E-02  0.1088826E+00
          1   -1    0    0  502    0  0.00000000000E+00  0.00000000000E+00  0.19811110139E+03  0.19811110139E+03  0.00000000000E+00 0.  1.
         -1   -1    0    0    0  501 -0.00000000000E+00 -0.00000000000E+00 -0.76659762527E+03  0.76659762527E+03  0.00000000000E+00 0. -1.
          6    1    1    2  502    0  0.16751551837E+03 -0.16679547091E+03 -0.60236871128E+03  0.66982030601E+03  0.17300000000E+03 0. -1.
         -6    1    1    2    0  501 -0.16751551837E+03  0.16679547091E+03  0.33882187393E+02  0.29488842065E+03  0.17300000000E+03 0.  1.
<mgrwt>
<rscale>  2 0.29293545E+03</rscale>
<asrwt>0</asrwt>
<pdfrwt beam="1">  1        1 0.30478631E-01 0.29293545E+03</pdfrwt>
<pdfrwt beam="2">  1       -1 0.11793810E+00 0.29293545E+03</pdfrwt>
<totfact> 0.10279477E+02</totfact>
</mgrwt>
</event>
<event>
 4    1  0.1790407E+000  0.4445661E+03  0.7546771E-02  0.1029355E+00
          2   -1    0    0  502    0  0.00000000000E+00  0.00000000000E+00  0.76089809787E+03  0.76089809787E+03  0.00000000000E+00 0.  1.
         -2   -1    0    0    0  501 -0.00000000000E+00 -0.00000000000E+00 -0.32036210288E+03  0.32036210288E+03  0.00000000000E+00 0. -1.
          6    1    1    2  502    0  0.22963003385E+03  0.33908716068E+03 -0.14900544299E+02  0.44481578345E+03  0.17300000000E+03 0. -1.
         -6    1    1    2    0  501 -0.22963003385E+03 -0.33908716068E+03  0.45543653930E+03  0.63644441730E+03  0.17300000000E+03 0.  1.
<mgrwt>
<rscale>  2 0.44456614E+03</rscale>
<asrwt>0</asrwt>
<pdfrwt beam="1">  1        2 0.11706125E+00 0.44456614E+03</pdfrwt>
<pdfrwt beam="2">  1       -2 0.49286478E-01 0.44456614E+03</pdfrwt>
<totfact> 0.14819085E+02</totfact>
</mgrwt>
</event>
<event>
 4    1  0.1790407E+000  0.2510855E+03  0.7546771E-02  0.1112621E+00
          1   -1    0    0  502    0  0.00000000000E+00  0.00000000000E+00  0.37690518495E+02  0.37690518495E+02  0.00000000000E+00 0.  1.
         -1   -1    0    0    0  501 -0.00000000000E+00 -0.00000000000E+00 -0.17667935765E+04  0.17667935765E+04  0.00000000000E+00 0. -1.
          6    1    1    2  502    0  0.11007000076E+03 -0.14491210861E+03 -0.10727951628E+04  0.11017864520E+04  0.17300000000E+03 0. -1.
         -6    1    1    2    0  501 -0.11007000076E+03  0.14491210861E+03 -0.65630789521E+03  0.70269764309E+03  0.17300000000E+03 0.  1.
<mgrwt>
<rscale>  2 0.25108549E+03</rscale>
<asrwt>0</asrwt>
<pdfrwt beam="1">  1        1 0.57985409E-02 0.25108549E+03</pdfrwt>
<pdfrwt beam="2">  1       -1 0.27181442E+00 0.25108549E+03</pdfrwt>
<totfact> 0.78706197E+01</totfact>
</mgrwt>
</event>
<event>
 4    1  0.1790407E+000  0.2235400E+03  0.7546771E-02  0.1131271E+00
         -2   -1    0    0    0  501 -0.00000000000E+00  0.00000000000E+00  0.14290348410E+03  0.14290348410E+03  0.00000000000E+00 0.  1.
          2   -1    0    0  502    0  0.00000000000E+00 -0.00000000000E+00 -0.39065817474E+03  0.39065817474E+03  0.00000000000E+00 0. -1.
          6    1    1    2  502    0  0.84580822919E+02 -0.11352185876E+03 -0.21028374295E+03  0.30690288459E+03  0.17300000000E+03 0. -1.
         -6    1    1    2    0  501 -0.84580822919E+02  0.11352185876E+03 -0.37470947686E+02  0.22665877425E+03  0.17300000000E+03 0. -1.
<mgrwt>
<rscale>  2 0.22353999E+03</rscale>
<asrwt>0</asrwt>
<pdfrwt beam="1">  1        2 0.60101258E-01 0.22353999E+03</pdfrwt>
<pdfrwt beam="2">  1       -2 0.21985151E-01 0.22353999E+03</pdfrwt>
<totfact> 0.14556571E+03</totfact>
</mgrwt>
</event>
<event>
 4    1  0.1790407E+000  0.1904793E+03  0.7546771E-02  0.1158030E+00
         -1   -1    0    0    0  501 -0.00000000000E+00  0.00000000000E+00  0.40612271467E+03  0.40612271467E+03  0.00000000000E+00 0. -1.
          1   -1    0    0  502    0  0.00000000000E+00 -0.00000000000E+00 -0.10312403161E+03  0.10312403161E+03  0.00000000000E+00 0.  1.
          6    1    1    2  502    0  0.54122136311E+02 -0.58516160482E+02  0.58403147651E+02  0.19923171016E+03  0.17300000000E+03 0.  1.
         -6    1    1    2    0  501 -0.54122136311E+02  0.58516160482E+02  0.24459553541E+03  0.31001503612E+03  0.17300000000E+03 0. -1.
<mgrwt>
<rscale>  2 0.19047926E+03</rscale>
<asrwt>0</asrwt>
<pdfrwt beam="1">  1        1 0.15865236E-01 0.19047926E+03</pdfrwt>
<pdfrwt beam="2">  1       -1 0.62480417E-01 0.19047926E+03</pdfrwt>
<totfact> 0.92501472E+02</totfact>
</mgrwt>
</event>
<event>
 4    1  0.1790407E+000  0.3604231E+03  0.7546771E-02  0.1058416E+00
         -1   -1    0    0    0  501 -0.00000000000E+00  0.00000000000E+00  0.55537970211E+03  0.55537970211E+03  0.00000000000E+00 0. -1.
          1   -1    0    0  502    0  0.00000000000E+00 -0.00000000000E+00 -0.24097782027E+03  0.24097782027E+03  0.00000000000E+00 0.  1.
          6    1    1    2  502    0 -0.17093063271E+03  0.26600470694E+03  0.22542820164E+03  0.42511487789E+03  0.17300000000E+03 0. -1.
         -6    1    1    2    0  501  0.17093063271E+03 -0.26600470694E+03  0.88973680211E+02  0.37124264448E+03  0.17300000000E+03 0.  1.
<mgrwt>
<rscale>  2 0.36042306E+03</rscale>
<asrwt>0</asrwt>
<pdfrwt beam="1">  1        1 0.37073511E-01 0.36042306E+03</pdfrwt>
<pdfrwt beam="2">  1       -1 0.85443031E-01 0.36042306E+03</pdfrwt>
<totfact> 0.16413687E+02</totfact>
</mgrwt>
</event>
<event>
 4    1  0.1790407E+000  0.2004035E+03  0.7546771E-02  0.1149399E+00
         -1   -1    0    0    0  501 -0.00000000000E+00  0.00000000000E+00  0.34908514681E+02  0.34908514681E+02  0.00000000000E+00 0. -1.
          1   -1    0    0  502    0  0.00000000000E+00 -0.00000000000E+00 -0.11747436977E+04  0.11747436977E+04  0.00000000000E+00 0.  1.
          6    1    1    2  502    0 -0.80936511921E+02 -0.60678201213E+02 -0.65684036796E+03  0.68673199433E+03  0.17300000000E+03 0.  1.
         -6    1    1    2    0  501  0.80936511921E+02  0.60678201213E+02 -0.48299481505E+03  0.52292021803E+03  0.17300000000E+03 0. -1.
<mgrwt>
<rscale>  2 0.20040350E+03</rscale>
<asrwt>0</asrwt>
<pdfrwt beam="1">  1        1 0.18072980E+00 0.20040350E+03</pdfrwt>
<pdfrwt beam="2">  1       -1 0.53705408E-02 0.20040350E+03</pdfrwt>
<totfact> 0.18828237E+03</totfact>
</mgrwt>
</event>
<event>
 4    1  0.1790407E+000  0.2079533E+03  0.7546771E-02  0.1143197E+00
         -1   -1    0    0    0  501 -0.00000000000E+00  0.00000000000E+00  0.56633784271E+02  0.56633784271E+02  0.00000000000E+00 0. -1.
          1   -1    0    0  502    0  0.00000000000E+00 -0.00000000000E+00 -0.99764655820E+03  0.99764655820E+03  0.00000000000E+00 0.  1.
          6    1    1    2  502    0 -0.11526993170E+03  0.53315606560E+01 -0.72583815958E+03  0.75504014238E+03  0.17300000000E+03 0. -1.
         -6    1    1    2    0  501  0.11526993170E+03 -0.53315606560E+01 -0.21517461435E+03  0.29924020010E+03  0.17300000000E+03 0. -1.
<mgrwt>
<rscale>  2 0.20795332E+03</rscale>
<asrwt>0</asrwt>
<pdfrwt beam="1">  1        1 0.15348407E+00 0.20795332E+03</pdfrwt>
<pdfrwt beam="2">  1       -1 0.87128910E-02 0.20795332E+03</pdfrwt>
<totfact> 0.12141150E+03</totfact>
</mgrwt>
</event>
<event>
 4    1  0.1790407E+000  0.1973207E+03  0.7546771E-02  0.1152019E+00
          2   -1    0    0  502    0  0.00000000000E+00  0.00000000000E+00  0.10585397409E+04  0.10585397409E+04  0.00000000000E+00 0.  1.
         -2   -1    0    0    0  501 -0.00000000000E+00 -0.00000000000E+00 -0.38150160030E+02  0.38150160030E+02  0.00000000000E+00 0. -1.
          6    1    1    2  502    0 -0.75927953276E+02 -0.56933192461E+02  0.40636091437E+03  0.45173513835E+03  0.17300000000E+03 0. -1.
         -6    1    1    2    0  501  0.75927953276E+02  0.56933192461E+02  0.61402866651E+03  0.64495476259E+03  0.17300000000E+03 0.  1.
<mgrwt>
<rscale>  2 0.19732066E+03</rscale>
<asrwt>0</asrwt>
<pdfrwt beam="1">  1        2 0.16285225E+00 0.19732066E+03</pdfrwt>
<pdfrwt beam="2">  1       -2 0.58692562E-02 0.19732066E+03</pdfrwt>
<totfact> 0.36739224E+03</totfact>
</mgrwt>
</event>
<event>
 4    1  0.1790407E+000  0.1815140E+03  0.7546771E-02  0.1166346E+00
         -1   -1    0    0    0  501 -0.00000000000E+00  0.00000000000E+00  0.53316801407E+02  0.53316801407E+02  0.00000000000E+00 0. -1.
          1   -1    0    0  502    0  0.00000000000E+00 -0.00000000000E+00 -0.22190896910E+04  0.22190896910E+04  0.00000000000E+00 0.  1.
          6    1    1    2  502    0 -0.30543407784E+02  0.45666624801E+02 -0.20480093936E+04  0.20560374065E+04  0.17300000000E+03 0.  1.
         -6    1    1    2    0  501  0.30543407784E+02 -0.45666624801E+02 -0.11776349601E+03  0.21636908599E+03  0.17300000000E+03 0. -1.
<mgrwt>
<rscale>  2 0.18151402E+03</rscale>
<asrwt>0</asrwt>
<pdfrwt beam="1">  1        1 0.34139831E+00 0.18151402E+03</pdfrwt>
<pdfrwt beam="2">  1       -1 0.82025872E-02 0.18151402E+03</pdfrwt>
<totfact> 0.20660076E+02</totfact>
</mgrwt>
</event>
<event>
 4    1  0.1790407E+000  0.5216610E+03  0.7546771E-02  0.1008275E+00
          2   -1    0    0  502    0  0.00000000000E+00  0.00000000000E+00  0.15079589371E+04  0.15079589371E+04  0.00000000000E+00 0.  1.
         -2   -1    0    0    0  501 -0.00000000000E+00 -0.00000000000E+00 -0.23461817847E+03  0.23461817847E+03  0.00000000000E+00 0. -1.
          6    1    1    2  502    0 -0.16555374447E+03 -0.46345778860E+03  0.10552738753E+04  0.11771716595E+04  0.17300000000E+03 0.  1.
         -6    1    1    2    0  501  0.16555374447E+03  0.46345778860E+03  0.21806688335E+03  0.56540545605E+03  0.17300000000E+03 0. -1.
<mgrwt>
<rscale>  2 0.52166097E+03</rscale>
<asrwt>0</asrwt>
<pdfrwt beam="1">  1        2 0.23199368E+00 0.52166097E+03</pdfrwt>
<pdfrwt beam="2">  1       -2 0.36095105E-01 0.52166097E+03</pdfrwt>
<totfact> 0.94767347E+01</totfact>
</mgrwt>
</event>
<event>
 4    1  0.1790407E+000  0.2267242E+03  0.7546771E-02  0.1128967E+00
          4   -1    0    0  502    0  0.00000000000E+00  0.00000000000E+00  0.24091956357E+03  0.24091956357E+03  0.00000000000E+00 0. -1.
         -4   -1    0    0    0  501 -0.00000000000E+00 -0.00000000000E+00 -0.49531857925E+03  0.49531857925E+03  0.00000000000E+00 0.  1.
          6    1    1    2  502    0 -0.89006810296E+02  0.11641591177E+03 -0.40493704348E+03  0.46408823081E+03  0.17300000000E+03 0.  1.
         -6    1    1    2    0  501  0.89006810296E+02 -0.11641591177E+03  0.15053802781E+03  0.27214991201E+03  0.17300000000E+03 0. -1.
<mgrwt>
<rscale>  2 0.22672423E+03</rscale>
<asrwt>0</asrwt>
<pdfrwt beam="1">  1        4 0.37064549E-01 0.22672423E+03</pdfrwt>
<pdfrwt beam="2">  1       -4 0.76202858E-01 0.22672423E+03</pdfrwt>
<totfact> 0.20105391E+01</totfact>
</mgrwt>
</event>
<event>
 4    1  0.1790407E+000  0.2240091E+03  0.7546771E-02  0.1130929E+00
         -2   -1    0    0    0  501 -0.00000000000E+00  0.00000000000E+00  0.15806187939E+02  0.15806187939E+02  0.00000000000E+00 0.  1.
          2   -1    0    0  502    0  0.00000000000E+00 -0.00000000000E+00 -0.31750908273E+04  0.31750908273E+04  0.00000000000E+00 0. -1.
          6    1    1    2  502    0 -0.32351903463E+02  0.13858008895E+03 -0.15622038471E+04  0.15781827988E+04  0.17300000000E+03 0.  1.
         -6    1    1    2    0  501  0.32351903463E+02 -0.13858008895E+03 -0.15970807923E+04  0.16127142164E+04  0.17300000000E+03 0.  1.
<mgrwt>
<rscale>  2 0.22400912E+03</rscale>
<asrwt>0</asrwt>
<pdfrwt beam="1">  1        2 0.48847536E+00 0.22400912E+03</pdfrwt>
<pdfrwt beam="2">  1       -2 0.24317220E-02 0.22400912E+03</pdfrwt>
<totfact> 0.95536014E+02</totfact>
</mgrwt>
</event>
<event>
 4    1  0.1790407E+000  0.2825471E+03  0.7546771E-02  0.1094306E+00
          2   -1    0    0  502    0  0.00000000000E+00  0.00000000000E+00  0.59502120524E+03  0.59502120524E+03  0.00000000000E+00 0.  1.
         -2   -1    0    0    0  501 -0.00000000000E+00 -0.00000000000E+00 -0.13930640666E+03  0.13930640666E+03  0.00000000000E+00 0. -1.
          6    1    1    2  502    0 -0.14874479451E+03 -0.16666984144E+03  0.15734177311E+03  0.32340266465E+03  0.17300000000E+03 0.  1.
         -6    1    1    2    0  501  0.14874479451E+03  0.16666984144E+03  0.29837302548E+03  0.41092494725E+03  0.17300000000E+03 0.  1.
<mgrwt>
<rscale>  2 0.28254708E+03</rscale>
<asrwt>0</asrwt>
<pdfrwt beam="1">  1        2 0.91541723E-01 0.28254708E+03</pdfrwt>
<pdfrwt beam="2">  1       -2 0.21431755E-01 0.28254708E+03</pdfrwt>
<totfact> 0.95207001E+02</totfact>
</mgrwt>
</event>
<event>
 4    1  0.1790407E+000  0.2161502E+03  0.7546771E-02  0.1136786E+00
          2   -1    0    0  502    0  0.00000000000E+00  0.00000000000E+00  0.48808418664E+03  0.48808418664E+03  0.00000000000E+00 0. -1.
         -2   -1    0    0    0  501 -0.00000000000E+00 -0.00000000000E+00 -0.16627266257E+03  0.16627266257E+03  0.00000000000E+00 0.  1.
          6    1    1    2  502    0 -0.46784782541E+02  0.12084318969E+03  0.37402450213E+03  0.43198983850E+03  0.17300000000E+03 0. -1.
         -6    1    1    2    0  501  0.46784782541E+02 -0.12084318969E+03 -0.52212978063E+02  0.22236701071E+03  0.17300000000E+03 0.  1.
<mgrwt>
<rscale>  2 0.21615016E+03</rscale>
<asrwt>0</asrwt>
<pdfrwt beam="1">  1        2 0.75089874E-01 0.21615016E+03</pdfrwt>
<pdfrwt beam="2">  1       -2 0.25580410E-01 0.21615016E+03</pdfrwt>
<totfact> 0.87425304E+02</totfact>
</mgrwt>
</event>
<event>
 4    1  0.1790407E+000  0.2312961E+03  0.7546771E-02  0.1125731E+00
         -2   -1    0    0    0  501 -0.00000000000E+00  0.00000000000E+00  0.51230599523E+02  0.51230599523E+02  0.00000000000E+00 0.  1.
          2   -1    0    0  502    0  0.00000000000E+00 -0.00000000000E+00 -0.16478233833E+04  0.16478233833E+04  0.00000000000E+00 0. -1.
          6    1    1    2  502    0 -0.13580207299E+03 -0.71600757911E+02 -0.13124402568E+04  0.13326654866E+04  0.17300000000E+03 0.  1.
         -6    1    1    2    0  501  0.13580207299E+03  0.71600757911E+02 -0.28415252699E+03  0.36638849621E+03  0.17300000000E+03 0.  1.
<mgrwt>
<rscale>  2 0.23129607E+03</rscale>
<asrwt>0</asrwt>
<pdfrwt beam="1">  1        2 0.25351124E+00 0.23129607E+03</pdfrwt>
<pdfrwt beam="2">  1       -2 0.78816323E-02 0.23129607E+03</pdfrwt>
<totfact> 0.11067883E+03</totfact>
</mgrwt>
</event>
<event>
 4    1  0.1790407E+000  0.4376834E+03  0.7546771E-02  0.1031460E+00
         -1   -1    0    0    0  501 -0.00000000000E+00  0.00000000000E+00  0.23660846397E+03  0.23660846397E+03  0.00000000000E+00 0. -1.
          1   -1    0    0  502    0  0.00000000000E+00 -0.00000000000E+00 -0.85066565236E+03  0.85066565236E+03  0.00000000000E+00 0.  1.
          6    1    1    2  502    0 -0.17859508198E+03  0.36019657134E+03 -0.42642123607E+03  0.61106615344E+03  0.17300000000E+03 0. -1.
         -6    1    1    2    0  501  0.17859508198E+03 -0.36019657134E+03 -0.18763595232E+03  0.47620796288E+03  0.17300000000E+03 0.  1.
<mgrwt>
<rscale>  2 0.43768342E+03</rscale>
<asrwt>0</asrwt>
<pdfrwt beam="1">  1        1 0.13087164E+00 0.43768342E+03</pdfrwt>
<pdfrwt beam="2">  1       -1 0.36401302E-01 0.43768342E+03</pdfrwt>
<totfact> 0.15088441E+02</totfact>
</mgrwt>
</event>
<event>
 4    1  0.1790407E+000  0.1889776E+03  0.7546771E-02  0.1159387E+00
         -2   -1    0    0    0  501 -0.00000000000E+00  0.00000000000E+00  0.33190988904E+02  0.33190988904E+02  0.00000000000E+00 0.  1.
          2   -1    0    0  502    0  0.00000000000E+00 -0.00000000000E+00 -0.17359940108E+04  0.17359940108E+04  0.00000000000E+00 0. -1.
          6    1    1    2  502    0 -0.69957728098E+02 -0.29823882389E+02 -0.30595945743E+03  0.35961609707E+03  0.17300000000E+03 0.  1.
         -6    1    1    2    0  501  0.69957728098E+02  0.29823882389E+02 -0.13968435645E+04  0.14095689026E+04  0.17300000000E+03 0. -1.
<mgrwt>
<rscale>  2 0.18897764E+03</rscale>
<asrwt>0</asrwt>
<pdfrwt beam="1">  1        2 0.26707597E+00 0.18897764E+03</pdfrwt>
<pdfrwt beam="2">  1       -2 0.51063065E-02 0.18897764E+03</pdfrwt>
<totfact> 0.19463379E+03</totfact>
</mgrwt>
</event>
<event>
 4    1  0.1790407E+000  0.1836607E+03  0.7546771E-02  0.1164306E+00
         -2   -1    0    0    0  501 -0.00000000000E+00  0.00000000000E+00  0.25048553111E+02  0.25048553111E+02  0.00000000000E+00 0.  1.
          2   -1    0    0  502    0  0.00000000000E+00 -0.00000000000E+00 -0.13778654203E+04  0.13778654203E+04  0.00000000000E+00 0. -1.
          6    1    1    2  502    0  0.36584147505E+02 -0.49637300603E+02 -0.57080314020E+03  0.59962278670E+03  0.17300000000E+03 0. -1.
         -6    1    1    2    0  501 -0.36584147505E+02  0.49637300603E+02 -0.78201372701E+03  0.80329118674E+03  0.17300000000E+03 0.  1.
<mgrwt>
<rscale>  2 0.18366072E+03</rscale>
<asrwt>0</asrwt>
<pdfrwt beam="1">  1        2 0.21197920E+00 0.18366072E+03</pdfrwt>
<pdfrwt beam="2">  1       -2 0.38536253E-02 0.18366072E+03</pdfrwt>
<totfact> 0.45860969E+03</totfact>
</mgrwt>
</event>
<event>
 4    1  0.1790407E+000  0.1866745E+03  0.7546771E-02  0.1161495E+00
          2   -1    0    0  502    0  0.00000000000E+00  0.00000000000E+00  0.16637069278E+04  0.16637069278E+04  0.00000000000E+00 0.  1.
         -2   -1    0    0    0  501 -0.00000000000E+00 -0.00000000000E+00 -0.22739695073E+02  0.22739695073E+02  0.00000000000E+00 0. -1.
          6    1    1    2  502    0  0.14469493338E+02 -0.68622124500E+02  0.58363470955E+03  0.61276164730E+03  0.17300000000E+03 0. -1.
         -6    1    1    2    0  501 -0.14469493338E+02  0.68622124500E+02  0.10573325232E+04  0.10736849756E+04  0.17300000000E+03 0.  1.
<mgrwt>
<rscale>  2 0.18667448E+03</rscale>
<asrwt>0</asrwt>
<pdfrwt beam="1">  1        2 0.25595482E+00 0.18667448E+03</pdfrwt>
<pdfrwt beam="2">  1       -2 0.34984159E-02 0.18667448E+03</pdfrwt>
<totfact> 0.37448936E+03</totfact>
</mgrwt>
</event>
<event>
 4    1  0.1790407E+000  0.2191180E+03  0.7546771E-02  0.1134542E+00
          2   -1    0    0  502    0  0.00000000000E+00  0.00000000000E+00  0.14522023334E+03  0.14522023334E+03  0.00000000000E+00 0.  1.
         -2   -1    0    0    0  501 -0.00000000000E+00 -0.00000000000E+00 -0.54192502529E+03  0.54192502529E+03  0.00000000000E+00 0. -1.
          6    1    1    2  502    0  0.12965816985E+03 -0.35671358908E+02  0.16185519696E+02  0.21971494693E+03  0.17300000000E+03 0.  1.
         -6    1    1    2    0  501 -0.12965816985E+03  0.35671358908E+02 -0.41289031164E+03  0.46743031171E+03  0.17300000000E+03 0. -1.
<mgrwt>
<rscale>  2 0.21911797E+03</rscale>
<asrwt>0</asrwt>
<pdfrwt beam="1">  1        2 0.22341575E-01 0.21911797E+03</pdfrwt>
<pdfrwt beam="2">  1       -2 0.83373078E-01 0.21911797E+03</pdfrwt>
<totfact> 0.31866733E+02</totfact>
</mgrwt>
</event>
<event>
 4    1  0.1790407E+000  0.1806024E+03  0.7546771E-02  0.1167221E+00
         -2   -1    0    0    0  501 -0.00000000000E+00  0.00000000000E+00  0.57334898171E+03  0.57334898171E+03  0.00000000000E+00 0. -1.
          2   -1    0    0  502    0  0.00000000000E+00 -0.00000000000E+00 -0.63950644442E+02  0.63950644442E+02  0.00000000000E+00 0.  1.
          6    1    1    2  502    0  0.50474794089E+02  0.11854539104E+02  0.36058673052E+03  0.40328652985E+03  0.17300000000E+03 0. -1.
         -6    1    1    2    0  501 -0.50474794089E+02 -0.11854539104E+02  0.14881160675E+03  0.23401309630E+03  0.17300000000E+03 0.  1.
<mgrwt>
<rscale>  2 0.18060242E+03</rscale>
<asrwt>0</asrwt>
<pdfrwt beam="1">  1        2 0.98385611E-02 0.18060242E+03</pdfrwt>
<pdfrwt beam="2">  1       -2 0.88207532E-01 0.18060242E+03</pdfrwt>
<totfact> 0.74034155E+02</totfact>
</mgrwt>
</event>
<event>
 4    1  0.1790407E+000  0.2035617E+03  0.7546771E-02  0.1146768E+00
          2   -1    0    0  502    0  0.00000000000E+00  0.00000000000E+00  0.82617585130E+03  0.82617585130E+03  0.00000000000E+00 0. -1.
         -2   -1    0    0    0  501 -0.00000000000E+00 -0.00000000000E+00 -0.50234778173E+02  0.50234778173E+02  0.00000000000E+00 0.  1.
          6    1    1    2  502    0  0.75720343970E+02  0.75992123797E+02  0.40536398489E+03  0.45360482098E+03  0.17300000000E+03 0. -1.
         -6    1    1    2    0  501 -0.75720343970E+02 -0.75992123797E+02  0.37057708824E+03  0.42280580850E+03  0.17300000000E+03 0. -1.
<mgrwt>
<rscale>  2 0.20356172E+03</rscale>
<asrwt>0</asrwt>
<pdfrwt beam="1">  1        2 0.12710397E+00 0.20356172E+03</pdfrwt>
<pdfrwt beam="2">  1       -2 0.77284280E-02 0.20356172E+03</pdfrwt>
<totfact> 0.33660152E+03</totfact>
</mgrwt>
</event>
<event>
 4    1  0.1790407E+000  0.2013526E+03  0.7546771E-02  0.1148603E+00
          2   -1    0    0  502    0  0.00000000000E+00  0.00000000000E+00  0.71012389146E+03  0.71012389146E+03  0.00000000000E+00 0. -1.
         -2   -1    0    0    0  501 -0.00000000000E+00 -0.00000000000E+00 -0.58168071197E+02  0.58168071197E+02  0.00000000000E+00 0.  1.
          6    1    1    2  502    0 -0.59371844668E+02  0.84195417806E+02  0.37820969453E+03  0.42846873557E+03  0.17300000000E+03 0. -1.
         -6    1    1    2    0  501  0.59371844668E+02 -0.84195417806E+02  0.27374612573E+03  0.33982322709E+03  0.17300000000E+03 0. -1.
<mgrwt>
<rscale>  2 0.20135264E+03</rscale>
<asrwt>0</asrwt>
<pdfrwt beam="1">  1        2 0.10924982E+00 0.20135264E+03</pdfrwt>
<pdfrwt beam="2">  1       -2 0.89489346E-02 0.20135264E+03</pdfrwt>
<totfact> 0.32303983E+03</totfact>
</mgrwt>
</event>
<event>
 4    1  0.1790407E+000  0.1824513E+03  0.7546771E-02  0.1165452E+00
         -2   -1    0    0    0  501 -0.00000000000E+00  0.00000000000E+00  0.16074653141E+03  0.16074653141E+03  0.00000000000E+00 0. -1.
          2   -1    0    0  502    0  0.00000000000E+00 -0.00000000000E+00 -0.21965151653E+03  0.21965151653E+03  0.00000000000E+00 0.  1.
          6    1    1    2  502    0 -0.52479659192E+02 -0.24603892809E+02 -0.74942869097E+02  0.19724325032E+03  0.17300000000E+03 0.  1.
         -6    1    1    2    0  501  0.52479659192E+02  0.24603892809E+02  0.16037883976E+02  0.18315479762E+03  0.17300000000E+03 0. -1.
<mgrwt>
<rscale>  2 0.18245127E+03</rscale>
<asrwt>0</asrwt>
<pdfrwt beam="1">  1        2 0.33792541E-01 0.18245127E+03</pdfrwt>
<pdfrwt beam="2">  1       -2 0.24730236E-01 0.18245127E+03</pdfrwt>
<totfact> 0.21923430E+03</totfact>
</mgrwt>
</event>
<event>
 4    1  0.1790407E+000  0.3186247E+03  0.7546771E-02  0.1076284E+00
         -1   -1    0    0    0  501 -0.00000000000E+00  0.00000000000E+00  0.29177981161E+03  0.29177981161E+03  0.00000000000E+00 0. -1.
          1   -1    0    0  502    0  0.00000000000E+00 -0.00000000000E+00 -0.59982385629E+03  0.59982385629E+03  0.00000000000E+00 0.  1.
          6    1    1    2  502    0  0.25725689293E+03  0.73563606235E+02  0.13486671244E+03  0.34599240345E+03  0.17300000000E+03 0. -1.
         -6    1    1    2    0  501 -0.25725689293E+03 -0.73563606235E+02 -0.44291075711E+03  0.54561126444E+03  0.17300000000E+03 0.  1.
<mgrwt>
<rscale>  2 0.31862472E+03</rscale>
<asrwt>0</asrwt>
<pdfrwt beam="1">  1        1 0.92280592E-01 0.31862472E+03</pdfrwt>
<pdfrwt beam="2">  1       -1 0.44889203E-01 0.31862472E+03</pdfrwt>
<totfact> 0.17711917E+02</totfact>
</mgrwt>
</event>
<event>
 4    1  0.1790407E+000  0.1748264E+03  0.7546771E-02  0.1172906E+00
          2   -1    0    0  502    0  0.00000000000E+00  0.00000000000E+00  0.69266208499E+03  0.69266208499E+03  0.00000000000E+00 0.  1.
         -2   -1    0    0    0  501 -0.00000000000E+00 -0.00000000000E+00 -0.71915017231E+02  0.71915017231E+02  0.00000000000E+00 0. -1.
          6    1    1    2  502    0 -0.13149820842E+02  0.21502707882E+02  0.72733569710E+02  0.18935273010E+03  0.17300000000E+03 0. -1.
         -6    1    1    2    0  501  0.13149820842E+02 -0.21502707882E+02  0.54801349805E+03  0.57522437212E+03  0.17300000000E+03 0.  1.
<mgrwt>
<rscale>  2 0.17482644E+03</rscale>
<asrwt>0</asrwt>
<pdfrwt beam="1">  1        2 0.10656339E+00 0.17482644E+03</pdfrwt>
<pdfrwt beam="2">  1       -2 0.11063849E-01 0.17482644E+03</pdfrwt>
<totfact> 0.23705866E+03</totfact>
</mgrwt>
</event>
<event>
 4    1  0.1790407E+000  0.1807119E+03  0.7546771E-02  0.1167116E+00
          3   -1    0    0  502    0  0.00000000000E+00  0.00000000000E+00  0.28536470744E+03  0.28536470744E+03  0.00000000000E+00 0.  1.
         -3   -1    0    0    0  501 -0.00000000000E+00 -0.00000000000E+00 -0.12544680618E+03  0.12544680618E+03  0.00000000000E+00 0. -1.
          6    1    1    2  502    0  0.51340465549E+02  0.95882796627E+01  0.14080582263E+03  0.22909181172E+03  0.17300000000E+03 0.  1.
         -6    1    1    2    0  501 -0.51340465549E+02 -0.95882796627E+01  0.19112078631E+02  0.18171970190E+03  0.17300000000E+03 0. -1.
<mgrwt>
<rscale>  2 0.18071187E+03</rscale>
<asrwt>0</asrwt>
<pdfrwt beam="1">  1        3 0.43902262E-01 0.18071187E+03</pdfrwt>
<pdfrwt beam="2">  1       -3 0.19299509E-01 0.18071187E+03</pdfrwt>
<totfact> 0.29878259E+02</totfact>
</mgrwt>
</event>
<event>
 4    1  0.1790407E+000  0.2419943E+03  0.7546771E-02  0.1118471E+00
          1   -1    0    0  502    0  0.00000000000E+00  0.00000000000E+00  0.15446397126E+04  0.15446397126E+04  0.00000000000E+00 0.  1.
         -1   -1    0    0    0  501 -0.00000000000E+00 -0.00000000000E+00 -0.40720375185E+02  0.40720375185E+02  0.00000000000E+00 0. -1.
          6    1    1    2  502    0 -0.13933818623E+03  0.96005765423E+02  0.54380951710E+03  0.59522267096E+03  0.17300000000E+03 0.  1.
         -6    1    1    2    0  501  0.13933818623E+03 -0.96005765423E+02  0.96010982036E+03  0.99013741687E+03  0.17300000000E+03 0.  1.
<mgrwt>
<rscale>  2 0.24199429E+03</rscale>
<asrwt>0</asrwt>
<pdfrwt beam="1">  1        1 0.23763683E+00 0.24199429E+03</pdfrwt>
<pdfrwt beam="2">  1       -1 0.62646743E-02 0.24199429E+03</pdfrwt>
<totfact> 0.83920113E+02</totfact>
</mgrwt>
</event>
<event>
 4    1  0.1790407E+000  0.1970247E+03  0.7546771E-02  0.1152274E+00
         -2   -1    0    0    0  501 -0.00000000000E+00  0.00000000000E+00  0.13792671359E+02  0.13792671359E+02  0.00000000000E+00 0.  1.
          2   -1    0    0  502    0  0.00000000000E+00 -0.00000000000E+00 -0.29792009190E+04  0.29792009190E+04  0.00000000000E+00 0. -1.
          6    1    1    2  502    0  0.87211947965E+02  0.35830115368E+02 -0.18346256442E+04  0.18451747818E+04  0.17300000000E+03 0.  1.
         -6    1    1    2    0  501 -0.87211947965E+02 -0.35830115368E+02 -0.11307826035E+04  0.11478188086E+04  0.17300000000E+03 0.  1.
<mgrwt>
<rscale>  2 0.19702467E+03</rscale>
<asrwt>0</asrwt>
<pdfrwt beam="1">  1        2 0.45833851E+00 0.19702467E+03</pdfrwt>
<pdfrwt beam="2">  1       -2 0.21219499E-02 0.19702467E+03</pdfrwt>
<totfact> 0.15371510E+03</totfact>
</mgrwt>
</event>
<event>
 4    1  0.1790407E+000  0.2889380E+03  0.7546771E-02  0.1090905E+00
          1   -1    0    0  502    0  0.00000000000E+00  0.00000000000E+00  0.62450635745E+03  0.62450635745E+03  0.00000000000E+00 0.  1.
         -1   -1    0    0    0  501 -0.00000000000E+00 -0.00000000000E+00 -0.17109454336E+03  0.17109454336E+03  0.00000000000E+00 0. -1.
          6    1    1    2  502    0 -0.22318813437E+03  0.61182026578E+02  0.41272456479E+03  0.50381221708E+03  0.17300000000E+03 0.  1.
         -6    1    1    2    0  501  0.22318813437E+03 -0.61182026578E+02  0.40687249307E+02  0.29178868373E+03  0.17300000000E+03 0.  1.
<mgrwt>
<rscale>  2 0.28893803E+03</rscale>
<asrwt>0</asrwt>
<pdfrwt beam="1">  1        1 0.96077900E-01 0.28893803E+03</pdfrwt>
<pdfrwt beam="2">  1       -1 0.26322238E-01 0.28893803E+03</pdfrwt>
<totfact> 0.42653743E+02</totfact>
</mgrwt>
</event>
<event>
 4    1  0.1790407E+000  0.2081740E+03  0.7546771E-02  0.1143020E+00
          1   -1    0    0  502    0  0.00000000000E+00  0.00000000000E+00  0.52616366177E+03  0.52616366177E+03  0.00000000000E+00 0. -1.
         -1   -1    0    0    0  501 -0.00000000000E+00 -0.00000000000E+00 -0.19487894338E+03  0.19487894338E+03  0.00000000000E+00 0.  1.
          6    1    1    2  502    0 -0.20532727653E+02 -0.11395528923E+03 -0.10829771435E+03  0.23465889240E+03  0.17300000000E+03 0.  1.
         -6    1    1    2    0  501  0.20532727653E+02  0.11395528923E+03  0.43958243275E+03  0.48638371275E+03  0.17300000000E+03 0. -1.
<mgrwt>
<rscale>  2 0.20817397E+03</rscale>
<asrwt>0</asrwt>
<pdfrwt beam="1">  1        1 0.80948255E-01 0.20817397E+03</pdfrwt>
<pdfrwt beam="2">  1       -1 0.29981376E-01 0.20817397E+03</pdfrwt>
<totfact> 0.43570831E+02</totfact>
</mgrwt>
</event>
<event>
 4    1  0.1790407E+000  0.1767310E+03  0.7546771E-02  0.1171005E+00
          1   -1    0    0  502    0  0.00000000000E+00  0.00000000000E+00  0.55810194300E+02  0.55810194300E+02  0.00000000000E+00 0.  1.
         -1   -1    0    0    0  501 -0.00000000000E+00 -0.00000000000E+00 -0.56710456113E+03  0.56710456113E+03  0.00000000000E+00 0. -1.
          6    1    1    2  502    0  0.35110264925E+02  0.84916547959E+01 -0.29137064773E+03  0.34077953762E+03  0.17300000000E+03 0. -1.
         -6    1    1    2    0  501 -0.35110264925E+02 -0.84916547959E+01 -0.21992371910E+03  0.28213521781E+03  0.17300000000E+03 0.  1.
<mgrwt>
<rscale>  2 0.17673098E+03</rscale>
<asrwt>0</asrwt>
<pdfrwt beam="1">  1        1 0.85861837E-02 0.17673098E+03</pdfrwt>
<pdfrwt beam="2">  1       -1 0.87246855E-01 0.17673098E+03</pdfrwt>
<totfact> 0.10620294E+03</totfact>
</mgrwt>
</event>
<event>
 4    1  0.1790407E+000  0.1765741E+03  0.7546771E-02  0.1171160E+00
         -1   -1    0    0    0  501 -0.00000000000E+00  0.00000000000E+00  0.24978200168E+02  0.24978200168E+02  0.00000000000E+00 0. -1.
          1   -1    0    0  502    0  0.00000000000E+00 -0.00000000000E+00 -0.14721882973E+04  0.14721882973E+04  0.00000000000E+00 0.  1.
          6    1    1    2  502    0  0.43466822025E+01  0.35078701258E+02 -0.43162912317E+03  0.46634977099E+03  0.17300000000E+03 0. -1.
         -6    1    1    2    0  501 -0.43466822025E+01 -0.35078701258E+02 -0.10155809740E+04  0.10308167265E+04  0.17300000000E+03 0.  1.
<mgrwt>
<rscale>  2 0.17657409E+03</rscale>
<asrwt>0</asrwt>
<pdfrwt beam="1">  1        1 0.22649047E+00 0.17657409E+03</pdfrwt>
<pdfrwt beam="2">  1       -1 0.38428006E-02 0.17657409E+03</pdfrwt>
<totfact> 0.19498961E+03</totfact>
</mgrwt>
</event>
<event>
 4    1  0.1790407E+000  0.2760414E+03  0.7546771E-02  0.1097871E+00
          2   -1    0    0  502    0  0.00000000000E+00  0.00000000000E+00  0.81446646451E+03  0.81446646451E+03  0.00000000000E+00 0.  1.
         -2   -1    0    0    0  501 -0.00000000000E+00 -0.00000000000E+00 -0.94417128562E+02  0.94417128562E+02  0.00000000000E+00 0. -1.
          6    1    1    2  502    0 -0.47055592603E+02  0.20989437975E+03  0.31664522052E+03  0.42007508272E+03  0.17300000000E+03 0.  1.
         -6    1    1    2    0  501  0.47055592603E+02 -0.20989437975E+03  0.40340411544E+03  0.48880851036E+03  0.17300000000E+03 0. -1.
<mgrwt>
<rscale>  2 0.27604145E+03</rscale>
<asrwt>0</asrwt>
<pdfrwt beam="1">  1        2 0.12530253E+00 0.27604145E+03</pdfrwt>
<pdfrwt beam="2">  1       -2 0.14525713E-01 0.27604145E+03</pdfrwt>
<totfact> 0.12529322E+03</totfact>
</mgrwt>
</event>
<event>
 4    1  0.1790407E+000  0.2562535E+03  0.7546771E-02  0.1109415E+00
         -2   -1    0    0    0  501 -0.00000000000E+00  0.00000000000E+00  0.15345097996E+03  0.15345097996E+03  0.00000000000E+00 0.  1.
          2   -1    0    0  502    0  0.00000000000E+00 -0.00000000000E+00 -0.57683307523E+03  0.57683307523E+03  0.00000000000E+00 0. -1.
          6    1    1    2  502    0  0.39789437442E+02  0.18480702198E+03 -0.26170169839E+02  0.25758632047E+03  0.17300000000E+03 0. -1.
         -6    1    1    2    0  501 -0.39789437442E+02 -0.18480702198E+03 -0.39721192543E+03  0.47269773472E+03  0.17300000000E+03 0.  1.
<mgrwt>
<rscale>  2 0.25625346E+03</rscale>
<asrwt>0</asrwt>
<pdfrwt beam="1">  1        2 0.88743550E-01 0.25625346E+03</pdfrwt>
<pdfrwt beam="2">  1       -2 0.23607843E-01 0.25625346E+03</pdfrwt>
<totfact> 0.83375867E+02</totfact>
</mgrwt>
</event>
<event>
 4    1  0.1790407E+000  0.1894523E+03  0.7546771E-02  0.1158956E+00
         -2   -1    0    0    0  501 -0.00000000000E+00  0.00000000000E+00  0.95910478920E+02  0.95910478920E+02  0.00000000000E+00 0.  1.
          2   -1    0    0  502    0  0.00000000000E+00 -0.00000000000E+00 -0.42653687099E+03  0.42653687099E+03  0.00000000000E+00 0. -1.
          6    1    1    2  502    0 -0.45816797323E+02 -0.62161059557E+02 -0.73832169772E+02  0.20333068026E+03  0.17300000000E+03 0.  1.
         -6    1    1    2    0  501  0.45816797323E+02  0.62161059557E+02 -0.25679422229E+03  0.31911666965E+03  0.17300000000E+03 0. -1.
<mgrwt>
<rscale>  2 0.18945231E+03</rscale>
<asrwt>0</asrwt>
<pdfrwt beam="1">  1        2 0.65621056E-01 0.18945231E+03</pdfrwt>
<pdfrwt beam="2">  1       -2 0.14755459E-01 0.18945231E+03</pdfrwt>
<totfact> 0.25810167E+03</totfact>
</mgrwt>
</event>
<event>
 4    1  0.1790407E+000  0.2189760E+03  0.7546771E-02  0.1134649E+00
         -2   -1    0    0    0  501 -0.00000000000E+00  0.00000000000E+00  0.53824138878E+02  0.53824138878E+02  0.00000000000E+00 0. -1.
          2   -1    0    0  502    0  0.00000000000E+00 -0.00000000000E+00 -0.10960254397E+04  0.10960254397E+04  0.00000000000E+00 0.  1.
          6    1    1    2  502    0 -0.11019284003E+03 -0.76674766340E+02 -0.27236452247E+03  0.34947519924E+03  0.17300000000E+03 0. -1.
         -6    1    1    2    0  501  0.11019284003E+03  0.76674766340E+02 -0.76983677840E+03  0.80037437938E+03  0.17300000000E+03 0.  1.
<mgrwt>
<rscale>  2 0.21897598E+03</rscale>
<asrwt>0</asrwt>
<pdfrwt beam="1">  1        2 0.16861929E+00 0.21897598E+03</pdfrwt>
<pdfrwt beam="2">  1       -2 0.82806372E-02 0.21897598E+03</pdfrwt>
<totfact> 0.20538602E+03</totfact>
</mgrwt>
</event>
<event>
 4    1  0.1790407E+000  0.2346006E+03  0.7546771E-02  0.1123443E+00
         -1   -1    0    0    0  501 -0.00000000000E+00  0.00000000000E+00  0.55977747394E+02  0.55977747394E+02  0.00000000000E+00 0. -1.
          1   -1    0    0  502    0  0.00000000000E+00 -0.00000000000E+00 -0.10092268056E+04  0.10092268056E+04  0.00000000000E+00 0.  1.
          6    1    1    2  502    0 -0.36412386017E+02 -0.15421594955E+03 -0.56215171871E+03  0.60914035805E+03  0.17300000000E+03 0. -1.
         -6    1    1    2    0  501  0.36412386017E+02  0.15421594955E+03 -0.39109733948E+03  0.45606419493E+03  0.17300000000E+03 0.  1.
<mgrwt>
<rscale>  2 0.23460056E+03</rscale>
<asrwt>0</asrwt>
<pdfrwt beam="1">  1        1 0.15526565E+00 0.23460056E+03</pdfrwt>
<pdfrwt beam="2">  1       -1 0.86119619E-02 0.23460056E+03</pdfrwt>
<totfact> 0.12113024E+03</totfact>
</mgrwt>
</event>
<event>
 4    1  0.1790407E+000  0.1779291E+03  0.7546771E-02  0.1169822E+00
          2   -1    0    0  502    0  0.00000000000E+00  0.00000000000E+00  0.22787083135E+03  0.22787083135E+03  0.00000000000E+00 0. -1.
         -2   -1    0    0    0  501 -0.00000000000E+00 -0.00000000000E+00 -0.14860954978E+03  0.14860954978E+03  0.00000000000E+00 0.  1.
          6    1    1    2  502    0  0.37882640795E+02 -0.17165449480E+02 -0.84037539865E+01  0.17812739882E+03  0.17300000000E+03 0.  1.
         -6    1    1    2    0  501 -0.37882640795E+02  0.17165449480E+02  0.87665035555E+02  0.19835298230E+03  0.17300000000E+03 0.  1.
<mgrwt>
<rscale>  2 0.17792905E+03</rscale>
<asrwt>0</asrwt>
<pdfrwt beam="1">  1        2 0.35057051E-01 0.17792905E+03</pdfrwt>
<pdfrwt beam="2">  1       -2 0.22863008E-01 0.17792905E+03</pdfrwt>
<totfact> 0.24138527E+03</totfact>
</mgrwt>
</event>
<event>
 4    1  0.1790407E+000  0.2066790E+03  0.7546771E-02  0.1144223E+00
          2   -1    0    0  502    0  0.00000000000E+00  0.00000000000E+00  0.24289795527E+04  0.24289795527E+04  0.00000000000E+00 0.  1.
         -2   -1    0    0    0  501 -0.00000000000E+00 -0.00000000000E+00 -0.43202885886E+02  0.43202885886E+02  0.00000000000E+00 0. -1.
          6    1    1    2  502    0  0.69225538114E+02  0.89414898019E+02  0.21447125157E+04  0.21546479931E+04  0.17300000000E+03 0.  1.
         -6    1    1    2    0  501 -0.69225538114E+02 -0.89414898019E+02  0.24106415104E+03  0.31753444543E+03  0.17300000000E+03 0. -1.
<mgrwt>
<rscale>  2 0.20667898E+03</rscale>
<asrwt>0</asrwt>
<pdfrwt beam="1">  1        2 0.37368906E+00 0.20667898E+03</pdfrwt>
<pdfrwt beam="2">  1       -2 0.66465997E-02 0.20667898E+03</pdfrwt>
<totfact> 0.56226622E+02</totfact>
</mgrwt>
</event>
<event>
 4    1  0.1790407E+000  0.1991084E+03  0.7546771E-02  0.1150493E+00
         -4   -1    0    0    0  501 -0.00000000000E+00  0.00000000000E+00  0.38163711667E+03  0.38163711667E+03  0.00000000000E+00 0. -1.
          4   -1    0    0  502    0  0.00000000000E+00 -0.00000000000E+00 -0.10735952997E+03  0.10735952997E+03  0.00000000000E+00 0.  1.
          6    1    1    2  502    0 -0.88038758121E+02  0.44320595816E+02  0.18116072565E+03  0.26919016822E+03  0.17300000000E+03 0. -1.
         -6    1    1    2    0  501  0.88038758121E+02 -0.44320595816E+02  0.93116861041E+02  0.21980647842E+03  0.17300000000E+03 0. -1.
<mgrwt>
<rscale>  2 0.19910836E+03</rscale>
<asrwt>0</asrwt>
<pdfrwt beam="1">  1        4 0.16516851E-01 0.19910836E+03</pdfrwt>
<pdfrwt beam="2">  1       -4 0.58713402E-01 0.19910836E+03</pdfrwt>
<totfact> 0.15688706E+02</totfact>
</mgrwt>
</event>
<event>
 4    1  0.1790407E+000  0.1744116E+03  0.7546771E-02  0.1173324E+00
          1   -1    0    0  502    0  0.00000000000E+00  0.00000000000E+00  0.53803953876E+02  0.53803953876E+02  0.00000000000E+00 0. -1.
         -1   -1    0    0    0  501 -0.00000000000E+00 -0.00000000000E+00 -0.56689035527E+03  0.56689035527E+03  0.00000000000E+00 0.  1.
          6    1    1    2  502    0 -0.19259445477E+02 -0.10930244197E+02 -0.24049624692E+03  0.29708221297E+03  0.17300000000E+03 0.  1.
         -6    1    1    2    0  501  0.19259445477E+02  0.10930244197E+02 -0.27259015447E+03  0.32361209618E+03  0.17300000000E+03 0.  1.
<mgrwt>
<rscale>  2 0.17441157E+03</rscale>
<asrwt>0</asrwt>
<pdfrwt beam="1">  1        1 0.82775317E-02 0.17441157E+03</pdfrwt>
<pdfrwt beam="2">  1       -1 0.87213897E-01 0.17441157E+03</pdfrwt>
<totfact> 0.11162597E+03</totfact>
</mgrwt>
</event>
<event>
 4    1  0.1790407E+000  0.1937665E+03  0.7546771E-02  0.1155107E+00
          1   -1    0    0  502    0  0.00000000000E+00  0.00000000000E+00  0.20362774086E+03  0.20362774086E+03  0.00000000000E+00 0.  1.
         -1   -1    0    0    0  501 -0.00000000000E+00 -0.00000000000E+00 -0.25538776830E+03  0.25538776830E+03  0.00000000000E+00 0. -1.
          6    1    1    2  502    0  0.27481938435E+02 -0.82832343455E+02  0.95135673308E+02  0.21586164643E+03  0.17300000000E+03 0.  1.
         -6    1    1    2    0  501 -0.27481938435E+02  0.82832343455E+02 -0.14689570075E+03  0.24315386273E+03  0.17300000000E+03 0. -1.
<mgrwt>
<rscale>  2 0.19376649E+03</rscale>
<asrwt>0</asrwt>
<pdfrwt beam="1">  1        1 0.31327345E-01 0.19376649E+03</pdfrwt>
<pdfrwt beam="2">  1       -1 0.39290426E-01 0.19376649E+03</pdfrwt>
<totfact> 0.91200113E+02</totfact>
</mgrwt>
</event>
<event>
 4    1  0.1790407E+000  0.2063102E+03  0.7546771E-02  0.1144522E+00
          2   -1    0    0  502    0  0.00000000000E+00  0.00000000000E+00  0.36906447884E+03  0.36906447884E+03  0.00000000000E+00 0.  1.
         -2   -1    0    0    0  501 -0.00000000000E+00 -0.00000000000E+00 -0.12030434027E+03  0.12030434027E+03  0.00000000000E+00 0. -1.
          6    1    1    2  502    0 -0.21826382520E+02 -0.11026568077E+03  0.74621453822E+02  0.21939068508E+03  0.17300000000E+03 0. -1.
         -6    1    1    2    0  501  0.21826382520E+02  0.11026568077E+03  0.17413868475E+03  0.26997813403E+03  0.17300000000E+03 0.  1.
<mgrwt>
<rscale>  2 0.20631023E+03</rscale>
<asrwt>0</asrwt>
<pdfrwt beam="1">  1        2 0.56779150E-01 0.20631023E+03</pdfrwt>
<pdfrwt beam="2">  1       -2 0.18508360E-01 0.20631023E+03</pdfrwt>
<totfact> 0.20745582E+03</totfact>
</mgrwt>
</event>
<event>
 4    1  0.1790407E+000  0.1786529E+03  0.7546771E-02  0.1169113E+00
          2   -1    0    0  502    0  0.00000000000E+00  0.00000000000E+00  0.13504995989E+03  0.13504995989E+03  0.00000000000E+00 0. -1.
         -2   -1    0    0    0  501 -0.00000000000E+00 -0.00000000000E+00 -0.23779813731E+03  0.23779813731E+03  0.00000000000E+00 0.  1.
          6    1    1    2  502    0 -0.46782885361E+01  0.44339206876E+02 -0.36744279744E+02  0.18239241690E+03  0.17300000000E+03 0. -1.
         -6    1    1    2    0  501  0.46782885361E+01 -0.44339206876E+02 -0.66003897671E+02  0.19045568030E+03  0.17300000000E+03 0.  1.
<mgrwt>
<rscale>  2 0.17865288E+03</rscale>
<asrwt>0</asrwt>
<pdfrwt beam="1">  1        2 0.20776917E-01 0.17865288E+03</pdfrwt>
<pdfrwt beam="2">  1       -2 0.36584328E-01 0.17865288E+03</pdfrwt>
<totfact> 0.18465492E+03</totfact>
</mgrwt>
</event>
<event>
 4    1  0.1790407E+000  0.7406471E+03  0.7546771E-02  0.9650139E-01
         -1   -1    0    0    0  501 -0.00000000000E+00  0.00000000000E+00  0.45220490727E+03  0.45220490727E+03  0.00000000000E+00 0. -1.
          1   -1    0    0  502    0  0.00000000000E+00 -0.00000000000E+00 -0.21901361448E+04  0.21901361448E+04  0.00000000000E+00 0.  1.
          6    1    1    2  502    0  0.79822481587E+02 -0.71572169739E+03  0.13472651607E+02  0.74076965989E+03  0.17300000000E+03 0. -1.
         -6    1    1    2    0  501 -0.79822481587E+02  0.71572169739E+03 -0.17514038892E+04  0.19015713922E+04  0.17300000000E+03 0.  1.
<mgrwt>
<rscale>  2 0.74064713E+03</rscale>
<asrwt>0</asrwt>
<pdfrwt beam="1">  1        1 0.33694402E+00 0.74064713E+03</pdfrwt>
<pdfrwt beam="2">  1       -1 0.69569986E-01 0.74064713E+03</pdfrwt>
<totfact> 0.48779219E+00</totfact>
</mgrwt>
</event>
<event>
 4    1  0.1790407E+000  0.1926926E+03  0.7546771E-02  0.1156055E+00
          1   -1    0    0  502    0  0.00000000000E+00  0.00000000000E+00  0.13749277671E+04  0.13749277671E+04  0.00000000000E+00 0. -1.
         -1   -1    0    0    0  501 -0.00000000000E+00 -0.00000000000E+00 -0.38306914437E+02  0.38306914437E+02  0.00000000000E+00 0.  1.
          6    1    1    2  502    0 -0.63630509721E+02  0.56148155898E+02  0.10521186420E+04  0.10696186676E+04  0.17300000000E+03 0. -1.
         -6    1    1    2    0  501  0.63630509721E+02 -0.56148155898E+02  0.28450221064E+03  0.34361601394E+03  0.17300000000E+03 0.  1.
<mgrwt>
<rscale>  2 0.19269265E+03</rscale>
<asrwt>0</asrwt>
<pdfrwt beam="1">  1        1 0.21152731E+00 0.19269265E+03</pdfrwt>
<pdfrwt beam="2">  1       -1 0.58933725E-02 0.19269265E+03</pdfrwt>
<totfact> 0.11963215E+03</totfact>
</mgrwt>
</event>
<event>
 4    1  0.1790407E+000  0.1871391E+03  0.7546771E-02  0.1161067E+00
         -2   -1    0    0    0  501 -0.00000000000E+00  0.00000000000E+00  0.48493200326E+02  0.48493200326E+02  0.00000000000E+00 0. -1.
          2   -1    0    0  502    0  0.00000000000E+00 -0.00000000000E+00 -0.17013737012E+04  0.17013737012E+04  0.00000000000E+00 0.  1.
          6    1    1    2  502    0  0.45288936625E+02  0.55144970340E+02 -0.16268435881E+03  0.24796623991E+03  0.17300000000E+03 0. -1.
         -6    1    1    2    0  501 -0.45288936625E+02 -0.55144970340E+02 -0.14901961421E+04  0.15019006617E+04  0.17300000000E+03 0.  1.
<mgrwt>
<rscale>  2 0.18713913E+03</rscale>
<asrwt>0</asrwt>
<pdfrwt beam="1">  1        2 0.26174981E+00 0.18713913E+03</pdfrwt>
<pdfrwt beam="2">  1       -2 0.74604920E-02 0.18713913E+03</pdfrwt>
<totfact> 0.11353232E+03</totfact>
</mgrwt>
</event>
<event>
 4    1  0.1790407E+000  0.2286453E+03  0.7546771E-02  0.1127597E+00
         -2   -1    0    0    0  501 -0.00000000000E+00  0.00000000000E+00  0.33185029065E+03  0.33185029065E+03  0.00000000000E+00 0.  1.
          2   -1    0    0  502    0  0.00000000000E+00 -0.00000000000E+00 -0.16585456744E+03  0.16585456744E+03  0.00000000000E+00 0. -1.
          6    1    1    2  502    0 -0.14441422363E+03  0.38654867568E+02  0.13872655822E+03  0.26743919819E+03  0.17300000000E+03 0.  1.
         -6    1    1    2    0  501  0.14441422363E+03 -0.38654867568E+02  0.27269164987E+02  0.23026565991E+03  0.17300000000E+03 0. -1.
<mgrwt>
<rscale>  2 0.22864529E+03</rscale>
<asrwt>0</asrwt>
<pdfrwt beam="1">  1        2 0.25516087E-01 0.22864529E+03</pdfrwt>
<pdfrwt beam="2">  1       -2 0.51053891E-01 0.22864529E+03</pdfrwt>
<totfact> 0.77349291E+02</totfact>
</mgrwt>
</event>
<event>
 4    1  0.1790407E+000  0.2634757E+03  0.7546771E-02  0.1105073E+00
          2   -1    0    0  502    0  0.00000000000E+00  0.00000000000E+00  0.72166679794E+03  0.72166679794E+03  0.00000000000E+00 0.  1.
         -2   -1    0    0    0  501 -0.00000000000E+00 -0.00000000000E+00 -0.10642482519E+03  0.10642482519E+03  0.00000000000E+00 0. -1.
          6    1    1    2  502    0  0.17590347076E+03  0.92457524201E+02  0.43600165721E+03  0.50942798303E+03  0.17300000000E+03 0.  1.
         -6    1    1    2    0  501 -0.17590347076E+03 -0.92457524201E+02  0.17924031553E+03  0.31866364010E+03  0.17300000000E+03 0. -1.
<mgrwt>
<rscale>  2 0.26347566E+03</rscale>
<asrwt>0</asrwt>
<pdfrwt beam="1">  1        2 0.11102566E+00 0.26347566E+03</pdfrwt>
<pdfrwt beam="2">  1       -2 0.16373051E-01 0.26347566E+03</pdfrwt>
<totfact> 0.11953804E+03</totfact>
</mgrwt>
</event>
<event>
 4    1  0.1790407E+000  0.1762736E+03  0.7546771E-02  0.1171459E+00
         -2   -1    0    0    0  501 -0.00000000000E+00  0.00000000000E+00  0.23908069901E+02  0.23908069901E+02  0.00000000000E+00 0. -1.
          2   -1    0    0  502    0  0.00000000000E+00 -0.00000000000E+00 -0.16100030530E+04  0.16100030530E+04  0.00000000000E+00 0.  1.
          6    1    1    2  502    0 -0.50372292262E+01 -0.33436442768E+02 -0.11517264382E+04  0.11651378278E+04  0.17300000000E+03 0.  1.
         -6    1    1    2    0  501  0.50372292262E+01  0.33436442768E+02 -0.43436854499E+03  0.46877329516E+03  0.17300000000E+03 0. -1.
<mgrwt>
<rscale>  2 0.17627356E+03</rscale>
<asrwt>0</asrwt>
<pdfrwt beam="1">  1        2 0.24769269E+00 0.17627356E+03</pdfrwt>
<pdfrwt beam="2">  1       -2 0.36781660E-02 0.17627356E+03</pdfrwt>
<totfact> 0.37045877E+03</totfact>
</mgrwt>
</event>
<event>
 4    1  0.1790407E+000  0.2134208E+03  0.7546771E-02  0.1138885E+00
          2   -1    0    0  502    0  0.00000000000E+00  0.00000000000E+00  0.11177117181E+03  0.11177117181E+03  0.00000000000E+00 0.  1.
         -2   -1    0    0    0  501 -0.00000000000E+00 -0.00000000000E+00 -0.12063875460E+04  0.12063875460E+04  0.00000000000E+00 0. -1.
          6    1    1    2  502    0  0.21726673611E+02  0.12307478983E+03 -0.10836392858E+04  0.11044557728E+04  0.17300000000E+03 0. -1.
         -6    1    1    2    0  501 -0.21726673611E+02 -0.12307478983E+03 -0.10977088347E+02  0.21370294501E+03  0.17300000000E+03 0.  1.
<mgrwt>
<rscale>  2 0.21342083E+03</rscale>
<asrwt>0</asrwt>
<pdfrwt beam="1">  1        2 0.17195565E-01 0.21342083E+03</pdfrwt>
<pdfrwt beam="2">  1       -2 0.18559808E+00 0.21342083E+03</pdfrwt>
<totfact> 0.59784140E+01</totfact>
</mgrwt>
</event>
<event>
 4    1  0.1790407E+000  0.3755180E+03  0.7546771E-02  0.1052603E+00
          2   -1    0    0  502    0  0.00000000000E+00  0.00000000000E+00  0.17320516748E+04  0.17320516748E+04  0.00000000000E+00 0.  1.
         -2   -1    0    0    0  501 -0.00000000000E+00 -0.00000000000E+00 -0.82001424512E+02  0.82001424512E+02  0.00000000000E+00 0. -1.
          6    1    1    2  502    0 -0.26886670570E+03  0.19696572242E+03  0.90177341968E+03  0.97683627169E+03  0.17300000000E+03 0.  1.
         -6    1    1    2    0  501  0.26886670570E+03 -0.19696572242E+03  0.74827683065E+03  0.83721682767E+03  0.17300000000E+03 0. -1.
<mgrwt>
<rscale>  2 0.37551804E+03</rscale>
<asrwt>0</asrwt>
<pdfrwt beam="1">  1        2 0.26646946E+00 0.37551804E+03</pdfrwt>
<pdfrwt beam="2">  1       -2 0.12615605E-01 0.37551804E+03</pdfrwt>
<totfact> 0.46303891E+02</totfact>
</mgrwt>
</event>
<event>
 4    1  0.1790407E+000  0.2138760E+03  0.7546771E-02  0.1138533E+00
          1   -1    0    0  502    0  0.00000000000E+00  0.00000000000E+00  0.12517141163E+04  0.12517141163E+04  0.00000000000E+00 0.  1.
         -1   -1    0    0    0  501 -0.00000000000E+00 -0.00000000000E+00 -0.37251032600E+02  0.37251032600E+02  0.00000000000E+00 0. -1.
          6    1    1    2  502    0  0.11412230355E+02 -0.12523467275E+03  0.51845814889E+03  0.56084027531E+03  0.17300000000E+03 0. -1.
         -6    1    1    2    0  501 -0.11412230355E+02  0.12523467275E+03  0.69600493482E+03  0.72812487360E+03  0.17300000000E+03 0. -1.
<mgrwt>
<rscale>  2 0.21387604E+03</rscale>
<asrwt>0</asrwt>
<pdfrwt beam="1">  1        1 0.19257137E+00 0.21387604E+03</pdfrwt>
<pdfrwt beam="2">  1       -1 0.57309291E-02 0.21387604E+03</pdfrwt>
<totfact> 0.15108516E+03</totfact>
</mgrwt>
</event>
<event>
 4    1  0.1790407E+000  0.1792860E+03  0.7546771E-02  0.1168496E+00
         -1   -1    0    0    0  501 -0.00000000000E+00  0.00000000000E+00  0.16390552767E+03  0.16390552767E+03  0.00000000000E+00 0. -1.
          1   -1    0    0  502    0  0.00000000000E+00 -0.00000000000E+00 -0.20449709191E+03  0.20449709191E+03  0.00000000000E+00 0.  1.
          6    1    1    2  502    0 -0.10790742907E+02 -0.45804407000E+02  0.17008566321E+02  0.18009101910E+03  0.17300000000E+03 0.  1.
         -6    1    1    2    0  501  0.10790742907E+02  0.45804407000E+02 -0.57600130558E+02  0.18831160047E+03  0.17300000000E+03 0.  1.
<mgrwt>
<rscale>  2 0.17928604E+03</rscale>
<asrwt>0</asrwt>
<pdfrwt beam="1">  1        1 0.31461091E-01 0.17928604E+03</pdfrwt>
<pdfrwt beam="2">  1       -1 0.25216235E-01 0.17928604E+03</pdfrwt>
<totfact> 0.19293757E+03</totfact>
</mgrwt>
</event>
<event>
 4    1  0.1790407E+000  0.1786283E+03  0.7546771E-02  0.1169137E+00
          1   -1    0    0  502    0  0.00000000000E+00  0.00000000000E+00  0.91396420296E+03  0.91396420296E+03  0.00000000000E+00 0.  1.
         -1   -1    0    0    0  501 -0.00000000000E+00 -0.00000000000E+00 -0.34920641575E+02  0.34920641575E+02  0.00000000000E+00 0. -1.
          6    1    1    2  502    0  0.38312835196E+02  0.22609997262E+02  0.43194908473E+03  0.46742710354E+03  0.17300000000E+03 0. -1.
         -6    1    1    2    0  501 -0.38312835196E+02 -0.22609997262E+02  0.44709447665E+03  0.48145774100E+03  0.17300000000E+03 0.  1.
<mgrwt>
<rscale>  2 0.17862834E+03</rscale>
<asrwt>0</asrwt>
<pdfrwt beam="1">  1        1 0.14060986E+00 0.17862834E+03</pdfrwt>
<pdfrwt beam="2">  1       -1 0.53724071E-02 0.17862834E+03</pdfrwt>
<totfact> 0.29126721E+03</totfact>
</mgrwt>
</event>
<event>
 4    1  0.1790407E+000  0.1928328E+03  0.7546771E-02  0.1155931E+00
          2   -1    0    0  502    0  0.00000000000E+00  0.00000000000E+00  0.12463024393E+04  0.12463024393E+04  0.00000000000E+00 0.  1.
         -2   -1    0    0    0  501 -0.00000000000E+00 -0.00000000000E+00 -0.30966069438E+02  0.30966069438E+02  0.00000000000E+00 0. -1.
          6    1    1    2  502    0 -0.74936529666E+02 -0.40496997962E+02  0.48565945401E+03  0.52254147739E+03  0.17300000000E+03 0. -1.
         -6    1    1    2    0  501  0.74936529666E+02  0.40496997962E+02  0.72967691586E+03  0.75472703136E+03  0.17300000000E+03 0.  1.
<mgrwt>
<rscale>  2 0.19283280E+03</rscale>
<asrwt>0</asrwt>
<pdfrwt beam="1">  1        2 0.19173880E+00 0.19283280E+03</pdfrwt>
<pdfrwt beam="2">  1       -2 0.47640116E-02 0.19283280E+03</pdfrwt>
<totfact> 0.39379357E+03</totfact>
</mgrwt>
</event>
<event>
 4    1  0.1790407E+000  0.1984221E+03  0.7546771E-02  0.1151077E+00
         -2   -1    0    0    0  501 -0.00000000000E+00  0.00000000000E+00  0.31995019247E+02  0.31995019247E+02  0.00000000000E+00 0. -1.
          2   -1    0    0  502    0  0.00000000000E+00 -0.00000000000E+00 -0.12750973239E+04  0.12750973239E+04  0.00000000000E+00 0.  1.
          6    1    1    2  502    0  0.95252386237E+02  0.19217734485E+02 -0.49938930025E+03  0.53736487753E+03  0.17300000000E+03 0. -1.
         -6    1    1    2    0  501 -0.95252386237E+02 -0.19217734485E+02 -0.74371300445E+03  0.76972746566E+03  0.17300000000E+03 0.  1.
<mgrwt>
<rscale>  2 0.19842212E+03</rscale>
<asrwt>0</asrwt>
<pdfrwt beam="1">  1        2 0.19616879E+00 0.19842212E+03</pdfrwt>
<pdfrwt beam="2">  1       -2 0.49223114E-02 0.19842212E+03</pdfrwt>
<totfact> 0.36147868E+03</totfact>
</mgrwt>
</event>
<event>
 4    1  0.1790407E+000  0.2031350E+03  0.7546771E-02  0.1147121E+00
         -2   -1    0    0    0  501 -0.00000000000E+00  0.00000000000E+00  0.87186626429E+03  0.87186626429E+03  0.00000000000E+00 0. -1.
          2   -1    0    0  502    0  0.00000000000E+00 -0.00000000000E+00 -0.48941480767E+02  0.48941480767E+02  0.00000000000E+00 0.  1.
          6    1    1    2  502    0  0.72065758616E+02  0.78366880723E+02  0.49505317295E+03  0.53510885398E+03  0.17300000000E+03 0.  1.
         -6    1    1    2    0  501 -0.72065758616E+02 -0.78366880723E+02  0.32787161057E+03  0.38569889108E+03  0.17300000000E+03 0.  1.
<mgrwt>
<rscale>  2 0.20313503E+03</rscale>
<asrwt>0</asrwt>
<pdfrwt beam="1">  1        2 0.75294592E-02 0.20313503E+03</pdfrwt>
<pdfrwt beam="2">  1       -2 0.13413326E+00 0.20313503E+03</pdfrwt>
<totfact> 0.38585411E+02</totfact>
</mgrwt>
</event>
<event>
 4    1  0.1790407E+000  0.2100843E+03  0.7546771E-02  0.1141499E+00
          2   -1    0    0  502    0  0.00000000000E+00  0.00000000000E+00  0.35030670626E+03  0.35030670626E+03  0.00000000000E+00 0.  1.
         -2   -1    0    0    0  501 -0.00000000000E+00 -0.00000000000E+00 -0.18065371326E+03  0.18065371326E+03  0.00000000000E+00 0. -1.
          6    1    1    2  502    0  0.11229298823E+03 -0.39958469048E+02  0.23086097592E+03  0.31214128958E+03  0.17300000000E+03 0.  1.
         -6    1    1    2    0  501 -0.11229298823E+03  0.39958469048E+02 -0.61207982924E+02  0.21881912994E+03  0.17300000000E+03 0. -1.
<mgrwt>
<rscale>  2 0.21008426E+03</rscale>
<asrwt>0</asrwt>
<pdfrwt beam="1">  1        2 0.53893339E-01 0.21008426E+03</pdfrwt>
<pdfrwt beam="2">  1       -2 0.27792879E-01 0.21008426E+03</pdfrwt>
<totfact> 0.10827170E+03</totfact>
</mgrwt>
</event>
<event>
 4    1  0.1790407E+000  0.2201982E+03  0.7546771E-02  0.1133735E+00
          1   -1    0    0  502    0  0.00000000000E+00  0.00000000000E+00  0.46774932778E+03  0.46774932778E+03  0.00000000000E+00 0. -1.
         -1   -1    0    0    0  501 -0.00000000000E+00 -0.00000000000E+00 -0.13253323523E+03  0.13253323523E+03  0.00000000000E+00 0.  1.
          6    1    1    2  502    0 -0.73297465817E+01 -0.13603135549E+03  0.27518645931E+02  0.22191108745E+03  0.17300000000E+03 0.  1.
         -6    1    1    2    0  501  0.73297465817E+01  0.13603135549E+03  0.30769744662E+03  0.37837147556E+03  0.17300000000E+03 0. -1.
<mgrwt>
<rscale>  2 0.22019822E+03</rscale>
<asrwt>0</asrwt>
<pdfrwt beam="1">  1        1 0.71961434E-01 0.22019822E+03</pdfrwt>
<pdfrwt beam="2">  1       -1 0.20389729E-01 0.22019822E+03</pdfrwt>
<totfact> 0.96531693E+02</totfact>
</mgrwt>
</event>
<event>
 4    1  0.1790407E+000  0.3004649E+03  0.7546771E-02  0.1085008E+00
         -1   -1    0    0    0  501 -0.00000000000E+00  0.00000000000E+00  0.33467492404E+03  0.33467492404E+03  0.00000000000E+00 0. -1.
          1   -1    0    0  502    0  0.00000000000E+00 -0.00000000000E+00 -0.11837147980E+04  0.11837147980E+04  0.00000000000E+00 0.  1.
          6    1    1    2  502    0  0.44516829215E+02  0.24159554043E+03 -0.10916246902E+04  0.11322206576E+04  0.17300000000E+03 0.  1.
         -6    1    1    2    0  501 -0.44516829215E+02 -0.24159554043E+03  0.24258481626E+03  0.38616906442E+03  0.17300000000E+03 0. -1.
<mgrwt>
<rscale>  2 0.30046490E+03</rscale>
<asrwt>0</asrwt>
<pdfrwt beam="1">  1        1 0.18210997E+00 0.30046490E+03</pdfrwt>
<pdfrwt beam="2">  1       -1 0.51488450E-01 0.30046490E+03</pdfrwt>
<totfact> 0.46060692E+01</totfact>
</mgrwt>
</event>
<event>
 4    1  0.1790407E+000  0.1891641E+03  0.7546771E-02  0.1159217E+00
         -2   -1    0    0    0  501 -0.00000000000E+00  0.00000000000E+00  0.32364308466E+03  0.32364308466E+03  0.00000000000E+00 0.  1.
          2   -1    0    0  502    0  0.00000000000E+00 -0.00000000000E+00 -0.12046067455E+03  0.12046067455E+03  0.00000000000E+00 0. -1.
          6    1    1    2  502    0 -0.44705626476E+02  0.62092315197E+02  0.16524022650E+03  0.25117201496E+03  0.17300000000E+03 0.  1.
         -6    1    1    2    0  501  0.44705626476E+02 -0.62092315197E+02  0.37942183609E+02  0.19293174426E+03  0.17300000000E+03 0. -1.
<mgrwt>
<rscale>  2 0.18916408E+03</rscale>
<asrwt>0</asrwt>
<pdfrwt beam="1">  1        2 0.18532412E-01 0.18916408E+03</pdfrwt>
<pdfrwt beam="2">  1       -2 0.49791243E-01 0.18916408E+03</pdfrwt>
<totfact> 0.11636996E+03</totfact>
</mgrwt>
</event>
<event>
 4    1  0.1790407E+000  0.2038647E+03  0.7546771E-02  0.1146519E+00
         -1   -1    0    0    0  501 -0.00000000000E+00  0.00000000000E+00  0.76852343441E+02  0.76852343441E+02  0.00000000000E+00 0. -1.
          1   -1    0    0  502    0  0.00000000000E+00 -0.00000000000E+00 -0.79464927268E+03  0.79464927268E+03  0.00000000000E+00 0.  1.
          6    1    1    2  502    0 -0.83301949233E+02 -0.68502428303E+02 -0.60518971894E+03  0.63860425409E+03  0.17300000000E+03 0.  1.
         -6    1    1    2    0  501  0.83301949233E+02  0.68502428303E+02 -0.11260721030E+03  0.23289736203E+03  0.17300000000E+03 0. -1.
<mgrwt>
<rscale>  2 0.20386465E+03</rscale>
<asrwt>0</asrwt>
<pdfrwt beam="1">  1        1 0.12225373E+00 0.20386465E+03</pdfrwt>
<pdfrwt beam="2">  1       -1 0.11823438E-01 0.20386465E+03</pdfrwt>
<totfact> 0.10936278E+03</totfact>
</mgrwt>
</event>
<event>
 4    1  0.1790407E+000  0.1985984E+03  0.7546771E-02  0.1150927E+00
         -1   -1    0    0    0  501 -0.00000000000E+00  0.00000000000E+00  0.47579782943E+02  0.47579782943E+02  0.00000000000E+00 0.  1.
          1   -1    0    0  502    0  0.00000000000E+00 -0.00000000000E+00 -0.10018919627E+04  0.10018919627E+04  0.00000000000E+00 0. -1.
          6    1    1    2  502    0 -0.35339266880E+02  0.90903661103E+02 -0.25914507641E+03  0.32649274113E+03  0.17300000000E+03 0. -1.
         -6    1    1    2    0  501  0.35339266880E+02 -0.90903661103E+02 -0.69516710333E+03  0.72297900449E+03  0.17300000000E+03 0.  1.
<mgrwt>
<rscale>  2 0.19859844E+03</rscale>
<asrwt>0</asrwt>
<pdfrwt beam="1">  1        1 0.15413722E+00 0.19859844E+03</pdfrwt>
<pdfrwt beam="2">  1       -1 0.73199666E-02 0.19859844E+03</pdfrwt>
<totfact> 0.15716218E+03</totfact>
</mgrwt>
</event>
<event>
 4    1  0.1790407E+000  0.1789932E+03  0.7546771E-02  0.1168781E+00
          2   -1    0    0  502    0  0.00000000000E+00  0.00000000000E+00  0.12457794460E+04  0.12457794460E+04  0.00000000000E+00 0.  1.
         -2   -1    0    0    0  501 -0.00000000000E+00 -0.00000000000E+00 -0.32611490637E+02  0.32611490637E+02  0.00000000000E+00 0. -1.
          6    1    1    2  502    0  0.28628788661E+02 -0.35915861257E+02  0.31269855143E+03  0.36030395598E+03  0.17300000000E+03 0. -1.
         -6    1    1    2    0  501 -0.28628788661E+02  0.35915861257E+02  0.90046940392E+03  0.91808698064E+03  0.17300000000E+03 0.  1.
<mgrwt>
<rscale>  2 0.17899317E+03</rscale>
<asrwt>0</asrwt>
<pdfrwt beam="1">  1        2 0.19165834E+00 0.17899317E+03</pdfrwt>
<pdfrwt beam="2">  1       -2 0.50171534E-02 0.17899317E+03</pdfrwt>
<totfact> 0.36387919E+03</totfact>
</mgrwt>
</event>
<event>
 4    1  0.1790407E+000  0.1868837E+03  0.7546771E-02  0.1161302E+00
          1   -1    0    0  502    0  0.00000000000E+00  0.00000000000E+00  0.27610917232E+04  0.27610917232E+04  0.00000000000E+00 0. -1.
         -1   -1    0    0    0  501 -0.00000000000E+00 -0.00000000000E+00 -0.12669975465E+02  0.12669975465E+02  0.00000000000E+00 0.  1.
          6    1    1    2  502    0 -0.70054151487E+02 -0.94306874291E+01  0.14304096774E+04  0.14425662436E+04  0.17300000000E+03 0. -1.
         -6    1    1    2    0  501  0.70054151487E+02  0.94306874291E+01  0.13180120703E+04  0.13311954551E+04  0.17300000000E+03 0. -1.
<mgrwt>
<rscale>  2 0.18688371E+03</rscale>
<asrwt>0</asrwt>
<pdfrwt beam="1">  1        1 0.42478286E+00 0.18688371E+03</pdfrwt>
<pdfrwt beam="2">  1       -1 0.19492292E-02 0.18688371E+03</pdfrwt>
<totfact> 0.76306367E+02</totfact>
</mgrwt>
</event>
<event>
 4    1  0.1790407E+000  0.1989006E+03  0.7546771E-02  0.1150670E+00
         -1   -1    0    0    0  501 -0.00000000000E+00  0.00000000000E+00  0.57243636807E+02  0.57243636807E+02  0.00000000000E+00 0.  1.
          1   -1    0    0  502    0  0.00000000000E+00 -0.00000000000E+00 -0.69235690078E+03  0.69235690078E+03  0.00000000000E+00 0. -1.
          6    1    1    2  502    0 -0.70112470070E+02 -0.68678070801E+02 -0.30162718158E+03  0.36130374000E+03  0.17300000000E+03 0. -1.
         -6    1    1    2    0  501  0.70112470070E+02  0.68678070801E+02 -0.33348608239E+03  0.38829679759E+03  0.17300000000E+03 0.  1.
<mgrwt>
<rscale>  2 0.19890057E+03</rscale>
<asrwt>0</asrwt>
<pdfrwt beam="1">  1        1 0.10651645E+00 0.19890057E+03</pdfrwt>
<pdfrwt beam="2">  1       -1 0.88067132E-02 0.19890057E+03</pdfrwt>
<totfact> 0.21130820E+03</totfact>
</mgrwt>
</event>
<event>
 4    1  0.1790407E+000  0.1821958E+03  0.7546771E-02  0.1165695E+00
         -4   -1    0    0    0  501 -0.00000000000E+00  0.00000000000E+00  0.58302004658E+03  0.58302004658E+03  0.00000000000E+00 0.  1.
          4   -1    0    0  502    0  0.00000000000E+00 -0.00000000000E+00 -0.82023056283E+02  0.82023056283E+02  0.00000000000E+00 0. -1.
          6    1    1    2  502    0 -0.42399798730E+02  0.38321834454E+02  0.43439335962E+03  0.47105508893E+03  0.17300000000E+03 0.  1.
         -6    1    1    2    0  501  0.42399798730E+02 -0.38321834454E+02  0.66603630675E+02  0.19398801393E+03  0.17300000000E+03 0. -1.
<mgrwt>
<rscale>  2 0.18219579E+03</rscale>
<asrwt>0</asrwt>
<pdfrwt beam="1">  1        4 0.12618932E-01 0.18219579E+03</pdfrwt>
<pdfrwt beam="2">  1       -4 0.89695389E-01 0.18219579E+03</pdfrwt>
<totfact> 0.98200720E+01</totfact>
</mgrwt>
</event>
<event>
 4    1  0.1790407E+000  0.2438307E+03  0.7546771E-02  0.1117267E+00
         -1   -1    0    0    0  501 -0.00000000000E+00  0.00000000000E+00  0.43444451868E+02  0.43444451868E+02  0.00000000000E+00 0. -1.
          1   -1    0    0  502    0  0.00000000000E+00 -0.00000000000E+00 -0.14000729569E+04  0.14000729569E+04  0.00000000000E+00 0.  1.
          6    1    1    2  502    0 -0.16909732626E+03 -0.30503932347E+02 -0.78671383957E+03  0.82363345063E+03  0.17300000000E+03 0.  1.
         -6    1    1    2    0  501  0.16909732626E+03  0.30503932347E+02 -0.56991466546E+03  0.61988395813E+03  0.17300000000E+03 0.  1.
<mgrwt>
<rscale>  2 0.24383067E+03</rscale>
<asrwt>0</asrwt>
<pdfrwt beam="1">  1        1 0.21539586E+00 0.24383067E+03</pdfrwt>
<pdfrwt beam="2">  1       -1 0.66837612E-02 0.24383067E+03</pdfrwt>
<totfact> 0.94879752E+02</totfact>
</mgrwt>
</event>
<event>
 4    1  0.1790407E+000  0.1896914E+03  0.7546771E-02  0.1158740E+00
         -2   -1    0    0    0  501 -0.00000000000E+00  0.00000000000E+00  0.22456486953E+02  0.22456486953E+02  0.00000000000E+00 0. -1.
          2   -1    0    0  502    0  0.00000000000E+00 -0.00000000000E+00 -0.16235803089E+04  0.16235803089E+04  0.00000000000E+00 0.  1.
          6    1    1    2  502    0  0.21620611409E+02  0.74742153122E+02 -0.89470591815E+03  0.91459363669E+03  0.17300000000E+03 0. -1.
         -6    1    1    2    0  501 -0.21620611409E+02 -0.74742153122E+02 -0.70641790382E+03  0.73144315920E+03  0.17300000000E+03 0.  1.
<mgrwt>
<rscale>  2 0.18969143E+03</rscale>
<asrwt>0</asrwt>
<pdfrwt beam="1">  1        2 0.24978166E+00 0.18969143E+03</pdfrwt>
<pdfrwt beam="2">  1       -2 0.34548431E-02 0.18969143E+03</pdfrwt>
<totfact> 0.40043540E+03</totfact>
</mgrwt>
</event>
<event>
 4    1  0.1790407E+000  0.1773123E+03  0.7546771E-02  0.1170430E+00
          2   -1    0    0  502    0  0.00000000000E+00  0.00000000000E+00  0.11278511247E+03  0.11278511247E+03  0.00000000000E+00 0.  1.
         -2   -1    0    0    0  501 -0.00000000000E+00 -0.00000000000E+00 -0.29056865946E+03  0.29056865946E+03  0.00000000000E+00 0. -1.
          6    1    1    2  502    0  0.28557679659E+02 -0.26365284983E+02 -0.48230370881E+02  0.18375483122E+03  0.17300000000E+03 0.  1.
         -6    1    1    2    0  501 -0.28557679659E+02  0.26365284983E+02 -0.12955317611E+03  0.21959894071E+03  0.17300000000E+03 0. -1.
<mgrwt>
<rscale>  2 0.17731235E+03</rscale>
<asrwt>0</asrwt>
<pdfrwt beam="1">  1        2 0.17351556E-01 0.17731235E+03</pdfrwt>
<pdfrwt beam="2">  1       -2 0.44702871E-01 0.17731235E+03</pdfrwt>
<totfact> 0.15487901E+03</totfact>
</mgrwt>
</event>
<event>
 4    1  0.1790407E+000  0.2453171E+03  0.7546771E-02  0.1116301E+00
         -1   -1    0    0    0  501 -0.00000000000E+00  0.00000000000E+00  0.15515266489E+03  0.15515266489E+03  0.00000000000E+00 0. -1.
          1   -1    0    0  502    0  0.00000000000E+00 -0.00000000000E+00 -0.39457172691E+03  0.39457172691E+03  0.00000000000E+00 0.  1.
          6    1    1    2  502    0 -0.10504578443E+03 -0.13862483159E+03 -0.83911962420E+02  0.25927143729E+03  0.17300000000E+03 0. -1.
         -6    1    1    2    0  501  0.10504578443E+03  0.13862483159E+03 -0.15550709959E+03  0.29045295451E+03  0.17300000000E+03 0. -1.
<mgrwt>
<rscale>  2 0.24531706E+03</rscale>
<asrwt>0</asrwt>
<pdfrwt beam="1">  1        1 0.60703342E-01 0.24531706E+03</pdfrwt>
<pdfrwt beam="2">  1       -1 0.23869641E-01 0.24531706E+03</pdfrwt>
<totfact> 0.92936210E+02</totfact>
</mgrwt>
</event>
<event>
 4    1  0.1790407E+000  0.1945041E+03  0.7546771E-02  0.1154460E+00
         -2   -1    0    0    0  501 -0.00000000000E+00  0.00000000000E+00  0.27844633307E+02  0.27844633307E+02  0.00000000000E+00 0.  1.
          2   -1    0    0  502    0  0.00000000000E+00 -0.00000000000E+00 -0.16760226213E+04  0.16760226213E+04  0.00000000000E+00 0. -1.
          6    1    1    2  502    0 -0.88264216198E+02 -0.10596673515E+02 -0.11947971277E+04  0.12105255213E+04  0.17300000000E+03 0. -1.
         -6    1    1    2    0  501  0.88264216198E+02  0.10596673515E+02 -0.45338086035E+03  0.49334173337E+03  0.17300000000E+03 0.  1.
<mgrwt>
<rscale>  2 0.19450414E+03</rscale>
<asrwt>0</asrwt>
<pdfrwt beam="1">  1        2 0.25784964E+00 0.19450414E+03</pdfrwt>
<pdfrwt beam="2">  1       -2 0.42837897E-02 0.19450414E+03</pdfrwt>
<totfact> 0.27257306E+03</totfact>
</mgrwt>
</event>
<event>
 4    1  0.1790407E+000  0.3037556E+03  0.7546771E-02  0.1083378E+00
          2   -1    0    0  502    0  0.00000000000E+00  0.00000000000E+00  0.26110262213E+04  0.26110262213E+04  0.00000000000E+00 0. -1.
         -2   -1    0    0    0  501 -0.00000000000E+00 -0.00000000000E+00 -0.39617643884E+02  0.39617643884E+02  0.00000000000E+00 0.  1.
          6    1    1    2  502    0 -0.19067596492E+03  0.16118665324E+03  0.17213164511E+04  0.17479124079E+04  0.17300000000E+03 0.  1.
         -6    1    1    2    0  501  0.19067596492E+03 -0.16118665324E+03  0.85009212625E+03  0.90273145724E+03  0.17300000000E+03 0.  1.
<mgrwt>
<rscale>  2 0.30375559E+03</rscale>
<asrwt>0</asrwt>
<pdfrwt beam="1">  1        2 0.40169621E+00 0.30375559E+03</pdfrwt>
<pdfrwt beam="2">  1       -2 0.60950242E-02 0.30375559E+03</pdfrwt>
<totfact> 0.49992679E+02</totfact>
</mgrwt>
</event>
<event>
 4    1  0.1790407E+000  0.1750314E+03  0.7546771E-02  0.1172700E+00
          1   -1    0    0  502    0  0.00000000000E+00  0.00000000000E+00  0.73577315011E+03  0.73577315011E+03  0.00000000000E+00 0.  1.
         -1   -1    0    0    0  501 -0.00000000000E+00 -0.00000000000E+00 -0.41638283089E+02  0.41638283089E+02  0.00000000000E+00 0. -1.
          6    1    1    2  502    0 -0.21522440918E+02 -0.15613292928E+02  0.34836298781E+03  0.38986249070E+03  0.17300000000E+03 0. -1.
         -6    1    1    2    0  501  0.21522440918E+02  0.15613292928E+02  0.34577187921E+03  0.38754894250E+03  0.17300000000E+03 0. -1.
<mgrwt>
<rscale>  2 0.17503140E+03</rscale>
<asrwt>0</asrwt>
<pdfrwt beam="1">  1        1 0.11319586E+00 0.17503140E+03</pdfrwt>
<pdfrwt beam="2">  1       -1 0.64058903E-02 0.17503140E+03</pdfrwt>
<totfact> 0.31239955E+03</totfact>
</mgrwt>
</event>
<event>
 4    1  0.1790407E+000  0.1908497E+03  0.7546771E-02  0.1157697E+00
         -3   -1    0    0    0  501 -0.00000000000E+00  0.00000000000E+00  0.18228087654E+03  0.18228087654E+03  0.00000000000E+00 0.  1.
          3   -1    0    0  502    0  0.00000000000E+00 -0.00000000000E+00 -0.19987064377E+03  0.19987064377E+03  0.00000000000E+00 0. -1.
          6    1    1    2  502    0  0.79673660145E+02 -0.12112637406E+02 -0.11796069530E+02  0.19121389950E+03  0.17300000000E+03 0.  1.
         -6    1    1    2    0  501 -0.79673660145E+02  0.12112637406E+02 -0.57936977015E+01  0.19093762081E+03  0.17300000000E+03 0. -1.
<mgrwt>
<rscale>  2 0.19084970E+03</rscale>
<asrwt>0</asrwt>
<pdfrwt beam="1">  1        3 0.30749330E-01 0.19084970E+03</pdfrwt>
<pdfrwt beam="2">  1       -3 0.28043212E-01 0.19084970E+03</pdfrwt>
<totfact> 0.30306757E+02</totfact>
</mgrwt>
</event>
