<event>
 4    1  0.7145298E-006  0.6891299E+03  0.7818608E-02  0.9736004E-01
         -1   -1    0    0    0  501 -0.00000000000E+00  0.00000000000E+00  0.60348295012E+02  0.60348295222E+02  0.50400000000E-02 0. -1.
          1   -1    0    0  501    0  0.00000000000E+00 -0.00000000000E+00 -0.19673300651E+04  0.19673300651E+04  0.50400000000E-02 0.  1.
    5000001    1    1    2    0    0  0.18153153420E+03  0.18910741740E+03 -0.12908479793E+04  0.13311152538E+04  0.19200000000E+03 0.  0.
   -5000001    1    1    2    0    0 -0.18153153420E+03 -0.18910741740E+03 -0.61613379072E+03  0.69656310647E+03  0.19200000000E+03 0.  0.
<mgrwt>
<rscale>  0 0.68912993E+03</rscale>
<asrwt>0</asrwt>
<pdfrwt beam="1">  1        1 0.28104711E+00 0.68912993E+03</pdfrwt>
<pdfrwt beam="2">  1       -1 0.86211862E-02 0.68912993E+03</pdfrwt>
<totfact> 0.32074854E+02</totfact>
</mgrwt>
</event>
<event>
 4    1  0.7145298E-006  0.5017315E+03  0.7818608E-02  0.1013328E+00
          1   -1    0    0  501    0  0.00000000000E+00  0.00000000000E+00  0.13821701547E+04  0.13821701547E+04  0.50400000000E-02 0.  1.
         -1   -1    0    0    0  501 -0.00000000000E+00 -0.00000000000E+00 -0.45532470578E+02  0.45532470857E+02  0.50400000000E-02 0. -1.
    5000001    1    1    2    0    0 -0.12232097622E+03  0.10099439826E+03  0.58260526694E+03  0.63360491378E+03  0.19200000000E+03 0.  0.
   -5000001    1    1    2    0    0  0.12232097622E+03 -0.10099439826E+03  0.75403241721E+03  0.79409771182E+03  0.19200000000E+03 0.  0.
<mgrwt>
<rscale>  0 0.50173149E+03</rscale>
<asrwt>0</asrwt>
<pdfrwt beam="1">  1        1 0.19745289E+00 0.50173149E+03</pdfrwt>
<pdfrwt beam="2">  1       -1 0.65046382E-02 0.50173149E+03</pdfrwt>
<totfact> 0.11746034E+03</totfact>
</mgrwt>
</event>
<event>
 4    1  0.7145298E-006  0.6256992E+03  0.7818608E-02  0.9853478E-01
          1   -1    0    0  501    0  0.00000000000E+00  0.00000000000E+00  0.96082072268E+03  0.96082072269E+03  0.50400000000E-02 0. -1.
         -1   -1    0    0    0  501 -0.00000000000E+00 -0.00000000000E+00 -0.10186590129E+03  0.10186590142E+03  0.50400000000E-02 0.  1.
    5000001    1    1    2    0    0 -0.22759936128E+03 -0.41544391902E+02  0.28255402221E+03  0.41258718014E+03  0.19200000000E+03 0.  0.
   -5000001    1    1    2    0    0  0.22759936128E+03  0.41544391902E+02  0.57640079917E+03  0.65009944396E+03  0.19200000000E+03 0.  0.
<mgrwt>
<rscale>  0 0.62569919E+03</rscale>
<asrwt>0</asrwt>
<pdfrwt beam="1">  1        1 0.13726011E+00 0.62569919E+03</pdfrwt>
<pdfrwt beam="2">  1       -1 0.14552271E-01 0.62569919E+03</pdfrwt>
<totfact> 0.64522133E+02</totfact>
</mgrwt>
</event>
<event>
 4    1  0.7145298E-006  0.5225848E+03  0.7818608E-02  0.1008046E+00
         -1   -1    0    0    0  501 -0.00000000000E+00  0.00000000000E+00  0.16555213757E+03  0.16555213765E+03  0.50400000000E-02 0. -1.
          1   -1    0    0  501    0  0.00000000000E+00 -0.00000000000E+00 -0.41240016969E+03  0.41240016972E+03  0.50400000000E-02 0.  1.
    5000001    1    1    2    0    0 -0.12036645686E+02 -0.10094416295E+03 -0.28397769798E+03  0.35754990956E+03  0.19200000000E+03 0.  0.
   -5000001    1    1    2    0    0  0.12036645686E+02  0.10094416295E+03  0.37129665862E+02  0.22040239781E+03  0.19200000000E+03 0.  0.
<mgrwt>
<rscale>  0 0.52258484E+03</rscale>
<asrwt>0</asrwt>
<pdfrwt beam="1">  1        1 0.58914309E-01 0.52258484E+03</pdfrwt>
<pdfrwt beam="2">  1       -1 0.23650306E-01 0.52258484E+03</pdfrwt>
<totfact> 0.98194550E+02</totfact>
</mgrwt>
</event>
<event>
 4    1  0.7145298E-006  0.4958582E+03  0.7818608E-02  0.1014866E+00
          1   -1    0    0  501    0  0.00000000000E+00  0.00000000000E+00  0.15222228596E+03  0.15222228604E+03  0.50400000000E-02 0. -1.
         -1   -1    0    0    0  501 -0.00000000000E+00 -0.00000000000E+00 -0.40380979307E+03  0.40380979310E+03  0.50400000000E-02 0.  1.
    5000001    1    1    2    0    0  0.91974911306E+02 -0.55458784547E+02 -0.25399037881E+03  0.33602109104E+03  0.19200000000E+03 0.  0.
   -5000001    1    1    2    0    0 -0.91974911306E+02  0.55458784547E+02  0.24028717015E+01  0.22001098810E+03  0.19200000000E+03 0.  0.
<mgrwt>
<rscale>  0 0.49585825E+03</rscale>
<asrwt>0</asrwt>
<pdfrwt beam="1">  1        1 0.21746041E-01 0.49585825E+03</pdfrwt>
<pdfrwt beam="2">  1       -1 0.57687113E-01 0.49585825E+03</pdfrwt>
<totfact> 0.71973340E+02</totfact>
</mgrwt>
</event>
<event>
 4    1  0.7145298E-006  0.7975616E+03  0.7818608E-02  0.9563553E-01
         -1   -1    0    0    0  501 -0.00000000000E+00  0.00000000000E+00  0.65969531174E+03  0.65969531176E+03  0.50400000000E-02 0. -1.
          1   -1    0    0  501    0  0.00000000000E+00 -0.00000000000E+00 -0.24105995281E+03  0.24105995286E+03  0.50400000000E-02 0.  1.
    5000001    1    1    2    0    0 -0.78544970215E+02 -0.30788074691E+03  0.44867785288E+02  0.37394783703E+03  0.19200000000E+03 0.  0.
   -5000001    1    1    2    0    0  0.78544970215E+02  0.30788074691E+03  0.37376757364E+03  0.52680742759E+03  0.19200000000E+03 0.  0.
<mgrwt>
<rscale>  0 0.79756159E+03</rscale>
<asrwt>0</asrwt>
<pdfrwt beam="1">  1        1 0.34437137E-01 0.79756159E+03</pdfrwt>
<pdfrwt beam="2">  1       -1 0.94242186E-01 0.79756159E+03</pdfrwt>
<totfact> 0.14166050E+02</totfact>
</mgrwt>
</event>
<event>
 4    1  0.7145298E-006  0.4997819E+03  0.7818608E-02  0.1013836E+00
          1   -1    0    0  501    0  0.00000000000E+00  0.00000000000E+00  0.67298673571E+03  0.67298673573E+03  0.50400000000E-02 0.  1.
         -1   -1    0    0    0  501 -0.00000000000E+00 -0.00000000000E+00 -0.92788586882E+02  0.92788587019E+02  0.50400000000E-02 0. -1.
    5000001    1    1    2    0    0 -0.13071462369E+03  0.27247264709E+02  0.42501060325E+03  0.48510487439E+03  0.19200000000E+03 0.  0.
   -5000001    1    1    2    0    0  0.13071462369E+03 -0.27247264709E+02  0.15518754558E+03  0.28067044836E+03  0.19200000000E+03 0.  0.
<mgrwt>
<rscale>  0 0.49978191E+03</rscale>
<asrwt>0</asrwt>
<pdfrwt beam="1">  1        1 0.96140967E-01 0.49978191E+03</pdfrwt>
<pdfrwt beam="2">  1       -1 0.13255512E-01 0.49978191E+03</pdfrwt>
<totfact> 0.13019400E+03</totfact>
</mgrwt>
</event>
<event>
 4    1  0.7145298E-006  0.1128644E+04  0.7818608E-02  0.9177714E-01
          1   -1    0    0  501    0  0.00000000000E+00  0.00000000000E+00  0.61338213775E+03  0.61338213777E+03  0.50400000000E-02 0.  1.
         -1   -1    0    0    0  501 -0.00000000000E+00 -0.00000000000E+00 -0.51918602517E+03  0.51918602519E+03  0.50400000000E-02 0. -1.
    5000001    1    1    2    0    0 -0.15727986306E+03 -0.35325393818E+03  0.41177608886E+03  0.59661448819E+03  0.19200000000E+03 0.  0.
   -5000001    1    1    2    0    0  0.15727986306E+03  0.35325393818E+03 -0.31757997628E+03  0.53595367477E+03  0.19200000000E+03 0.  0.
<mgrwt>
<rscale>  0 0.11286442E+04</rscale>
<asrwt>0</asrwt>
<pdfrwt beam="1">  1        1 0.87626020E-01 0.11286442E+04</pdfrwt>
<pdfrwt beam="2">  1       -1 0.74169432E-01 0.11286442E+04</pdfrwt>
<totfact> 0.67273469E+01</totfact>
</mgrwt>
</event>
<event>
 4    1  0.7145298E-006  0.7559253E+03  0.7818608E-02  0.9626100E-01
         -1   -1    0    0    0  501 -0.00000000000E+00  0.00000000000E+00  0.51144818836E+03  0.51144818838E+03  0.50400000000E-02 0.  1.
          1   -1    0    0  501    0  0.00000000000E+00 -0.00000000000E+00 -0.27931620199E+03  0.27931620203E+03  0.50400000000E-02 0. -1.
    5000001    1    1    2    0    0 -0.19195378787E+03  0.25993420540E+03  0.74488532284E+02  0.38317696859E+03  0.19200000000E+03 0.  0.
   -5000001    1    1    2    0    0  0.19195378787E+03 -0.25993420540E+03  0.15764345409E+03  0.40758742183E+03  0.19200000000E+03 0.  0.
<mgrwt>
<rscale>  0 0.75592530E+03</rscale>
<asrwt>0</asrwt>
<pdfrwt beam="1">  1        1 0.39902314E-01 0.75592530E+03</pdfrwt>
<pdfrwt beam="2">  1       -1 0.73064027E-01 0.75592530E+03</pdfrwt>
<totfact> 0.20263175E+02</totfact>
</mgrwt>
</event>
<event>
 4    1  0.7145298E-006  0.5331307E+03  0.7818608E-02  0.1005476E+00
         -1   -1    0    0    0  501 -0.00000000000E+00  0.00000000000E+00  0.10672574343E+03  0.10672574355E+03  0.50400000000E-02 0. -1.
          1   -1    0    0  501    0  0.00000000000E+00 -0.00000000000E+00 -0.66579132317E+03  0.66579132319E+03  0.50400000000E-02 0.  1.
    5000001    1    1    2    0    0  0.13888036942E+02  0.16146364035E+03 -0.40856630002E+03  0.47963924593E+03  0.19200000000E+03 0.  0.
   -5000001    1    1    2    0    0 -0.13888036942E+02 -0.16146364035E+03 -0.15049927971E+03  0.29287782081E+03  0.19200000000E+03 0.  0.
<mgrwt>
<rscale>  0 0.53313066E+03</rscale>
<asrwt>0</asrwt>
<pdfrwt beam="1">  1        1 0.95113044E-01 0.53313066E+03</pdfrwt>
<pdfrwt beam="2">  1       -1 0.15246535E-01 0.53313066E+03</pdfrwt>
<totfact> 0.10554007E+03</totfact>
</mgrwt>
</event>
<event>
 4    1  0.7145298E-006  0.5580118E+03  0.7818608E-02  0.9996563E-01
          1   -1    0    0  501    0  0.00000000000E+00  0.00000000000E+00  0.12313697372E+04  0.12313697372E+04  0.50400000000E-02 0. -1.
         -1   -1    0    0    0  501 -0.00000000000E+00 -0.00000000000E+00 -0.63217634177E+02  0.63217634378E+02  0.50400000000E-02 0.  1.
    5000001    1    1    2    0    0 -0.19550949403E+03  0.52481005293E+02  0.58740874392E+03  0.65030089236E+03  0.19200000000E+03 0.  0.
   -5000001    1    1    2    0    0  0.19550949403E+03 -0.52481005293E+02  0.58074335910E+03  0.64428647923E+03  0.19200000000E+03 0.  0.
<mgrwt>
<rscale>  0 0.55801176E+03</rscale>
<asrwt>0</asrwt>
<pdfrwt beam="1">  1        1 0.17590995E+00 0.55801176E+03</pdfrwt>
<pdfrwt beam="2">  1       -1 0.90310915E-02 0.55801176E+03</pdfrwt>
<totfact> 0.88673615E+02</totfact>
</mgrwt>
</event>
<event>
 4    1  0.7145298E-006  0.7924481E+03  0.7818608E-02  0.9571013E-01
         -1   -1    0    0    0  501 -0.00000000000E+00  0.00000000000E+00  0.28134973412E+03  0.28134973417E+03  0.50400000000E-02 0. -1.
          1   -1    0    0  501    0  0.00000000000E+00 -0.00000000000E+00 -0.55800128175E+03  0.55800128178E+03  0.50400000000E-02 0.  1.
    5000001    1    1    2    0    0 -0.30994863197E+01  0.24288802792E+03 -0.40019430611E+03  0.50598782947E+03  0.19200000000E+03 0.  0.
   -5000001    1    1    2    0    0  0.30994863197E+01 -0.24288802792E+03  0.12354275848E+03  0.33336318648E+03  0.19200000000E+03 0.  0.
<mgrwt>
<rscale>  0 0.79244814E+03</rscale>
<asrwt>0</asrwt>
<pdfrwt beam="1">  1        1 0.79714469E-01 0.79244814E+03</pdfrwt>
<pdfrwt beam="2">  1       -1 0.40192819E-01 0.79244814E+03</pdfrwt>
<totfact> 0.25714963E+02</totfact>
</mgrwt>
</event>
<event>
 4    1  0.7145298E-006  0.6055303E+03  0.7818608E-02  0.9893998E-01
          1   -1    0    0  501    0  0.00000000000E+00  0.00000000000E+00  0.34226703493E+03  0.34226703497E+03  0.50400000000E-02 0.  1.
         -1   -1    0    0    0  501 -0.00000000000E+00 -0.00000000000E+00 -0.26782225155E+03  0.26782225159E+03  0.50400000000E-02 0. -1.
    5000001    1    1    2    0    0  0.13729749537E+03 -0.30826843016E+02  0.22571873209E+03  0.32804548847E+03  0.19200000000E+03 0.  0.
   -5000001    1    1    2    0    0 -0.13729749537E+03  0.30826843016E+02 -0.15127394871E+03  0.28204379809E+03  0.19200000000E+03 0.  0.
<mgrwt>
<rscale>  0 0.60553027E+03</rscale>
<asrwt>0</asrwt>
<pdfrwt beam="1">  1        1 0.48895291E-01 0.60553027E+03</pdfrwt>
<pdfrwt beam="2">  1       -1 0.38260322E-01 0.60553027E+03</pdfrwt>
<totfact> 0.54212025E+02</totfact>
</mgrwt>
</event>
<event>
 4    1  0.7145298E-006  0.5684674E+03  0.7818608E-02  0.9973076E-01
          1   -1    0    0  501    0  0.00000000000E+00  0.00000000000E+00  0.17347046722E+04  0.17347046722E+04  0.50400000000E-02 0.  1.
         -1   -1    0    0    0  501 -0.00000000000E+00 -0.00000000000E+00 -0.46572078297E+02  0.46572078570E+02  0.50400000000E-02 0. -1.
    5000001    1    1    2    0    0 -0.13902724588E+03  0.15393752887E+03  0.75009012418E+03  0.80157627977E+03  0.19200000000E+03 0.  0.
   -5000001    1    1    2    0    0  0.13902724588E+03 -0.15393752887E+03  0.93804246973E+03  0.97970047102E+03  0.19200000000E+03 0.  0.
<mgrwt>
<rscale>  0 0.56846742E+03</rscale>
<asrwt>0</asrwt>
<pdfrwt beam="1">  1        1 0.24781491E+00 0.56846742E+03</pdfrwt>
<pdfrwt beam="2">  1       -1 0.66531551E-02 0.56846742E+03</pdfrwt>
<totfact> 0.67530224E+02</totfact>
</mgrwt>
</event>
<event>
 4    1  0.7145298E-006  0.6300837E+03  0.7818608E-02  0.9844885E-01
         -1   -1    0    0    0  501 -0.00000000000E+00  0.00000000000E+00  0.15903921216E+03  0.15903921224E+03  0.50400000000E-02 0. -1.
          1   -1    0    0  501    0  0.00000000000E+00 -0.00000000000E+00 -0.62406856918E+03  0.62406856920E+03  0.50400000000E-02 0.  1.
    5000001    1    1    2    0    0 -0.70780264819E+01 -0.21619585302E+03 -0.38773144852E+03  0.48372556424E+03  0.19200000000E+03 0.  0.
   -5000001    1    1    2    0    0  0.70780264819E+01  0.21619585302E+03 -0.77297908497E+02  0.29938221721E+03  0.19200000000E+03 0.  0.
<mgrwt>
<rscale>  0 0.63008372E+03</rscale>
<asrwt>0</asrwt>
<pdfrwt beam="1">  1        1 0.89152651E-01 0.63008372E+03</pdfrwt>
<pdfrwt beam="2">  1       -1 0.22719888E-01 0.63008372E+03</pdfrwt>
<totfact> 0.59858865E+02</totfact>
</mgrwt>
</event>
<event>
 4    1  0.7145298E-006  0.5160595E+03  0.7818608E-02  0.1009670E+00
         -1   -1    0    0    0  501 -0.00000000000E+00  0.00000000000E+00  0.48923845762E+03  0.48923845765E+03  0.50400000000E-02 0. -1.
          1   -1    0    0  501    0  0.00000000000E+00 -0.00000000000E+00 -0.13608771529E+03  0.13608771539E+03  0.50400000000E-02 0.  1.
    5000001    1    1    2    0    0  0.58990936997E+02 -0.13272244183E+03  0.28907852274E+03  0.37619884306E+03  0.19200000000E+03 0.  0.
   -5000001    1    1    2    0    0 -0.58990936997E+02  0.13272244183E+03  0.64072219590E+02  0.24912732997E+03  0.19200000000E+03 0.  0.
<mgrwt>
<rscale>  0 0.51605947E+03</rscale>
<asrwt>0</asrwt>
<pdfrwt beam="1">  1        1 0.19441102E-01 0.51605947E+03</pdfrwt>
<pdfrwt beam="2">  1       -1 0.69891208E-01 0.51605947E+03</pdfrwt>
<totfact> 0.56976143E+02</totfact>
</mgrwt>
</event>
<event>
 4    1  0.7145298E-006  0.4491416E+03  0.7818608E-02  0.1027978E+00
          1   -1    0    0  501    0  0.00000000000E+00  0.00000000000E+00  0.12350912525E+04  0.12350912525E+04  0.50400000000E-02 0.  1.
         -1   -1    0    0    0  501 -0.00000000000E+00 -0.00000000000E+00 -0.40832642600E+02  0.40832642911E+02  0.50400000000E-02 0. -1.
    5000001    1    1    2    0    0 -0.11143239568E+03 -0.13418367022E+02  0.50861605307E+03  0.55511397102E+03  0.19200000000E+03 0.  0.
   -5000001    1    1    2    0    0  0.11143239568E+03  0.13418367022E+02  0.68564255682E+03  0.72080992439E+03  0.19200000000E+03 0.  0.
<mgrwt>
<rscale>  0 0.44914158E+03</rscale>
<asrwt>0</asrwt>
<pdfrwt beam="1">  1        1 0.17644159E+00 0.44914158E+03</pdfrwt>
<pdfrwt beam="2">  1       -1 0.58332351E-02 0.44914158E+03</pdfrwt>
<totfact> 0.17386938E+03</totfact>
</mgrwt>
</event>
<event>
 4    1  0.7145298E-006  0.5558988E+03  0.7818608E-02  0.1000138E+00
         -1   -1    0    0    0  501 -0.00000000000E+00  0.00000000000E+00  0.13801815919E+03  0.13801815928E+03  0.50400000000E-02 0. -1.
          1   -1    0    0  501    0  0.00000000000E+00 -0.00000000000E+00 -0.55975143707E+03  0.55975143709E+03  0.50400000000E-02 0.  1.
    5000001    1    1    2    0    0 -0.17629530710E+03  0.66996231807E+02 -0.29804123184E+03  0.40157328877E+03  0.19200000000E+03 0.  0.
   -5000001    1    1    2    0    0  0.17629530710E+03 -0.66996231807E+02 -0.12369204604E+03  0.29619630760E+03  0.19200000000E+03 0.  0.
<mgrwt>
<rscale>  0 0.55589878E+03</rscale>
<asrwt>0</asrwt>
<pdfrwt beam="1">  1        1 0.79964490E-01 0.55589878E+03</pdfrwt>
<pdfrwt beam="2">  1       -1 0.19716880E-01 0.55589878E+03</pdfrwt>
<totfact> 0.88398411E+02</totfact>
</mgrwt>
</event>
<event>
 4    1  0.7145298E-006  0.6970439E+03  0.7818608E-02  0.9722301E-01
         -1   -1    0    0    0  501 -0.00000000000E+00  0.00000000000E+00  0.39611032881E+03  0.39611032884E+03  0.50400000000E-02 0. -1.
          1   -1    0    0  501    0  0.00000000000E+00 -0.00000000000E+00 -0.30665078818E+03  0.30665078822E+03  0.50400000000E-02 0.  1.
    5000001    1    1    2    0    0  0.66052128517E+01  0.27889521698E+03 -0.38270272846E+02  0.34081488329E+03  0.19200000000E+03 0.  0.
   -5000001    1    1    2    0    0 -0.66052128517E+01 -0.27889521698E+03  0.12772981348E+03  0.36194623377E+03  0.19200000000E+03 0.  0.
<mgrwt>
<rscale>  0 0.69704389E+03</rscale>
<asrwt>0</asrwt>
<pdfrwt beam="1">  1        1 0.43807256E-01 0.69704389E+03</pdfrwt>
<pdfrwt beam="2">  1       -1 0.56587190E-01 0.69704389E+03</pdfrwt>
<totfact> 0.30033841E+02</totfact>
</mgrwt>
</event>
<event>
 4    1  0.7145298E-006  0.5304731E+03  0.7818608E-02  0.1006117E+00
         -1   -1    0    0    0  501 -0.00000000000E+00  0.00000000000E+00  0.93268022716E+02  0.93268022852E+02  0.50400000000E-02 0. -1.
          1   -1    0    0  501    0  0.00000000000E+00 -0.00000000000E+00 -0.75428252406E+03  0.75428252407E+03  0.50400000000E-02 0.  1.
    5000001    1    1    2    0    0 -0.18758836214E+02  0.18134372577E+03 -0.30529562394E+03  0.40411243337E+03  0.19200000000E+03 0.  0.
   -5000001    1    1    2    0    0  0.18758836214E+02 -0.18134372577E+03 -0.35571887740E+03  0.44343811355E+03  0.19200000000E+03 0.  0.
<mgrwt>
<rscale>  0 0.53047315E+03</rscale>
<asrwt>0</asrwt>
<pdfrwt beam="1">  1        1 0.10775464E+00 0.53047315E+03</pdfrwt>
<pdfrwt beam="2">  1       -1 0.13324004E-01 0.53047315E+03</pdfrwt>
<totfact> 0.10920114E+03</totfact>
</mgrwt>
</event>
<event>
 4    1  0.7145298E-006  0.4746967E+03  0.7818608E-02  0.1020603E+00
          1   -1    0    0  501    0  0.00000000000E+00  0.00000000000E+00  0.17113904697E+03  0.17113904704E+03  0.50400000000E-02 0.  1.
         -1   -1    0    0    0  501 -0.00000000000E+00 -0.00000000000E+00 -0.32917235953E+03  0.32917235957E+03  0.50400000000E-02 0. -1.
    5000001    1    1    2    0    0 -0.11758605136E+03 -0.66235193153E+02 -0.41654348095E+02  0.23835407486E+03  0.19200000000E+03 0.  0.
   -5000001    1    1    2    0    0  0.11758605136E+03  0.66235193153E+02 -0.11637896447E+03  0.26195733175E+03  0.19200000000E+03 0.  0.
<mgrwt>
<rscale>  0 0.47469672E+03</rscale>
<asrwt>0</asrwt>
<pdfrwt beam="1">  1        1 0.24448435E-01 0.47469672E+03</pdfrwt>
<pdfrwt beam="2">  1       -1 0.47024623E-01 0.47469672E+03</pdfrwt>
<totfact> 0.90991508E+02</totfact>
</mgrwt>
</event>
<event>
 4    1  0.7145298E-006  0.4334472E+03  0.7818608E-02  0.1032777E+00
          1   -1    0    0  501    0  0.00000000000E+00  0.00000000000E+00  0.34011368934E+04  0.34011368934E+04  0.50400000000E-02 0. -1.
         -1   -1    0    0    0  501 -0.00000000000E+00 -0.00000000000E+00 -0.13809827562E+02  0.13809828481E+02  0.50400000000E-02 0.  1.
    5000001    1    1    2    0    0 -0.38369614203E+02  0.89022219535E+02  0.14840382127E+04  0.14995434638E+04  0.19200000000E+03 0.  0.
   -5000001    1    1    2    0    0  0.38369614203E+02 -0.89022219535E+02  0.19032888531E+04  0.19154032581E+04  0.19200000000E+03 0.  0.
<mgrwt>
<rscale>  0 0.43344719E+03</rscale>
<asrwt>0</asrwt>
<pdfrwt beam="1">  1        1 0.48587680E+00 0.43344719E+03</pdfrwt>
<pdfrwt beam="2">  1       -1 0.19728322E-02 0.43344719E+03</pdfrwt>
<totfact> 0.38092562E+02</totfact>
</mgrwt>
</event>
<event>
 4    1  0.7145298E-006  0.7818209E+03  0.7818608E-02  0.9586710E-01
          1   -1    0    0  501    0  0.00000000000E+00  0.00000000000E+00  0.60217704307E+03  0.60217704309E+03  0.50400000000E-02 0.  1.
         -1   -1    0    0    0  501 -0.00000000000E+00 -0.00000000000E+00 -0.25376419016E+03  0.25376419021E+03  0.50400000000E-02 0. -1.
    5000001    1    1    2    0    0  0.58101244962E+01  0.17554909677E+03  0.49357381168E+03  0.55796984730E+03  0.19200000000E+03 0.  0.
   -5000001    1    1    2    0    0 -0.58101244962E+01 -0.17554909677E+03 -0.14516095877E+03  0.29797138600E+03  0.19200000000E+03 0.  0.
<mgrwt>
<rscale>  0 0.78182087E+03</rscale>
<asrwt>0</asrwt>
<pdfrwt beam="1">  1        1 0.86025290E-01 0.78182087E+03</pdfrwt>
<pdfrwt beam="2">  1       -1 0.36252028E-01 0.78182087E+03</pdfrwt>
<totfact> 0.27862902E+02</totfact>
</mgrwt>
</event>
<event>
 4    1  0.7145298E-006  0.7679364E+03  0.7818608E-02  0.9607624E-01
         -1   -1    0    0    0  501 -0.00000000000E+00  0.00000000000E+00  0.15363540078E+03  0.15363540086E+03  0.50400000000E-02 0. -1.
          1   -1    0    0  501    0  0.00000000000E+00 -0.00000000000E+00 -0.95961985478E+03  0.95961985480E+03  0.50400000000E-02 0.  1.
    5000001    1    1    2    0    0 -0.19666584409E+02 -0.28459619525E+03 -0.15533250082E+03  0.37732473376E+03  0.19200000000E+03 0.  0.
   -5000001    1    1    2    0    0  0.19666584409E+02  0.28459619525E+03 -0.65065195318E+03  0.73593052190E+03  0.19200000000E+03 0.  0.
<mgrwt>
<rscale>  0 0.76793641E+03</rscale>
<asrwt>0</asrwt>
<pdfrwt beam="1">  1        1 0.13708855E+00 0.76793641E+03</pdfrwt>
<pdfrwt beam="2">  1       -1 0.21947915E-01 0.76793641E+03</pdfrwt>
<totfact> 0.32648029E+02</totfact>
</mgrwt>
</event>
<event>
 4    1  0.7145298E-006  0.6077846E+03  0.7818608E-02  0.9889386E-01
          1   -1    0    0  501    0  0.00000000000E+00  0.00000000000E+00  0.57881578069E+02  0.57881578288E+02  0.50400000000E-02 0.  1.
         -1   -1    0    0    0  501 -0.00000000000E+00 -0.00000000000E+00 -0.15955082964E+04  0.15955082964E+04  0.50400000000E-02 0. -1.
    5000001    1    1    2    0    0  0.20988396535E+03 -0.77439396287E+02 -0.96942729771E+03  0.10132627619E+04  0.19200000000E+03 0.  0.
   -5000001    1    1    2    0    0 -0.20988396535E+03  0.77439396287E+02 -0.56819942066E+03  0.64012711288E+03  0.19200000000E+03 0.  0.
<mgrwt>
<rscale>  0 0.60778463E+03</rscale>
<asrwt>0</asrwt>
<pdfrwt beam="1">  1        1 0.82687979E-02 0.60778463E+03</pdfrwt>
<pdfrwt beam="2">  1       -1 0.22792973E+00 0.60778463E+03</pdfrwt>
<totfact> 0.88263203E+01</totfact>
</mgrwt>
</event>
<event>
 4    1  0.7145298E-006  0.5853589E+03  0.7818608E-02  0.9936256E-01
         -1   -1    0    0    0  501 -0.00000000000E+00  0.00000000000E+00  0.49831208405E+03  0.49831208407E+03  0.50400000000E-02 0. -1.
          1   -1    0    0  501    0  0.00000000000E+00 -0.00000000000E+00 -0.17190281036E+03  0.17190281043E+03  0.50400000000E-02 0.  1.
    5000001    1    1    2    0    0  0.20240155487E+03  0.87521416165E+02  0.14823841767E+03  0.32781857204E+03  0.19200000000E+03 0.  0.
   -5000001    1    1    2    0    0 -0.20240155487E+03 -0.87521416165E+02  0.17817085602E+03  0.34239632246E+03  0.19200000000E+03 0.  0.
<mgrwt>
<rscale>  0 0.58535886E+03</rscale>
<asrwt>0</asrwt>
<pdfrwt beam="1">  1        1 0.24557544E-01 0.58535886E+03</pdfrwt>
<pdfrwt beam="2">  1       -1 0.71187441E-01 0.58535886E+03</pdfrwt>
<totfact> 0.40349578E+02</totfact>
</mgrwt>
</event>
<event>
 4    1  0.7145298E-006  0.4483762E+03  0.7818608E-02  0.1028207E+00
         -1   -1    0    0    0  501 -0.00000000000E+00  0.00000000000E+00  0.14340237034E+02  0.14340237920E+02  0.50400000000E-02 0. -1.
          1   -1    0    0  501    0  0.00000000000E+00 -0.00000000000E+00 -0.35048445843E+04  0.35048445843E+04  0.50400000000E-02 0.  1.
    5000001    1    1    2    0    0  0.23575314095E+01  0.74774164675E+02 -0.24384143500E+04  0.24471054893E+04  0.19200000000E+03 0.  0.
   -5000001    1    1    2    0    0 -0.23575314095E+01 -0.74774164675E+02 -0.10520899973E+04  0.10720793329E+04  0.19200000000E+03 0.  0.
<mgrwt>
<rscale>  0 0.44837620E+03</rscale>
<asrwt>0</asrwt>
<pdfrwt beam="1">  1        1 0.50069154E+00 0.44837620E+03</pdfrwt>
<pdfrwt beam="2">  1       -1 0.20486076E-02 0.44837620E+03</pdfrwt>
<totfact> 0.30587146E+02</totfact>
</mgrwt>
</event>
<event>
 4    1  0.7145298E-006  0.4605012E+03  0.7818608E-02  0.1024636E+00
         -1   -1    0    0    0  501 -0.00000000000E+00  0.00000000000E+00  0.13327860916E+02  0.13327861869E+02  0.50400000000E-02 0. -1.
          1   -1    0    0  501    0  0.00000000000E+00 -0.00000000000E+00 -0.39777823550E+04  0.39777823550E+04  0.50400000000E-02 0.  1.
    5000001    1    1    2    0    0 -0.90762658002E+02  0.36612159102E+02 -0.26848877031E+04  0.26935226542E+04  0.19200000000E+03 0.  0.
   -5000001    1    1    2    0    0  0.90762658002E+02 -0.36612159102E+02 -0.12795667909E+04  0.12975875626E+04  0.19200000000E+03 0.  0.
<mgrwt>
<rscale>  0 0.46050117E+03</rscale>
<asrwt>0</asrwt>
<pdfrwt beam="1">  1        1 0.56825386E+00 0.46050117E+03</pdfrwt>
<pdfrwt beam="2">  1       -1 0.19039827E-02 0.46050117E+03</pdfrwt>
<totfact> 0.15739083E+02</totfact>
</mgrwt>
</event>
<event>
 4    1  0.7145298E-006  0.4417752E+03  0.7818608E-02  0.1030204E+00
          1   -1    0    0  501    0  0.00000000000E+00  0.00000000000E+00  0.14296314565E+03  0.14296314573E+03  0.50400000000E-02 0. -1.
         -1   -1    0    0    0  501 -0.00000000000E+00 -0.00000000000E+00 -0.34128612549E+03  0.34128612552E+03  0.50400000000E-02 0.  1.
    5000001    1    1    2    0    0  0.88614710158E+02  0.44252105349E+02 -0.48732641421E+02  0.22147163706E+03  0.19200000000E+03 0.  0.
   -5000001    1    1    2    0    0 -0.88614710158E+02 -0.44252105349E+02 -0.14959033842E+03  0.26277763420E+03  0.19200000000E+03 0.  0.
<mgrwt>
<rscale>  0 0.44177523E+03</rscale>
<asrwt>0</asrwt>
<pdfrwt beam="1">  1        1 0.20423307E-01 0.44177523E+03</pdfrwt>
<pdfrwt beam="2">  1       -1 0.48755160E-01 0.44177523E+03</pdfrwt>
<totfact> 0.10751936E+03</totfact>
</mgrwt>
</event>
<event>
 4    1  0.7145298E-006  0.6640024E+03  0.7818608E-02  0.9780854E-01
         -1   -1    0    0    0  501 -0.00000000000E+00  0.00000000000E+00  0.10360012900E+03  0.10360012912E+03  0.50400000000E-02 0.  1.
          1   -1    0    0  501    0  0.00000000000E+00 -0.00000000000E+00 -0.10639446677E+04  0.10639446678E+04  0.50400000000E-02 0. -1.
    5000001    1    1    2    0    0 -0.41399681852E+02 -0.26609267108E+03 -0.42916326412E+03  0.54181579021E+03  0.19200000000E+03 0.  0.
   -5000001    1    1    2    0    0  0.41399681852E+02  0.26609267108E+03 -0.53118127463E+03  0.62572900666E+03  0.19200000000E+03 0.  0.
<mgrwt>
<rscale>  0 0.66400242E+03</rscale>
<asrwt>0</asrwt>
<pdfrwt beam="1">  1        1 0.15199209E+00 0.66400242E+03</pdfrwt>
<pdfrwt beam="2">  1       -1 0.14800019E-01 0.66400242E+03</pdfrwt>
<totfact> 0.52618835E+02</totfact>
</mgrwt>
</event>
<event>
 4    1  0.7145298E-006  0.4005214E+03  0.7818608E-02  0.1043599E+00
          1   -1    0    0  501    0  0.00000000000E+00  0.00000000000E+00  0.28955443836E+03  0.28955443840E+03  0.50400000000E-02 0.  1.
         -1   -1    0    0    0  501 -0.00000000000E+00 -0.00000000000E+00 -0.13850365257E+03  0.13850365267E+03  0.50400000000E-02 0. -1.
    5000001    1    1    2    0    0 -0.37475350352E+02  0.80660815084E+01  0.12050048084E+03  0.22989960730E+03  0.19200000000E+03 0.  0.
   -5000001    1    1    2    0    0  0.37475350352E+02 -0.80660815084E+01  0.30550304935E+02  0.19815848376E+03  0.19200000000E+03 0.  0.
<mgrwt>
<rscale>  0 0.40052140E+03</rscale>
<asrwt>0</asrwt>
<pdfrwt beam="1">  1        1 0.41364920E-01 0.40052140E+03</pdfrwt>
<pdfrwt beam="2">  1       -1 0.19786236E-01 0.40052140E+03</pdfrwt>
<totfact> 0.20784204E+03</totfact>
</mgrwt>
</event>
<event>
 4    1  0.7145298E-006  0.4856921E+03  0.7818608E-02  0.1017582E+00
          1   -1    0    0  501    0  0.00000000000E+00  0.00000000000E+00  0.89759304753E+03  0.89759304754E+03  0.50400000000E-02 0.  1.
         -1   -1    0    0    0  501 -0.00000000000E+00 -0.00000000000E+00 -0.65702600817E+02  0.65702601010E+02  0.50400000000E-02 0. -1.
    5000001    1    1    2    0    0  0.97908451766E+02  0.10859453626E+03  0.46958217090E+03  0.52796804208E+03  0.19200000000E+03 0.  0.
   -5000001    1    1    2    0    0 -0.97908451766E+02 -0.10859453626E+03  0.36230827581E+03  0.43532760647E+03  0.19200000000E+03 0.  0.
<mgrwt>
<rscale>  0 0.48569207E+03</rscale>
<asrwt>0</asrwt>
<pdfrwt beam="1">  1        1 0.12822756E+00 0.48569207E+03</pdfrwt>
<pdfrwt beam="2">  1       -1 0.93860868E-02 0.48569207E+03</pdfrwt>
<totfact> 0.14534090E+03</totfact>
</mgrwt>
</event>
<event>
 4    1  0.7145298E-006  0.4184606E+03  0.7818608E-02  0.1037568E+00
         -1   -1    0    0    0  501 -0.00000000000E+00  0.00000000000E+00  0.40828632835E+02  0.40828633146E+02  0.50400000000E-02 0. -1.
          1   -1    0    0  501    0  0.00000000000E+00 -0.00000000000E+00 -0.10722209249E+04  0.10722209249E+04  0.50400000000E-02 0.  1.
    5000001    1    1    2    0    0  0.10424383807E+02  0.81654138866E+02 -0.48453498004E+03  0.52764970677E+03  0.19200000000E+03 0.  0.
   -5000001    1    1    2    0    0 -0.10424383807E+02 -0.81654138866E+02 -0.54685731201E+03  0.58539985128E+03  0.19200000000E+03 0.  0.
<mgrwt>
<rscale>  0 0.41846058E+03</rscale>
<asrwt>0</asrwt>
<pdfrwt beam="1">  1        1 0.15317440E+00 0.41846058E+03</pdfrwt>
<pdfrwt beam="2">  1       -1 0.58326625E-02 0.41846058E+03</pdfrwt>
<totfact> 0.22518189E+03</totfact>
</mgrwt>
</event>
<event>
 4    1  0.7145298E-006  0.6984467E+03  0.7818608E-02  0.9719892E-01
         -1   -1    0    0    0  501 -0.00000000000E+00  0.00000000000E+00  0.12311577603E+04  0.12311577603E+04  0.50400000000E-02 0.  1.
          1   -1    0    0  501    0  0.00000000000E+00 -0.00000000000E+00 -0.99058760587E+02  0.99058760715E+02  0.50400000000E-02 0. -1.
    5000001    1    1    2    0    0  0.14020215398E+02  0.28453885823E+03  0.68550552989E+03  0.76677295192E+03  0.19200000000E+03 0.  0.
   -5000001    1    1    2    0    0 -0.14020215398E+02 -0.28453885823E+03  0.44659346983E+03  0.56344356912E+03  0.19200000000E+03 0.  0.
<mgrwt>
<rscale>  0 0.69844674E+03</rscale>
<asrwt>0</asrwt>
<pdfrwt beam="1">  1        1 0.14151252E-01 0.69844674E+03</pdfrwt>
<pdfrwt beam="2">  1       -1 0.17587967E+00 0.69844674E+03</pdfrwt>
<totfact> 0.95088733E+01</totfact>
</mgrwt>
</event>
<event>
 4    1  0.7145298E-006  0.5432022E+03  0.7818608E-02  0.1003080E+00
          1   -1    0    0  501    0  0.00000000000E+00  0.00000000000E+00  0.13271365611E+04  0.13271365611E+04  0.50400000000E-02 0.  1.
         -1   -1    0    0    0  501 -0.00000000000E+00 -0.00000000000E+00 -0.55583694897E+02  0.55583695126E+02  0.50400000000E-02 0. -1.
    5000001    1    1    2    0    0  0.88629360865E+02  0.93625069786E+01  0.20259024920E+03  0.29300107375E+03  0.19200000000E+03 0.  0.
   -5000001    1    1    2    0    0 -0.88629360865E+02 -0.93625069786E+01  0.10689626170E+04  0.10897191825E+04  0.19200000000E+03 0.  0.
<mgrwt>
<rscale>  0 0.54320219E+03</rscale>
<asrwt>0</asrwt>
<pdfrwt beam="1">  1        1 0.18959096E+00 0.54320219E+03</pdfrwt>
<pdfrwt beam="2">  1       -1 0.79405270E-02 0.54320219E+03</pdfrwt>
<totfact> 0.93597923E+02</totfact>
</mgrwt>
</event>
<event>
 4    1  0.7145298E-006  0.4684132E+03  0.7818608E-02  0.1022369E+00
         -1   -1    0    0    0  501 -0.00000000000E+00  0.00000000000E+00  0.29801517982E+03  0.29801517986E+03  0.50400000000E-02 0.  1.
          1   -1    0    0  501    0  0.00000000000E+00 -0.00000000000E+00 -0.18406020119E+03  0.18406020125E+03  0.50400000000E-02 0. -1.
    5000001    1    1    2    0    0  0.74438968233E+01  0.13247299519E+03  0.77150944180E+02  0.24580637551E+03  0.19200000000E+03 0.  0.
   -5000001    1    1    2    0    0 -0.74438968233E+01 -0.13247299519E+03  0.36804034454E+02  0.23626900560E+03  0.19200000000E+03 0.  0.
<mgrwt>
<rscale>  0 0.46841321E+03</rscale>
<asrwt>0</asrwt>
<pdfrwt beam="1">  1        1 0.26294315E-01 0.46841321E+03</pdfrwt>
<pdfrwt beam="2">  1       -1 0.42573597E-01 0.46841321E+03</pdfrwt>
<totfact> 0.99404735E+02</totfact>
</mgrwt>
</event>
<event>
 4    1  0.7145298E-006  0.6060776E+03  0.7818608E-02  0.9892877E-01
          1   -1    0    0  501    0  0.00000000000E+00  0.00000000000E+00  0.17415145645E+04  0.17415145645E+04  0.50400000000E-02 0.  1.
         -1   -1    0    0    0  501 -0.00000000000E+00 -0.00000000000E+00 -0.52731410779E+02  0.52731411020E+02  0.50400000000E-02 0. -1.
    5000001    1    1    2    0    0 -0.32995956625E+02 -0.14262653719E+03  0.13865407549E+04  0.14074055305E+04  0.19200000000E+03 0.  0.
   -5000001    1    1    2    0    0  0.32995956625E+02  0.14262653719E+03  0.30224239879E+03  0.38684044500E+03  0.19200000000E+03 0.  0.
<mgrwt>
<rscale>  0 0.60607762E+03</rscale>
<asrwt>0</asrwt>
<pdfrwt beam="1">  1        1 0.24878766E+00 0.60607762E+03</pdfrwt>
<pdfrwt beam="2">  1       -1 0.75330628E-02 0.60607762E+03</pdfrwt>
<totfact> 0.55034223E+02</totfact>
</mgrwt>
</event>
<event>
 4    1  0.7145298E-006  0.5206232E+03  0.7818608E-02  0.1008532E+00
         -1   -1    0    0    0  501 -0.00000000000E+00  0.00000000000E+00  0.54082476017E+02  0.54082476252E+02  0.50400000000E-02 0. -1.
          1   -1    0    0  501    0  0.00000000000E+00 -0.00000000000E+00 -0.12529405903E+04  0.12529405903E+04  0.50400000000E-02 0.  1.
    5000001    1    1    2    0    0 -0.11076792745E+03 -0.10867990280E+02 -0.94099031516E+03  0.96680629921E+03  0.19200000000E+03 0.  0.
   -5000001    1    1    2    0    0  0.11076792745E+03  0.10867990280E+02 -0.25786779912E+03  0.34021676735E+03  0.19200000000E+03 0.  0.
<mgrwt>
<rscale>  0 0.52062320E+03</rscale>
<asrwt>0</asrwt>
<pdfrwt beam="1">  1        1 0.17899149E+00 0.52062320E+03</pdfrwt>
<pdfrwt beam="2">  1       -1 0.77260688E-02 0.52062320E+03</pdfrwt>
<totfact> 0.10952107E+03</totfact>
</mgrwt>
</event>
<event>
 4    1  0.7145298E-006  0.6623941E+03  0.7818608E-02  0.9783797E-01
         -1   -1    0    0    0  501 -0.00000000000E+00  0.00000000000E+00  0.46947596688E+03  0.46947596691E+03  0.50400000000E-02 0. -1.
          1   -1    0    0  501    0  0.00000000000E+00 -0.00000000000E+00 -0.23364661835E+03  0.23364661840E+03  0.50400000000E-02 0.  1.
    5000001    1    1    2    0    0  0.19118976630E+03  0.15500912425E+03  0.44823129814E+00  0.31216270797E+03  0.19200000000E+03 0.  0.
   -5000001    1    1    2    0    0 -0.19118976630E+03 -0.15500912425E+03  0.23538111724E+03  0.39095987734E+03  0.19200000000E+03 0.  0.
<mgrwt>
<rscale>  0 0.66239406E+03</rscale>
<asrwt>0</asrwt>
<pdfrwt beam="1">  1        1 0.33378088E-01 0.66239406E+03</pdfrwt>
<pdfrwt beam="2">  1       -1 0.67067995E-01 0.66239406E+03</pdfrwt>
<totfact> 0.30517017E+02</totfact>
</mgrwt>
</event>
<event>
 4    1  0.7145298E-006  0.1080160E+04  0.7818608E-02  0.9224747E-01
          1   -1    0    0  501    0  0.00000000000E+00  0.00000000000E+00  0.14046633983E+04  0.14046633983E+04  0.50400000000E-02 0.  1.
         -1   -1    0    0    0  501 -0.00000000000E+00 -0.00000000000E+00 -0.20765591733E+03  0.20765591739E+03  0.50400000000E-02 0. -1.
    5000001    1    1    2    0    0 -0.48590396352E+03 -0.13615422260E+03  0.57836477236E+03  0.79120821785E+03  0.19200000000E+03 0.  0.
   -5000001    1    1    2    0    0  0.48590396352E+03  0.13615422260E+03  0.61864270860E+03  0.82111109784E+03  0.19200000000E+03 0.  0.
<mgrwt>
<rscale>  0 0.10801605E+04</rscale>
<asrwt>0</asrwt>
<pdfrwt beam="1">  1        1 0.20066620E+00 0.10801605E+04</pdfrwt>
<pdfrwt beam="2">  1       -1 0.29665132E-01 0.10801605E+04</pdfrwt>
<totfact> 0.93157774E+01</totfact>
</mgrwt>
</event>
<event>
 4    1  0.7145298E-006  0.5627646E+03  0.7818608E-02  0.9985819E-01
          1   -1    0    0  501    0  0.00000000000E+00  0.00000000000E+00  0.33347569395E+03  0.33347569398E+03  0.50400000000E-02 0.  1.
         -1   -1    0    0    0  501 -0.00000000000E+00 -0.00000000000E+00 -0.23742656953E+03  0.23742656959E+03  0.50400000000E-02 0. -1.
    5000001    1    1    2    0    0 -0.96255928068E+02  0.17396142802E+03 -0.55040336548E+01  0.27644543135E+03  0.19200000000E+03 0.  0.
   -5000001    1    1    2    0    0  0.96255928068E+02 -0.17396142802E+03  0.10155315807E+03  0.29445683222E+03  0.19200000000E+03 0.  0.
<mgrwt>
<rscale>  0 0.56276457E+03</rscale>
<asrwt>0</asrwt>
<pdfrwt beam="1">  1        1 0.47639385E-01 0.56276457E+03</pdfrwt>
<pdfrwt beam="2">  1       -1 0.33918081E-01 0.56276457E+03</pdfrwt>
<totfact> 0.69528222E+02</totfact>
</mgrwt>
</event>
<event>
 4    1  0.7145298E-006  0.6478784E+03  0.7818608E-02  0.9810768E-01
          1   -1    0    0  501    0  0.00000000000E+00  0.00000000000E+00  0.39864887343E+03  0.39864887346E+03  0.50400000000E-02 0.  1.
         -1   -1    0    0    0  501 -0.00000000000E+00 -0.00000000000E+00 -0.26323068553E+03  0.26323068558E+03  0.50400000000E-02 0. -1.
    5000001    1    1    2    0    0  0.12272895417E+03  0.13391512005E+03 -0.12362678831E+03  0.29179314309E+03  0.19200000000E+03 0.  0.
   -5000001    1    1    2    0    0 -0.12272895417E+03 -0.13391512005E+03  0.25904497621E+03  0.37008641594E+03  0.19200000000E+03 0.  0.
<mgrwt>
<rscale>  0 0.64787843E+03</rscale>
<asrwt>0</asrwt>
<pdfrwt beam="1">  1        1 0.56949839E-01 0.64787843E+03</pdfrwt>
<pdfrwt beam="2">  1       -1 0.37604384E-01 0.64787843E+03</pdfrwt>
<totfact> 0.45803751E+02</totfact>
</mgrwt>
</event>
<event>
 4    1  0.7145298E-006  0.7038275E+03  0.7818608E-02  0.9710709E-01
          1   -1    0    0  501    0  0.00000000000E+00  0.00000000000E+00  0.41774211863E+04  0.41774211863E+04  0.50400000000E-02 0.  1.
         -1   -1    0    0    0  501 -0.00000000000E+00 -0.00000000000E+00 -0.29645867573E+02  0.29645868001E+02  0.50400000000E-02 0. -1.
    5000001    1    1    2    0    0 -0.28295010461E+03  0.62615876345E+02  0.17466131918E+04  0.17808714584E+04  0.19200000000E+03 0.  0.
   -5000001    1    1    2    0    0  0.28295010461E+03 -0.62615876345E+02  0.24011621269E+04  0.24261955958E+04  0.19200000000E+03 0.  0.
<mgrwt>
<rscale>  0 0.70382747E+03</rscale>
<asrwt>0</asrwt>
<pdfrwt beam="1">  1        1 0.59677438E+00 0.70382747E+03</pdfrwt>
<pdfrwt beam="2">  1       -1 0.42351245E-02 0.70382747E+03</pdfrwt>
<totfact> 0.32152454E+01</totfact>
</mgrwt>
</event>
<event>
 4    1  0.7145298E-006  0.4194037E+03  0.7818608E-02  0.1037261E+00
          1   -1    0    0  501    0  0.00000000000E+00  0.00000000000E+00  0.38748496739E+03  0.38748496742E+03  0.50400000000E-02 0.  1.
         -1   -1    0    0    0  501 -0.00000000000E+00 -0.00000000000E+00 -0.11348793108E+03  0.11348793120E+03  0.50400000000E-02 0. -1.
    5000001    1    1    2    0    0 -0.94270747132E+01 -0.52451687617E+02  0.21506012775E+03  0.29318067436E+03  0.19200000000E+03 0.  0.
   -5000001    1    1    2    0    0  0.94270747132E+01  0.52451687617E+02  0.58936908556E+02  0.20779222426E+03  0.19200000000E+03 0.  0.
<mgrwt>
<rscale>  0 0.41940371E+03</rscale>
<asrwt>0</asrwt>
<pdfrwt beam="1">  1        1 0.55354996E-01 0.41940371E+03</pdfrwt>
<pdfrwt beam="2">  1       -1 0.16212561E-01 0.41940371E+03</pdfrwt>
<totfact> 0.19816760E+03</totfact>
</mgrwt>
</event>
<event>
 4    1  0.7145298E-006  0.6737522E+03  0.7818608E-02  0.9763203E-01
         -1   -1    0    0    0  501 -0.00000000000E+00  0.00000000000E+00  0.11179804997E+03  0.11179805008E+03  0.50400000000E-02 0. -1.
          1   -1    0    0  501    0  0.00000000000E+00 -0.00000000000E+00 -0.10150938946E+04  0.10150938946E+04  0.50400000000E-02 0.  1.
    5000001    1    1    2    0    0  0.86214290851E+02  0.25849458248E+03 -0.37023755740E+03  0.49818892202E+03  0.19200000000E+03 0.  0.
   -5000001    1    1    2    0    0 -0.86214290851E+02 -0.25849458248E+03 -0.53305828724E+03  0.62870302267E+03  0.19200000000E+03 0.  0.
<mgrwt>
<rscale>  0 0.67375223E+03</rscale>
<asrwt>0</asrwt>
<pdfrwt beam="1">  1        1 0.14501341E+00 0.67375223E+03</pdfrwt>
<pdfrwt beam="2">  1       -1 0.15971151E-01 0.67375223E+03</pdfrwt>
<totfact> 0.50440364E+02</totfact>
</mgrwt>
</event>
<event>
 4    1  0.7145298E-006  0.7101363E+03  0.7818608E-02  0.9700053E-01
         -1   -1    0    0    0  501 -0.00000000000E+00  0.00000000000E+00  0.50787970342E+03  0.50787970344E+03  0.50400000000E-02 0. -1.
          1   -1    0    0  501    0  0.00000000000E+00 -0.00000000000E+00 -0.24823475715E+03  0.24823475720E+03  0.50400000000E-02 0.  1.
    5000001    1    1    2    0    0 -0.27080990134E+03  0.13788302594E+02  0.26315512254E+03  0.42384282284E+03  0.19200000000E+03 0.  0.
   -5000001    1    1    2    0    0  0.27080990134E+03 -0.13788302594E+02 -0.35101762711E+01  0.33227163780E+03  0.19200000000E+03 0.  0.
<mgrwt>
<rscale>  0 0.71013631E+03</rscale>
<asrwt>0</asrwt>
<pdfrwt beam="1">  1        1 0.35462108E-01 0.71013631E+03</pdfrwt>
<pdfrwt beam="2">  1       -1 0.72554243E-01 0.71013631E+03</pdfrwt>
<totfact> 0.23992682E+02</totfact>
</mgrwt>
</event>
<event>
 4    1  0.7145298E-006  0.5265088E+03  0.7818608E-02  0.1007082E+00
          1   -1    0    0  501    0  0.00000000000E+00  0.00000000000E+00  0.36552561401E+03  0.36552561405E+03  0.50400000000E-02 0.  1.
         -1   -1    0    0    0  501 -0.00000000000E+00 -0.00000000000E+00 -0.18959789119E+03  0.18959789125E+03  0.50400000000E-02 0. -1.
    5000001    1    1    2    0    0  0.80983386446E+02 -0.10263092858E+03  0.21858165638E+03  0.31895666929E+03  0.19200000000E+03 0.  0.
   -5000001    1    1    2    0    0 -0.80983386446E+02  0.10263092858E+03 -0.42653933553E+02  0.23616683601E+03  0.19200000000E+03 0.  0.
<mgrwt>
<rscale>  0 0.52650882E+03</rscale>
<asrwt>0</asrwt>
<pdfrwt beam="1">  1        1 0.52217945E-01 0.52650882E+03</pdfrwt>
<pdfrwt beam="2">  1       -1 0.27085413E-01 0.52650882E+03</pdfrwt>
<totfact> 0.91277667E+02</totfact>
</mgrwt>
</event>
<event>
 4    1  0.7145298E-006  0.5290338E+03  0.7818608E-02  0.1006467E+00
         -1   -1    0    0    0  501 -0.00000000000E+00  0.00000000000E+00  0.82623531255E+03  0.82623531257E+03  0.50400000000E-02 0. -1.
          1   -1    0    0  501    0  0.00000000000E+00 -0.00000000000E+00 -0.84684342237E+02  0.84684342387E+02  0.50400000000E-02 0.  1.
    5000001    1    1    2    0    0 -0.11590871860E+03  0.11156053204E+01  0.12929108026E+03  0.25887498732E+03  0.19200000000E+03 0.  0.
   -5000001    1    1    2    0    0  0.11590871860E+03 -0.11156053204E+01  0.61225989006E+03  0.65204466764E+03  0.19200000000E+03 0.  0.
<mgrwt>
<rscale>  0 0.52903381E+03</rscale>
<asrwt>0</asrwt>
<pdfrwt beam="1">  1        1 0.12097764E-01 0.52903381E+03</pdfrwt>
<pdfrwt beam="2">  1       -1 0.11803361E+00 0.52903381E+03</pdfrwt>
<totfact> 0.33918563E+02</totfact>
</mgrwt>
</event>
<event>
 4    1  0.7145298E-006  0.6114891E+03  0.7818608E-02  0.9881852E-01
         -1   -1    0    0    0  501 -0.00000000000E+00  0.00000000000E+00  0.11906050717E+03  0.11906050727E+03  0.50400000000E-02 0. -1.
          1   -1    0    0  501    0  0.00000000000E+00 -0.00000000000E+00 -0.78514483786E+03  0.78514483788E+03  0.50400000000E-02 0.  1.
    5000001    1    1    2    0    0 -0.82311833996E+02 -0.22264549496E+03 -0.35731654863E+03  0.46998443630E+03  0.19200000000E+03 0.  0.
   -5000001    1    1    2    0    0  0.82311833996E+02  0.22264549496E+03 -0.30876778206E+03  0.43422090885E+03  0.19200000000E+03 0.  0.
<mgrwt>
<rscale>  0 0.61148914E+03</rscale>
<asrwt>0</asrwt>
<pdfrwt beam="1">  1        1 0.11216355E+00 0.61148914E+03</pdfrwt>
<pdfrwt beam="2">  1       -1 0.17008644E-01 0.61148914E+03</pdfrwt>
<totfact> 0.69102358E+02</totfact>
</mgrwt>
</event>
<event>
 4    1  0.7145298E-006  0.8178816E+03  0.7818608E-02  0.9534489E-01
         -1   -1    0    0    0  501 -0.00000000000E+00  0.00000000000E+00  0.88259234653E+02  0.88259234797E+02  0.50400000000E-02 0. -1.
          1   -1    0    0  501    0  0.00000000000E+00 -0.00000000000E+00 -0.18947883487E+04  0.18947883487E+04  0.50400000000E-02 0.  1.
    5000001    1    1    2    0    0 -0.25141381495E+03 -0.19851000679E+03 -0.13071899186E+04  0.13594942488E+04  0.19200000000E+03 0.  0.
   -5000001    1    1    2    0    0  0.25141381495E+03  0.19851000679E+03 -0.49933919542E+03  0.62355333471E+03  0.19200000000E+03 0.  0.
<mgrwt>
<rscale>  0 0.81788158E+03</rscale>
<asrwt>0</asrwt>
<pdfrwt beam="1">  1        1 0.27068402E+00 0.81788158E+03</pdfrwt>
<pdfrwt beam="2">  1       -1 0.12608463E-01 0.81788158E+03</pdfrwt>
<totfact> 0.19271474E+02</totfact>
</mgrwt>
</event>
<event>
 4    1  0.7145298E-006  0.6912963E+03  0.7818608E-02  0.9732234E-01
         -1   -1    0    0    0  501 -0.00000000000E+00  0.00000000000E+00  0.20530516612E+03  0.20530516618E+03  0.50400000000E-02 0. -1.
          1   -1    0    0  501    0  0.00000000000E+00 -0.00000000000E+00 -0.58192712197E+03  0.58192712200E+03  0.50400000000E-02 0.  1.
    5000001    1    1    2    0    0  0.59565820728E+02 -0.26510763334E+03 -0.81614808800E+02  0.34257133749E+03  0.19200000000E+03 0.  0.
   -5000001    1    1    2    0    0 -0.59565820728E+02  0.26510763334E+03 -0.29500714706E+03  0.44466095069E+03  0.19200000000E+03 0.  0.
<mgrwt>
<rscale>  0 0.69129630E+03</rscale>
<asrwt>0</asrwt>
<pdfrwt beam="1">  1        1 0.83132445E-01 0.69129630E+03</pdfrwt>
<pdfrwt beam="2">  1       -1 0.29329310E-01 0.69129630E+03</pdfrwt>
<totfact> 0.42621890E+02</totfact>
</mgrwt>
</event>
<event>
 4    1  0.7145298E-006  0.5739459E+03  0.7818608E-02  0.9960985E-01
          1   -1    0    0  501    0  0.00000000000E+00  0.00000000000E+00  0.93238789843E+03  0.93238789844E+03  0.50400000000E-02 0. -1.
         -1   -1    0    0    0  501 -0.00000000000E+00 -0.00000000000E+00 -0.88325327408E+02  0.88325327552E+02  0.50400000000E-02 0.  1.
    5000001    1    1    2    0    0 -0.16624491407E+03 -0.13138742304E+03  0.46520830305E+03  0.54606116106E+03  0.19200000000E+03 0.  0.
   -5000001    1    1    2    0    0  0.16624491407E+03  0.13138742304E+03  0.37885426797E+03  0.47465206493E+03  0.19200000000E+03 0.  0.
<mgrwt>
<rscale>  0 0.57394587E+03</rscale>
<asrwt>0</asrwt>
<pdfrwt beam="1">  1        1 0.13319827E+00 0.57394587E+03</pdfrwt>
<pdfrwt beam="2">  1       -1 0.12617904E-01 0.57394587E+03</pdfrwt>
<totfact> 0.85435066E+02</totfact>
</mgrwt>
</event>
<event>
 4    1  0.7145298E-006  0.4401858E+03  0.7818608E-02  0.1030690E+00
          1   -1    0    0  501    0  0.00000000000E+00  0.00000000000E+00  0.23614281541E+04  0.23614281541E+04  0.50400000000E-02 0.  1.
         -1   -1    0    0    0  501 -0.00000000000E+00 -0.00000000000E+00 -0.20513387915E+02  0.20513388534E+02  0.50400000000E-02 0. -1.
    5000001    1    1    2    0    0  0.40487317823E+02 -0.97401360786E+02  0.10555859393E+04  0.10780778836E+04  0.19200000000E+03 0.  0.
   -5000001    1    1    2    0    0 -0.40487317823E+02  0.97401360786E+02  0.12853288270E+04  0.13038636591E+04  0.19200000000E+03 0.  0.
<mgrwt>
<rscale>  0 0.44018584E+03</rscale>
<asrwt>0</asrwt>
<pdfrwt beam="1">  1        1 0.33734686E+00 0.44018584E+03</pdfrwt>
<pdfrwt beam="2">  1       -1 0.29304842E-02 0.44018584E+03</pdfrwt>
<totfact> 0.97234736E+02</totfact>
</mgrwt>
</event>
<event>
 4    1  0.7145298E-006  0.8430552E+03  0.7818608E-02  0.9499706E-01
          1   -1    0    0  501    0  0.00000000000E+00  0.00000000000E+00  0.12566672892E+04  0.12566672892E+04  0.50400000000E-02 0. -1.
         -1   -1    0    0    0  501 -0.00000000000E+00 -0.00000000000E+00 -0.14139423405E+03  0.14139423414E+03  0.50400000000E-02 0.  1.
    5000001    1    1    2    0    0  0.31304504354E+03  0.12137266317E+03  0.83558816429E+03  0.92076061109E+03  0.19200000000E+03 0.  0.
   -5000001    1    1    2    0    0 -0.31304504354E+03 -0.12137266317E+03  0.27968489082E+03  0.47730091221E+03  0.19200000000E+03 0.  0.
<mgrwt>
<rscale>  0 0.84305518E+03</rscale>
<asrwt>0</asrwt>
<pdfrwt beam="1">  1        1 0.17952389E+00 0.84305518E+03</pdfrwt>
<pdfrwt beam="2">  1       -1 0.20199177E-01 0.84305518E+03</pdfrwt>
<totfact> 0.22915713E+02</totfact>
</mgrwt>
</event>
<event>
 4    1  0.7145298E-006  0.3978557E+03  0.7818608E-02  0.1044525E+00
         -1   -1    0    0    0  501 -0.00000000000E+00  0.00000000000E+00  0.28082433826E+03  0.28082433830E+03  0.50400000000E-02 0. -1.
          1   -1    0    0  501    0  0.00000000000E+00 -0.00000000000E+00 -0.14091474506E+03  0.14091474515E+03  0.50400000000E-02 0.  1.
    5000001    1    1    2    0    0  0.59526907832E+01  0.32865870730E+02  0.27650556433E+02  0.19683534555E+03  0.19200000000E+03 0.  0.
   -5000001    1    1    2    0    0 -0.59526907832E+01 -0.32865870730E+02  0.11225903677E+03  0.22490373790E+03  0.19200000000E+03 0.  0.
<mgrwt>
<rscale>  0 0.39785570E+03</rscale>
<asrwt>0</asrwt>
<pdfrwt beam="1">  1        1 0.20130678E-01 0.39785570E+03</pdfrwt>
<pdfrwt beam="2">  1       -1 0.40117762E-01 0.39785570E+03</pdfrwt>
<totfact> 0.15637961E+03</totfact>
</mgrwt>
</event>
<event>
 4    1  0.7145298E-006  0.6571174E+03  0.7818608E-02  0.9793515E-01
         -1   -1    0    0    0  501 -0.00000000000E+00  0.00000000000E+00  0.16988927843E+03  0.16988927851E+03  0.50400000000E-02 0. -1.
          1   -1    0    0  501    0  0.00000000000E+00 -0.00000000000E+00 -0.63541869460E+03  0.63541869462E+03  0.50400000000E-02 0.  1.
    5000001    1    1    2    0    0 -0.25460600849E+03 -0.45039626676E+02 -0.15302102356E+03  0.35655605616E+03  0.19200000000E+03 0.  0.
   -5000001    1    1    2    0    0  0.25460600849E+03  0.45039626676E+02 -0.31250839261E+03  0.44875191697E+03  0.19200000000E+03 0.  0.
<mgrwt>
<rscale>  0 0.65711741E+03</rscale>
<asrwt>0</asrwt>
<pdfrwt beam="1">  1        1 0.90774098E-01 0.65711741E+03</pdfrwt>
<pdfrwt beam="2">  1       -1 0.24269897E-01 0.65711741E+03</pdfrwt>
<totfact> 0.52149834E+02</totfact>
</mgrwt>
</event>
<event>
 4    1  0.7145298E-006  0.7886334E+03  0.7818608E-02  0.9576617E-01
          1   -1    0    0  501    0  0.00000000000E+00  0.00000000000E+00  0.14484028551E+04  0.14484028552E+04  0.50400000000E-02 0.  1.
         -1   -1    0    0    0  501 -0.00000000000E+00 -0.00000000000E+00 -0.10734972950E+03  0.10734972962E+03  0.50400000000E-02 0. -1.
    5000001    1    1    2    0    0 -0.19693952200E+03  0.28251414964E+03  0.66122445681E+03  0.76985791050E+03  0.19200000000E+03 0.  0.
   -5000001    1    1    2    0    0  0.19693952200E+03 -0.28251414964E+03  0.67982866884E+03  0.78589467427E+03  0.19200000000E+03 0.  0.
<mgrwt>
<rscale>  0 0.78863339E+03</rscale>
<asrwt>0</asrwt>
<pdfrwt beam="1">  1        1 0.20691470E+00 0.78863339E+03</pdfrwt>
<pdfrwt beam="2">  1       -1 0.15335675E-01 0.78863339E+03</pdfrwt>
<totfact> 0.27005208E+02</totfact>
</mgrwt>
</event>
<event>
 4    1  0.7145298E-006  0.5835698E+03  0.7818608E-02  0.9940092E-01
         -1   -1    0    0    0  501 -0.00000000000E+00  0.00000000000E+00  0.16578476480E+03  0.16578476488E+03  0.50400000000E-02 0. -1.
          1   -1    0    0  501    0  0.00000000000E+00 -0.00000000000E+00 -0.51354791657E+03  0.51354791660E+03  0.50400000000E-02 0.  1.
    5000001    1    1    2    0    0  0.21181989499E+03  0.58227396271E+02 -0.16917841513E+03  0.33725870446E+03  0.19200000000E+03 0.  0.
   -5000001    1    1    2    0    0 -0.21181989499E+03 -0.58227396271E+02 -0.17858473664E+03  0.34207397702E+03  0.19200000000E+03 0.  0.
<mgrwt>
<rscale>  0 0.58356978E+03</rscale>
<asrwt>0</asrwt>
<pdfrwt beam="1">  1        1 0.73363987E-01 0.58356978E+03</pdfrwt>
<pdfrwt beam="2">  1       -1 0.23683538E-01 0.58356978E+03</pdfrwt>
<totfact> 0.73160725E+02</totfact>
</mgrwt>
</event>
<event>
 4    1  0.7145298E-006  0.4175521E+03  0.7818608E-02  0.1037866E+00
         -1   -1    0    0    0  501 -0.00000000000E+00  0.00000000000E+00  0.59309242360E+02  0.59309242574E+02  0.50400000000E-02 0.  1.
          1   -1    0    0  501    0  0.00000000000E+00 -0.00000000000E+00 -0.73491817171E+03  0.73491817173E+03  0.50400000000E-02 0. -1.
    5000001    1    1    2    0    0 -0.44580568721E+02  0.59599895472E+02 -0.40325080421E+03  0.45278558473E+03  0.19200000000E+03 0.  0.
   -5000001    1    1    2    0    0  0.44580568721E+02 -0.59599895472E+02 -0.27235812514E+03  0.34144182957E+03  0.19200000000E+03 0.  0.
<mgrwt>
<rscale>  0 0.41755210E+03</rscale>
<asrwt>0</asrwt>
<pdfrwt beam="1">  1        1 0.10498830E+00 0.41755210E+03</pdfrwt>
<pdfrwt beam="2">  1       -1 0.84727494E-02 0.41755210E+03</pdfrwt>
<totfact> 0.23157500E+03</totfact>
</mgrwt>
</event>
<event>
 4    1  0.7145298E-006  0.4979126E+03  0.7818608E-02  0.1014325E+00
          1   -1    0    0  501    0  0.00000000000E+00  0.00000000000E+00  0.96808755128E+03  0.96808755130E+03  0.50400000000E-02 0.  1.
         -1   -1    0    0    0  501 -0.00000000000E+00 -0.00000000000E+00 -0.64022344421E+02  0.64022344619E+02  0.50400000000E-02 0. -1.
    5000001    1    1    2    0    0  0.26309188458E+02  0.15398211316E+03  0.50736591494E+03  0.56452354797E+03  0.19200000000E+03 0.  0.
   -5000001    1    1    2    0    0 -0.26309188458E+02 -0.15398211316E+03  0.39669929192E+03  0.46758634794E+03  0.19200000000E+03 0.  0.
<mgrwt>
<rscale>  0 0.49791258E+03</rscale>
<asrwt>0</asrwt>
<pdfrwt beam="1">  1        1 0.13829820E+00 0.49791258E+03</pdfrwt>
<pdfrwt beam="2">  1       -1 0.91460505E-02 0.49791258E+03</pdfrwt>
<totfact> 0.13375172E+03</totfact>
</mgrwt>
</event>
<event>
 4    1  0.7145298E-006  0.5067162E+03  0.7818608E-02  0.1012041E+00
          1   -1    0    0  501    0  0.00000000000E+00  0.00000000000E+00  0.44372379063E+03  0.44372379065E+03  0.50400000000E-02 0.  1.
         -1   -1    0    0    0  501 -0.00000000000E+00 -0.00000000000E+00 -0.14466280784E+03  0.14466280793E+03  0.50400000000E-02 0. -1.
    5000001    1    1    2    0    0  0.41423432625E+02 -0.15695271369E+03  0.18581188180E+03  0.31263414804E+03  0.19200000000E+03 0.  0.
   -5000001    1    1    2    0    0 -0.41423432625E+02  0.15695271369E+03  0.11324910099E+03  0.27575245054E+03  0.19200000000E+03 0.  0.
<mgrwt>
<rscale>  0 0.50671621E+03</rscale>
<asrwt>0</asrwt>
<pdfrwt beam="1">  1        1 0.63389115E-01 0.50671621E+03</pdfrwt>
<pdfrwt beam="2">  1       -1 0.20666115E-01 0.50671621E+03</pdfrwt>
<totfact> 0.11175607E+03</totfact>
</mgrwt>
</event>
<event>
 4    1  0.7145298E-006  0.4475261E+03  0.7818608E-02  0.1028462E+00
          1   -1    0    0  501    0  0.00000000000E+00  0.00000000000E+00  0.33398396630E+04  0.33398396630E+04  0.50400000000E-02 0.  1.
         -1   -1    0    0    0  501 -0.00000000000E+00 -0.00000000000E+00 -0.14991709712E+02  0.14991710559E+02  0.50400000000E-02 0. -1.
    5000001    1    1    2    0    0 -0.39360828318E+02  0.10792982184E+03  0.16833426617E+04  0.16981474135E+04  0.19200000000E+03 0.  0.
   -5000001    1    1    2    0    0  0.39360828318E+02 -0.10792982184E+03  0.16415052916E+04  0.16566839601E+04  0.19200000000E+03 0.  0.
<mgrwt>
<rscale>  0 0.44752613E+03</rscale>
<asrwt>0</asrwt>
<pdfrwt beam="1">  1        1 0.47711999E+00 0.44752613E+03</pdfrwt>
<pdfrwt beam="2">  1       -1 0.21416727E-02 0.44752613E+03</pdfrwt>
<totfact> 0.36999463E+02</totfact>
</mgrwt>
</event>
<event>
 4    1  0.7145298E-006  0.8720656E+03  0.7818608E-02  0.9461191E-01
          1   -1    0    0  501    0  0.00000000000E+00  0.00000000000E+00  0.29077126731E+03  0.29077126736E+03  0.50400000000E-02 0.  1.
         -1   -1    0    0    0  501 -0.00000000000E+00 -0.00000000000E+00 -0.65386311582E+03  0.65386311584E+03  0.50400000000E-02 0. -1.
    5000001    1    1    2    0    0  0.33310509334E+03 -0.14634313869E+03 -0.33808935156E+03  0.53248824127E+03  0.19200000000E+03 0.  0.
   -5000001    1    1    2    0    0 -0.33310509334E+03  0.14634313869E+03 -0.25002496942E+02  0.41214614192E+03  0.19200000000E+03 0.  0.
<mgrwt>
<rscale>  0 0.87206561E+03</rscale>
<asrwt>0</asrwt>
<pdfrwt beam="1">  1        1 0.41538753E-01 0.87206561E+03</pdfrwt>
<pdfrwt beam="2">  1       -1 0.93409016E-01 0.87206561E+03</pdfrwt>
<totfact> 0.11289013E+02</totfact>
</mgrwt>
</event>
<event>
 4    1  0.7145298E-006  0.8615849E+03  0.7818608E-02  0.9474919E-01
          1   -1    0    0  501    0  0.00000000000E+00  0.00000000000E+00  0.14357648723E+04  0.14357648723E+04  0.50400000000E-02 0. -1.
         -1   -1    0    0    0  501 -0.00000000000E+00 -0.00000000000E+00 -0.12925664875E+03  0.12925664885E+03  0.50400000000E-02 0.  1.
    5000001    1    1    2    0    0  0.34282104265E+03  0.17488580427E+03  0.60850743750E+03  0.74515542896E+03  0.19200000000E+03 0.  0.
   -5000001    1    1    2    0    0 -0.34282104265E+03 -0.17488580427E+03  0.69800078604E+03  0.81986609219E+03  0.19200000000E+03 0.  0.
<mgrwt>
<rscale>  0 0.86158495E+03</rscale>
<asrwt>0</asrwt>
<pdfrwt beam="1">  1        1 0.20510928E+00 0.86158495E+03</pdfrwt>
<pdfrwt beam="2">  1       -1 0.18465234E-01 0.86158495E+03</pdfrwt>
<totfact> 0.20189944E+02</totfact>
</mgrwt>
</event>
<event>
 4    1  0.7145298E-006  0.7259282E+03  0.7818608E-02  0.9673891E-01
         -1   -1    0    0    0  501 -0.00000000000E+00  0.00000000000E+00  0.75092221330E+03  0.75092221332E+03  0.50400000000E-02 0. -1.
          1   -1    0    0  501    0  0.00000000000E+00 -0.00000000000E+00 -0.17544153772E+03  0.17544153780E+03  0.50400000000E-02 0.  1.
    5000001    1    1    2    0    0  0.26994156242E+03  0.12032394630E+03  0.39849492549E+03  0.53198543666E+03  0.19200000000E+03 0.  0.
   -5000001    1    1    2    0    0 -0.26994156242E+03 -0.12032394630E+03  0.17698575008E+03  0.39437831445E+03  0.19200000000E+03 0.  0.
<mgrwt>
<rscale>  0 0.72592823E+03</rscale>
<asrwt>0</asrwt>
<pdfrwt beam="1">  1        1 0.25063077E-01 0.72592823E+03</pdfrwt>
<pdfrwt beam="2">  1       -1 0.10727460E+00 0.72592823E+03</pdfrwt>
<totfact> 0.15987136E+02</totfact>
</mgrwt>
</event>
<event>
 4    1  0.7145298E-006  0.4534880E+03  0.7818608E-02  0.1026687E+00
         -1   -1    0    0    0  501 -0.00000000000E+00  0.00000000000E+00  0.47916621019E+03  0.47916621022E+03  0.50400000000E-02 0. -1.
          1   -1    0    0  501    0  0.00000000000E+00 -0.00000000000E+00 -0.10729648903E+03  0.10729648915E+03  0.50400000000E-02 0.  1.
    5000001    1    1    2    0    0  0.93794605383E+02 -0.14535239813E+02  0.89677190207E+02  0.23219539108E+03  0.19200000000E+03 0.  0.
   -5000001    1    1    2    0    0 -0.93794605383E+02  0.14535239813E+02  0.28219253095E+03  0.35426730829E+03  0.19200000000E+03 0.  0.
<mgrwt>
<rscale>  0 0.45348805E+03</rscale>
<asrwt>0</asrwt>
<pdfrwt beam="1">  1        1 0.15328070E-01 0.45348805E+03</pdfrwt>
<pdfrwt beam="2">  1       -1 0.68452316E-01 0.45348805E+03</pdfrwt>
<totfact> 0.81456254E+02</totfact>
</mgrwt>
</event>
<event>
 4    1  0.7145298E-006  0.4381615E+03  0.7818608E-02  0.1031312E+00
         -1   -1    0    0    0  501 -0.00000000000E+00  0.00000000000E+00  0.10938181957E+03  0.10938181969E+03  0.50400000000E-02 0. -1.
          1   -1    0    0  501    0  0.00000000000E+00 -0.00000000000E+00 -0.43879661229E+03  0.43879661232E+03  0.50400000000E-02 0.  1.
    5000001    1    1    2    0    0  0.70948551945E+02 -0.75926280914E+02 -0.18756757061E+03  0.28782649409E+03  0.19200000000E+03 0.  0.
   -5000001    1    1    2    0    0 -0.70948551945E+02  0.75926280914E+02 -0.14184722211E+03  0.26035193792E+03  0.19200000000E+03 0.  0.
<mgrwt>
<rscale>  0 0.43816149E+03</rscale>
<asrwt>0</asrwt>
<pdfrwt beam="1">  1        1 0.62685230E-01 0.43816149E+03</pdfrwt>
<pdfrwt beam="2">  1       -1 0.15625974E-01 0.43816149E+03</pdfrwt>
<totfact> 0.17901845E+03</totfact>
</mgrwt>
</event>
<event>
 4    1  0.7145298E-006  0.6682342E+03  0.7818608E-02  0.9773153E-01
          1   -1    0    0  501    0  0.00000000000E+00  0.00000000000E+00  0.24224462269E+04  0.24224462269E+04  0.50400000000E-02 0.  1.
         -1   -1    0    0    0  501 -0.00000000000E+00 -0.00000000000E+00 -0.46083264528E+02  0.46083264804E+02  0.50400000000E-02 0. -1.
    5000001    1    1    2    0    0  0.22252243481E+03 -0.64900883730E+02  0.17240420726E+04  0.17501181180E+04  0.19200000000E+03 0.  0.
   -5000001    1    1    2    0    0 -0.22252243481E+03  0.64900883730E+02  0.65232088978E+03  0.71841137376E+03  0.19200000000E+03 0.  0.
<mgrwt>
<rscale>  0 0.66823418E+03</rscale>
<asrwt>0</asrwt>
<pdfrwt beam="1">  1        1 0.34606390E+00 0.66823418E+03</pdfrwt>
<pdfrwt beam="2">  1       -1 0.65833206E-02 0.66823418E+03</pdfrwt>
<totfact> 0.25544948E+02</totfact>
</mgrwt>
</event>
<event>
 4    1  0.7145298E-006  0.5757750E+03  0.7818608E-02  0.9956980E-01
         -1   -1    0    0    0  501 -0.00000000000E+00  0.00000000000E+00  0.87377332115E+02  0.87377332261E+02  0.50400000000E-02 0. -1.
          1   -1    0    0  501    0  0.00000000000E+00 -0.00000000000E+00 -0.94852077900E+03  0.94852077901E+03  0.50400000000E-02 0.  1.
    5000001    1    1    2    0    0 -0.12860776018E+03 -0.15863977800E+03 -0.31247540633E+03  0.41977543366E+03  0.19200000000E+03 0.  0.
   -5000001    1    1    2    0    0  0.12860776018E+03  0.15863977800E+03 -0.54866804055E+03  0.61612267761E+03  0.19200000000E+03 0.  0.
<mgrwt>
<rscale>  0 0.57577501E+03</rscale>
<asrwt>0</asrwt>
<pdfrwt beam="1">  1        1 0.13550296E+00 0.57577501E+03</pdfrwt>
<pdfrwt beam="2">  1       -1 0.12482477E-01 0.57577501E+03</pdfrwt>
<totfact> 0.84493646E+02</totfact>
</mgrwt>
</event>
<event>
 4    1  0.7145298E-006  0.9520522E+03  0.7818608E-02  0.9362755E-01
          1   -1    0    0  501    0  0.00000000000E+00  0.00000000000E+00  0.39399211167E+03  0.39399211171E+03  0.50400000000E-02 0.  1.
         -1   -1    0    0    0  501 -0.00000000000E+00 -0.00000000000E+00 -0.57514060983E+03  0.57514060985E+03  0.50400000000E-02 0. -1.
    5000001    1    1    2    0    0 -0.18859644814E+03  0.29661136761E+03 -0.35246398295E+03  0.53351830608E+03  0.19200000000E+03 0.  0.
   -5000001    1    1    2    0    0  0.18859644814E+03 -0.29661136761E+03  0.17131548479E+03  0.43561441548E+03  0.19200000000E+03 0.  0.
<mgrwt>
<rscale>  0 0.95205223E+03</rscale>
<asrwt>0</asrwt>
<pdfrwt beam="1">  1        1 0.56284588E-01 0.95205223E+03</pdfrwt>
<pdfrwt beam="2">  1       -1 0.82162944E-01 0.95205223E+03</pdfrwt>
<totfact> 0.10009139E+02</totfact>
</mgrwt>
</event>
<event>
 4    1  0.7145298E-006  0.1096991E+04  0.7818608E-02  0.9208130E-01
         -1   -1    0    0    0  501 -0.00000000000E+00  0.00000000000E+00  0.12624002187E+03  0.12624002197E+03  0.50400000000E-02 0. -1.
          1   -1    0    0  501    0  0.00000000000E+00 -0.00000000000E+00 -0.23831364747E+04  0.23831364747E+04  0.50400000000E-02 0.  1.
    5000001    1    1    2    0    0  0.49272356562E+03  0.12864560942E+03 -0.97234360181E+03  0.11142900363E+04  0.19200000000E+03 0.  0.
   -5000001    1    1    2    0    0 -0.49272356562E+03 -0.12864560942E+03 -0.12845528510E+04  0.13950864604E+04  0.19200000000E+03 0.  0.
<mgrwt>
<rscale>  0 0.10969908E+04</rscale>
<asrwt>0</asrwt>
<pdfrwt beam="1">  1        1 0.34044804E+00 0.10969908E+04</pdfrwt>
<pdfrwt beam="2">  1       -1 0.18034290E-01 0.10969908E+04</pdfrwt>
<totfact> 0.52005027E+01</totfact>
</mgrwt>
</event>
<event>
 4    1  0.7145298E-006  0.4084139E+03  0.7818608E-02  0.1040905E+00
         -1   -1    0    0    0  501 -0.00000000000E+00  0.00000000000E+00  0.20502013344E+03  0.20502013350E+03  0.50400000000E-02 0. -1.
          1   -1    0    0  501    0  0.00000000000E+00 -0.00000000000E+00 -0.20339702141E+03  0.20339702147E+03  0.50400000000E-02 0.  1.
    5000001    1    1    2    0    0 -0.15418033832E+02  0.67695931999E+02  0.48152758362E+01  0.20422448888E+03  0.19200000000E+03 0.  0.
   -5000001    1    1    2    0    0  0.15418033832E+02 -0.67695931999E+02 -0.31921638047E+01  0.20419266609E+03  0.19200000000E+03 0.  0.
<mgrwt>
<rscale>  0 0.40841393E+03</rscale>
<asrwt>0</asrwt>
<pdfrwt beam="1">  1        1 0.29056717E-01 0.40841393E+03</pdfrwt>
<pdfrwt beam="2">  1       -1 0.29288590E-01 0.40841393E+03</pdfrwt>
<totfact> 0.16899147E+03</totfact>
</mgrwt>
</event>
<event>
 4    1  0.7145298E-006  0.1813108E+04  0.7818608E-02  0.8699359E-01
         -1   -1    0    0    0  501 -0.00000000000E+00  0.00000000000E+00  0.57964417267E+03  0.57964417270E+03  0.50400000000E-02 0. -1.
          1   -1    0    0  501    0  0.00000000000E+00 -0.00000000000E+00 -0.14178363762E+04  0.14178363762E+04  0.50400000000E-02 0.  1.
    5000001    1    1    2    0    0 -0.87467592020E+03  0.77542177378E+02 -0.28918168088E+03  0.94422497277E+03  0.19200000000E+03 0.  0.
   -5000001    1    1    2    0    0  0.87467592020E+03 -0.77542177378E+02 -0.54901052262E+03  0.10532555761E+04  0.19200000000E+03 0.  0.
<mgrwt>
<rscale>  0 0.18131085E+04</rscale>
<asrwt>0</asrwt>
<pdfrwt beam="1">  1        1 0.20254805E+00 0.18131085E+04</pdfrwt>
<pdfrwt beam="2">  1       -1 0.82806311E-01 0.18131085E+04</pdfrwt>
<totfact> 0.12063102E+01</totfact>
</mgrwt>
</event>
<event>
 4    1  0.7145298E-006  0.6051626E+03  0.7818608E-02  0.9894753E-01
          1   -1    0    0  501    0  0.00000000000E+00  0.00000000000E+00  0.21179066626E+04  0.21179066627E+04  0.50400000000E-02 0.  1.
         -1   -1    0    0    0  501 -0.00000000000E+00 -0.00000000000E+00 -0.43229214519E+02  0.43229214813E+02  0.50400000000E-02 0. -1.
    5000001    1    1    2    0    0 -0.16097547621E+03 -0.71203678713E+02  0.48746764166E+03  0.55269500583E+03  0.19200000000E+03 0.  0.
   -5000001    1    1    2    0    0  0.16097547621E+03  0.71203678713E+02  0.15872098065E+04  0.16084408716E+04  0.19200000000E+03 0.  0.
<mgrwt>
<rscale>  0 0.60516260E+03</rscale>
<asrwt>0</asrwt>
<pdfrwt beam="1">  1        1 0.30255816E+00 0.60516260E+03</pdfrwt>
<pdfrwt beam="2">  1       -1 0.61756009E-02 0.60516260E+03</pdfrwt>
<totfact> 0.43764342E+02</totfact>
</mgrwt>
</event>
<event>
 4    1  0.7145298E-006  0.6681300E+03  0.7818608E-02  0.9773342E-01
         -1   -1    0    0    0  501 -0.00000000000E+00  0.00000000000E+00  0.72891789819E+02  0.72891789993E+02  0.50400000000E-02 0.  1.
          1   -1    0    0  501    0  0.00000000000E+00 -0.00000000000E+00 -0.15310288531E+04  0.15310288531E+04  0.50400000000E-02 0. -1.
    5000001    1    1    2    0    0 -0.24633075566E+03 -0.12009675588E+02 -0.10122222636E+04  0.10593776402E+04  0.19200000000E+03 0.  0.
   -5000001    1    1    2    0    0  0.24633075566E+03  0.12009675588E+02 -0.44591479960E+03  0.54454300289E+03  0.19200000000E+03 0.  0.
<mgrwt>
<rscale>  0 0.66813003E+03</rscale>
<asrwt>0</asrwt>
<pdfrwt beam="1">  1        1 0.21871839E+00 0.66813003E+03</pdfrwt>
<pdfrwt beam="2">  1       -1 0.10413114E-01 0.66813003E+03</pdfrwt>
<totfact> 0.44805273E+02</totfact>
</mgrwt>
</event>
<event>
 4    1  0.7145298E-006  0.6297545E+03  0.7818608E-02  0.9845528E-01
          1   -1    0    0  501    0  0.00000000000E+00  0.00000000000E+00  0.16112253431E+04  0.16112253431E+04  0.50400000000E-02 0. -1.
         -1   -1    0    0    0  501 -0.00000000000E+00 -0.00000000000E+00 -0.61535571176E+02  0.61535571382E+02  0.50400000000E-02 0.  1.
    5000001    1    1    2    0    0  0.15665370052E+03 -0.18465656731E+03  0.93521587660E+03  0.98495236717E+03  0.19200000000E+03 0.  0.
   -5000001    1    1    2    0    0 -0.15665370052E+03  0.18465656731E+03  0.61447389530E+03  0.68780854730E+03  0.19200000000E+03 0.  0.
<mgrwt>
<rscale>  0 0.62975447E+03</rscale>
<asrwt>0</asrwt>
<pdfrwt beam="1">  1        1 0.23017507E+00 0.62975447E+03</pdfrwt>
<pdfrwt beam="2">  1       -1 0.87907951E-02 0.62975447E+03</pdfrwt>
<totfact> 0.52143618E+02</totfact>
</mgrwt>
</event>
<event>
 4    1  0.7145298E-006  0.6207232E+03  0.7818608E-02  0.9863321E-01
          1   -1    0    0  501    0  0.00000000000E+00  0.00000000000E+00  0.84693960053E+03  0.84693960055E+03  0.50400000000E-02 0. -1.
         -1   -1    0    0    0  501 -0.00000000000E+00 -0.00000000000E+00 -0.11373221103E+03  0.11373221114E+03  0.50400000000E-02 0.  1.
    5000001    1    1    2    0    0  0.63012226961E+02 -0.14981511507E+03  0.85263807251E+02  0.26561066672E+03  0.19200000000E+03 0.  0.
   -5000001    1    1    2    0    0 -0.63012226961E+02  0.14981511507E+03  0.64794358225E+03  0.69506114496E+03  0.19200000000E+03 0.  0.
<mgrwt>
<rscale>  0 0.62072317E+03</rscale>
<asrwt>0</asrwt>
<pdfrwt beam="1">  1        1 0.12099138E+00 0.62072317E+03</pdfrwt>
<pdfrwt beam="2">  1       -1 0.16247458E-01 0.62072317E+03</pdfrwt>
<totfact> 0.66201736E+02</totfact>
</mgrwt>
</event>
<event>
 4    1  0.7145298E-006  0.4690160E+03  0.7818608E-02  0.1022198E+00
         -1   -1    0    0    0  501 -0.00000000000E+00  0.00000000000E+00  0.15367938839E+03  0.15367938848E+03  0.50400000000E-02 0. -1.
          1   -1    0    0  501    0  0.00000000000E+00 -0.00000000000E+00 -0.35784887997E+03  0.35784888001E+03  0.50400000000E-02 0.  1.
    5000001    1    1    2    0    0 -0.11203401666E+03 -0.61717974614E+02 -0.14796003155E+03  0.27407462527E+03  0.19200000000E+03 0.  0.
   -5000001    1    1    2    0    0  0.11203401666E+03  0.61717974614E+02 -0.56209460029E+02  0.23745364322E+03  0.19200000000E+03 0.  0.
<mgrwt>
<rscale>  0 0.46901598E+03</rscale>
<asrwt>0</asrwt>
<pdfrwt beam="1">  1        1 0.51121268E-01 0.46901598E+03</pdfrwt>
<pdfrwt beam="2">  1       -1 0.21954198E-01 0.46901598E+03</pdfrwt>
<totfact> 0.13368200E+03</totfact>
</mgrwt>
</event>
<event>
 4    1  0.7145298E-006  0.5764868E+03  0.7818608E-02  0.9955426E-01
          1   -1    0    0  501    0  0.00000000000E+00  0.00000000000E+00  0.14656969561E+04  0.14656969561E+04  0.50400000000E-02 0.  1.
         -1   -1    0    0    0  501 -0.00000000000E+00 -0.00000000000E+00 -0.56685839638E+02  0.56685839862E+02  0.50400000000E-02 0. -1.
    5000001    1    1    2    0    0 -0.66706811204E+02  0.20417249152E+03  0.68029395303E+03  0.73878282837E+03  0.19200000000E+03 0.  0.
   -5000001    1    1    2    0    0  0.66706811204E+02 -0.20417249152E+03  0.72871716342E+03  0.78359996760E+03  0.19200000000E+03 0.  0.
<mgrwt>
<rscale>  0 0.57648682E+03</rscale>
<asrwt>0</asrwt>
<pdfrwt beam="1">  1        1 0.20938527E+00 0.57648682E+03</pdfrwt>
<pdfrwt beam="2">  1       -1 0.80979775E-02 0.57648682E+03</pdfrwt>
<totfact> 0.73629891E+02</totfact>
</mgrwt>
</event>
<event>
 4    1  0.7145298E-006  0.6348425E+03  0.7818608E-02  0.9835644E-01
         -1   -1    0    0    0  501 -0.00000000000E+00  0.00000000000E+00  0.60195049925E+02  0.60195050136E+02  0.50400000000E-02 0. -1.
          1   -1    0    0  501    0  0.00000000000E+00 -0.00000000000E+00 -0.16738292656E+04  0.16738292656E+04  0.50400000000E-02 0.  1.
    5000001    1    1    2    0    0  0.52392375599E+02 -0.21383838634E+03 -0.11460026399E+04  0.11826486660E+04  0.19200000000E+03 0.  0.
   -5000001    1    1    2    0    0 -0.52392375599E+02  0.21383838634E+03 -0.46763157584E+03  0.55137564982E+03  0.19200000000E+03 0.  0.
<mgrwt>
<rscale>  0 0.63484246E+03</rscale>
<asrwt>0</asrwt>
<pdfrwt beam="1">  1        1 0.23911844E+00 0.63484246E+03</pdfrwt>
<pdfrwt beam="2">  1       -1 0.85992939E-02 0.63484246E+03</pdfrwt>
<totfact> 0.49267252E+02</totfact>
</mgrwt>
</event>
<event>
 4    1  0.7145298E-006  0.6574239E+03  0.7818608E-02  0.9792948E-01
          1   -1    0    0  501    0  0.00000000000E+00  0.00000000000E+00  0.12226068636E+04  0.12226068636E+04  0.50400000000E-02 0.  1.
         -1   -1    0    0    0  501 -0.00000000000E+00 -0.00000000000E+00 -0.88378004950E+02  0.88378005094E+02  0.50400000000E-02 0. -1.
    5000001    1    1    2    0    0  0.22808033132E+03 -0.13700925980E+03  0.60676595714E+03  0.68979787007E+03  0.19200000000E+03 0.  0.
   -5000001    1    1    2    0    0 -0.22808033132E+03  0.13700925980E+03  0.52746290152E+03  0.62118699864E+03  0.19200000000E+03 0.  0.
<mgrwt>
<rscale>  0 0.65742393E+03</rscale>
<asrwt>0</asrwt>
<pdfrwt beam="1">  1        1 0.17465811E+00 0.65742393E+03</pdfrwt>
<pdfrwt beam="2">  1       -1 0.12625430E-01 0.65742393E+03</pdfrwt>
<totfact> 0.52649826E+02</totfact>
</mgrwt>
</event>
<event>
 4    1  0.7145298E-006  0.7832865E+03  0.7818608E-02  0.9584529E-01
          1   -1    0    0  501    0  0.00000000000E+00  0.00000000000E+00  0.69165732875E+03  0.69165732877E+03  0.50400000000E-02 0.  1.
         -1   -1    0    0    0  501 -0.00000000000E+00 -0.00000000000E+00 -0.22176364021E+03  0.22176364027E+03  0.50400000000E-02 0. -1.
    5000001    1    1    2    0    0  0.22517246346E+03 -0.18743030912E+03  0.43922992745E+03  0.56180039894E+03  0.19200000000E+03 0.  0.
   -5000001    1    1    2    0    0 -0.22517246346E+03  0.18743030912E+03  0.30663761089E+02  0.35162057011E+03  0.19200000000E+03 0.  0.
<mgrwt>
<rscale>  0 0.78328653E+03</rscale>
<asrwt>0</asrwt>
<pdfrwt beam="1">  1        1 0.98808190E-01 0.78328653E+03</pdfrwt>
<pdfrwt beam="2">  1       -1 0.31680520E-01 0.78328653E+03</pdfrwt>
<totfact> 0.28988010E+02</totfact>
</mgrwt>
</event>
<event>
 4    1  0.7145298E-006  0.6064330E+03  0.7818608E-02  0.9892149E-01
          1   -1    0    0  501    0  0.00000000000E+00  0.00000000000E+00  0.15206878751E+03  0.15206878760E+03  0.50400000000E-02 0.  1.
         -1   -1    0    0    0  501 -0.00000000000E+00 -0.00000000000E+00 -0.60459643497E+03  0.60459643499E+03  0.50400000000E-02 0. -1.
    5000001    1    1    2    0    0 -0.61814372475E+01 -0.18986028271E+03 -0.54316224394E+02  0.27549843802E+03  0.19200000000E+03 0.  0.
   -5000001    1    1    2    0    0  0.61814372475E+01  0.18986028271E+03 -0.39821142307E+03  0.48116678457E+03  0.19200000000E+03 0.  0.
<mgrwt>
<rscale>  0 0.60643300E+03</rscale>
<asrwt>0</asrwt>
<pdfrwt beam="1">  1        1 0.21724113E-01 0.60643300E+03</pdfrwt>
<pdfrwt beam="2">  1       -1 0.86370918E-01 0.60643300E+03</pdfrwt>
<totfact> 0.31532586E+02</totfact>
</mgrwt>
</event>
<event>
 4    1  0.7145298E-006  0.6534003E+03  0.7818608E-02  0.9800420E-01
          1   -1    0    0  501    0  0.00000000000E+00  0.00000000000E+00  0.12143075457E+04  0.12143075457E+04  0.50400000000E-02 0.  1.
         -1   -1    0    0    0  501 -0.00000000000E+00 -0.00000000000E+00 -0.87896166464E+02  0.87896166609E+02  0.50400000000E-02 0. -1.
    5000001    1    1    2    0    0  0.41460820683E+02  0.25238393218E+03  0.43022356619E+03  0.53607179163E+03  0.19200000000E+03 0.  0.
   -5000001    1    1    2    0    0 -0.41460820683E+02 -0.25238393218E+03  0.69618781305E+03  0.76613192070E+03  0.19200000000E+03 0.  0.
<mgrwt>
<rscale>  0 0.65340027E+03</rscale>
<asrwt>0</asrwt>
<pdfrwt beam="1">  1        1 0.17347249E+00 0.65340027E+03</pdfrwt>
<pdfrwt beam="2">  1       -1 0.12556597E-01 0.65340027E+03</pdfrwt>
<totfact> 0.53821216E+02</totfact>
</mgrwt>
</event>
<event>
 4    1  0.7145298E-006  0.6743948E+03  0.7818608E-02  0.9762051E-01
         -1   -1    0    0    0  501 -0.00000000000E+00  0.00000000000E+00  0.21031897647E+03  0.21031897654E+03  0.50400000000E-02 0. -1.
          1   -1    0    0  501    0  0.00000000000E+00 -0.00000000000E+00 -0.54061737850E+03  0.54061737852E+03  0.50400000000E-02 0.  1.
    5000001    1    1    2    0    0  0.20542707476E+03 -0.11134542684E+03  0.90748242596E+00  0.30242835622E+03  0.19200000000E+03 0.  0.
   -5000001    1    1    2    0    0 -0.20542707476E+03  0.11134542684E+03 -0.33120588445E+03  0.44850799884E+03  0.19200000000E+03 0.  0.
<mgrwt>
<rscale>  0 0.67439482E+03</rscale>
<asrwt>0</asrwt>
<pdfrwt beam="1">  1        1 0.77231054E-01 0.67439482E+03</pdfrwt>
<pdfrwt beam="2">  1       -1 0.30045568E-01 0.67439482E+03</pdfrwt>
<totfact> 0.45279063E+02</totfact>
</mgrwt>
</event>
<event>
 4    1  0.7145298E-006  0.6580465E+03  0.7818608E-02  0.9791797E-01
         -1   -1    0    0    0  501 -0.00000000000E+00  0.00000000000E+00  0.49367946281E+02  0.49367946538E+02  0.50400000000E-02 0. -1.
          1   -1    0    0  501    0  0.00000000000E+00 -0.00000000000E+00 -0.21928459674E+04  0.21928459674E+04  0.50400000000E-02 0.  1.
    5000001    1    1    2    0    0 -0.22384554918E+03 -0.14534769356E+03 -0.11147746676E+04  0.11622475388E+04  0.19200000000E+03 0.  0.
   -5000001    1    1    2    0    0  0.22384554918E+03  0.14534769356E+03 -0.10287033535E+04  0.10799663751E+04  0.19200000000E+03 0.  0.
<mgrwt>
<rscale>  0 0.65804651E+03</rscale>
<asrwt>0</asrwt>
<pdfrwt beam="1">  1        1 0.31326365E+00 0.65804651E+03</pdfrwt>
<pdfrwt beam="2">  1       -1 0.70525651E-02 0.65804651E+03</pdfrwt>
<totfact> 0.31897845E+02</totfact>
</mgrwt>
</event>
<event>
 4    1  0.7145298E-006  0.7601034E+03  0.7818608E-02  0.9619632E-01
         -1   -1    0    0    0  501 -0.00000000000E+00  0.00000000000E+00  0.24435747964E+03  0.24435747969E+03  0.50400000000E-02 0. -1.
          1   -1    0    0  501    0  0.00000000000E+00 -0.00000000000E+00 -0.59109829130E+03  0.59109829132E+03  0.50400000000E-02 0.  1.
    5000001    1    1    2    0    0 -0.30022714752E+03 -0.65324536889E+02 -0.47225143142E+02  0.36537357509E+03  0.19200000000E+03 0.  0.
   -5000001    1    1    2    0    0  0.30022714752E+03  0.65324536889E+02 -0.29951566852E+03  0.47008219592E+03  0.19200000000E+03 0.  0.
<mgrwt>
<rscale>  0 0.76010338E+03</rscale>
<asrwt>0</asrwt>
<pdfrwt beam="1">  1        1 0.84442612E-01 0.76010338E+03</pdfrwt>
<pdfrwt beam="2">  1       -1 0.34908212E-01 0.76010338E+03</pdfrwt>
<totfact> 0.30625054E+02</totfact>
</mgrwt>
</event>
<event>
 4    1  0.7145298E-006  0.4551990E+03  0.7818608E-02  0.1026183E+00
          1   -1    0    0  501    0  0.00000000000E+00  0.00000000000E+00  0.15029816607E+04  0.15029816607E+04  0.50400000000E-02 0. -1.
         -1   -1    0    0    0  501 -0.00000000000E+00 -0.00000000000E+00 -0.34465851598E+02  0.34465851967E+02  0.50400000000E-02 0.  1.
    5000001    1    1    2    0    0 -0.89694369358E+02 -0.82816228556E+02  0.71458237478E+03  0.74993038207E+03  0.19200000000E+03 0.  0.
   -5000001    1    1    2    0    0  0.89694369358E+02  0.82816228556E+02  0.75393343431E+03  0.78751713059E+03  0.19200000000E+03 0.  0.
<mgrwt>
<rscale>  0 0.45519905E+03</rscale>
<asrwt>0</asrwt>
<pdfrwt beam="1">  1        1 0.21471164E+00 0.45519905E+03</pdfrwt>
<pdfrwt beam="2">  1       -1 0.49236936E-02 0.45519905E+03</pdfrwt>
<totfact> 0.15059141E+03</totfact>
</mgrwt>
</event>
<event>
 4    1  0.7145298E-006  0.4902107E+03  0.7818608E-02  0.1016366E+00
          1   -1    0    0  501    0  0.00000000000E+00  0.00000000000E+00  0.78462591147E+03  0.78462591148E+03  0.50400000000E-02 0. -1.
         -1   -1    0    0    0  501 -0.00000000000E+00 -0.00000000000E+00 -0.76567214526E+02  0.76567214691E+02  0.50400000000E-02 0.  1.
    5000001    1    1    2    0    0 -0.10248401995E+03  0.10587159849E+03  0.42208850767E+03  0.48655367435E+03  0.19200000000E+03 0.  0.
   -5000001    1    1    2    0    0  0.10248401995E+03 -0.10587159849E+03  0.28597018927E+03  0.37463945183E+03  0.19200000000E+03 0.  0.
<mgrwt>
<rscale>  0 0.49021065E+03</rscale>
<asrwt>0</asrwt>
<pdfrwt beam="1">  1        1 0.11208941E+00 0.49021065E+03</pdfrwt>
<pdfrwt beam="2">  1       -1 0.10938174E-01 0.49021065E+03</pdfrwt>
<totfact> 0.14089021E+03</totfact>
</mgrwt>
</event>
<event>
 4    1  0.7145298E-006  0.6814789E+03  0.7818608E-02  0.9749441E-01
          1   -1    0    0  501    0  0.00000000000E+00  0.00000000000E+00  0.55694223836E+03  0.55694223839E+03  0.50400000000E-02 0. -1.
         -1   -1    0    0    0  501 -0.00000000000E+00 -0.00000000000E+00 -0.20846572264E+03  0.20846572270E+03  0.50400000000E-02 0.  1.
    5000001    1    1    2    0    0 -0.20590520270E+03  0.13076362680E+03  0.33205399562E+03  0.45455465524E+03  0.19200000000E+03 0.  0.
   -5000001    1    1    2    0    0  0.20590520270E+03 -0.13076362680E+03  0.16422520104E+02  0.31085330585E+03  0.19200000000E+03 0.  0.
<mgrwt>
<rscale>  0 0.68147888E+03</rscale>
<asrwt>0</asrwt>
<pdfrwt beam="1">  1        1 0.79563175E-01 0.68147888E+03</pdfrwt>
<pdfrwt beam="2">  1       -1 0.29780818E-01 0.68147888E+03</pdfrwt>
<totfact> 0.44126887E+02</totfact>
</mgrwt>
</event>
<event>
 4    1  0.7145298E-006  0.8498694E+03  0.7818608E-02  0.9490512E-01
          1   -1    0    0  501    0  0.00000000000E+00  0.00000000000E+00  0.39869888074E+04  0.39869888074E+04  0.50400000000E-02 0.  1.
         -1   -1    0    0    0  501 -0.00000000000E+00 -0.00000000000E+00 -0.45289698005E+02  0.45289698286E+02  0.50400000000E-02 0. -1.
    5000001    1    1    2    0    0 -0.31513358327E+03  0.20306137807E+03  0.22376632693E+04  0.22769593771E+04  0.19200000000E+03 0.  0.
   -5000001    1    1    2    0    0  0.31513358327E+03 -0.20306137807E+03  0.17040358401E+04  0.17553191285E+04  0.19200000000E+03 0.  0.
<mgrwt>
<rscale>  0 0.84986945E+03</rscale>
<asrwt>0</asrwt>
<pdfrwt beam="1">  1        1 0.56956973E+00 0.84986945E+03</pdfrwt>
<pdfrwt beam="2">  1       -1 0.64699580E-02 0.84986945E+03</pdfrwt>
<totfact> 0.22907717E+01</totfact>
</mgrwt>
</event>
<event>
 4    1  0.7145298E-006  0.1041763E+04  0.7818608E-02  0.9263890E-01
         -1   -1    0    0    0  501 -0.00000000000E+00  0.00000000000E+00  0.16708464344E+03  0.16708464352E+03  0.50400000000E-02 0. -1.
          1   -1    0    0  501    0  0.00000000000E+00 -0.00000000000E+00 -0.16238326768E+04  0.16238326768E+04  0.50400000000E-02 0.  1.
    5000001    1    1    2    0    0  0.24593448239E+02 -0.42884918198E+03 -0.34420878630E+03  0.58297525432E+03  0.19200000000E+03 0.  0.
   -5000001    1    1    2    0    0 -0.24593448239E+02  0.42884918198E+03 -0.11125392470E+04  0.12079420660E+04  0.19200000000E+03 0.  0.
<mgrwt>
<rscale>  0 0.10417629E+04</rscale>
<asrwt>0</asrwt>
<pdfrwt beam="1">  1        1 0.23197609E+00 0.10417629E+04</pdfrwt>
<pdfrwt beam="2">  1       -1 0.23869236E-01 0.10417629E+04</pdfrwt>
<totfact> 0.97917609E+01</totfact>
</mgrwt>
</event>
<event>
 4    1  0.7145298E-006  0.4970914E+03  0.7818608E-02  0.1014541E+00
          1   -1    0    0  501    0  0.00000000000E+00  0.00000000000E+00  0.16153891491E+03  0.16153891499E+03  0.50400000000E-02 0.  1.
         -1   -1    0    0    0  501 -0.00000000000E+00 -0.00000000000E+00 -0.38241537850E+03  0.38241537853E+03  0.50400000000E-02 0. -1.
    5000001    1    1    2    0    0 -0.11621464051E+03  0.10162981086E+03 -0.14634150311E+03  0.28655592239E+03  0.19200000000E+03 0.  0.
   -5000001    1    1    2    0    0  0.11621464051E+03 -0.10162981086E+03 -0.74534960485E+02  0.25739837113E+03  0.19200000000E+03 0.  0.
<mgrwt>
<rscale>  0 0.49709140E+03</rscale>
<asrwt>0</asrwt>
<pdfrwt beam="1">  1        1 0.23076988E-01 0.49709140E+03</pdfrwt>
<pdfrwt beam="2">  1       -1 0.54630768E-01 0.49709140E+03</pdfrwt>
<totfact> 0.73958456E+02</totfact>
</mgrwt>
</event>
<event>
 4    1  0.7145298E-006  0.7063311E+03  0.7818608E-02  0.9706466E-01
         -1   -1    0    0    0  501 -0.00000000000E+00  0.00000000000E+00  0.59642179420E+02  0.59642179633E+02  0.50400000000E-02 0. -1.
          1   -1    0    0  501    0  0.00000000000E+00 -0.00000000000E+00 -0.20912365760E+04  0.20912365760E+04  0.50400000000E-02 0.  1.
    5000001    1    1    2    0    0 -0.20028691387E+03  0.20110903469E+03 -0.75558064240E+03  0.82965402360E+03  0.19200000000E+03 0.  0.
   -5000001    1    1    2    0    0  0.20028691387E+03 -0.20110903469E+03 -0.12760137542E+04  0.13212247321E+04  0.19200000000E+03 0.  0.
<mgrwt>
<rscale>  0 0.70633110E+03</rscale>
<asrwt>0</asrwt>
<pdfrwt beam="1">  1        1 0.29874804E+00 0.70633110E+03</pdfrwt>
<pdfrwt beam="2">  1       -1 0.85203127E-02 0.70633110E+03</pdfrwt>
<totfact> 0.27340642E+02</totfact>
</mgrwt>
</event>
<event>
 4    1  0.7145298E-006  0.4319612E+03  0.7818608E-02  0.1033242E+00
          1   -1    0    0  501    0  0.00000000000E+00  0.00000000000E+00  0.22518153231E+04  0.22518153231E+04  0.50400000000E-02 0.  1.
         -1   -1    0    0    0  501 -0.00000000000E+00 -0.00000000000E+00 -0.20715559560E+02  0.20715560173E+02  0.50400000000E-02 0. -1.
    5000001    1    1    2    0    0 -0.80745722876E+02  0.56615524590E+02  0.10753368095E+04  0.10967855046E+04  0.19200000000E+03 0.  0.
   -5000001    1    1    2    0    0  0.80745722876E+02 -0.56615524590E+02  0.11557629540E+04  0.11757453786E+04  0.19200000000E+03 0.  0.
<mgrwt>
<rscale>  0 0.43196118E+03</rscale>
<asrwt>0</asrwt>
<pdfrwt beam="1">  1        1 0.32168783E+00 0.43196118E+03</pdfrwt>
<pdfrwt beam="2">  1       -1 0.29593663E-02 0.43196118E+03</pdfrwt>
<totfact> 0.11192926E+03</totfact>
</mgrwt>
</event>
<event>
 4    1  0.7145298E-006  0.4474904E+03  0.7818608E-02  0.1028473E+00
          1   -1    0    0  501    0  0.00000000000E+00  0.00000000000E+00  0.21290541930E+04  0.21290541930E+04  0.50400000000E-02 0.  1.
         -1   -1    0    0    0  501 -0.00000000000E+00 -0.00000000000E+00 -0.23513687726E+02  0.23513688266E+02  0.50400000000E-02 0. -1.
    5000001    1    1    2    0    0 -0.15038090171E+02 -0.10800331648E+03  0.87886201985E+03  0.90617509923E+03  0.19200000000E+03 0.  0.
   -5000001    1    1    2    0    0  0.15038090171E+02  0.10800331648E+03  0.12266784854E+04  0.12463927820E+04  0.19200000000E+03 0.  0.
<mgrwt>
<rscale>  0 0.44749041E+03</rscale>
<asrwt>0</asrwt>
<pdfrwt beam="1">  1        1 0.30415068E+00 0.44749041E+03</pdfrwt>
<pdfrwt beam="2">  1       -1 0.33590974E-02 0.44749041E+03</pdfrwt>
<totfact> 0.10996183E+03</totfact>
</mgrwt>
</event>
<event>
 4    1  0.7145298E-006  0.5629932E+03  0.7818608E-02  0.9985305E-01
         -1   -1    0    0    0  501 -0.00000000000E+00  0.00000000000E+00  0.12549049129E+03  0.12549049139E+03  0.50400000000E-02 0. -1.
          1   -1    0    0  501    0  0.00000000000E+00 -0.00000000000E+00 -0.63144497104E+03  0.63144497106E+03  0.50400000000E-02 0.  1.
    5000001    1    1    2    0    0  0.15124622772E+03 -0.13805772929E+03 -0.22474365923E+03  0.35959570406E+03  0.19200000000E+03 0.  0.
   -5000001    1    1    2    0    0 -0.15124622772E+03  0.13805772929E+03 -0.28121082052E+03  0.39733975839E+03  0.19200000000E+03 0.  0.
<mgrwt>
<rscale>  0 0.56299321E+03</rscale>
<asrwt>0</asrwt>
<pdfrwt beam="1">  1        1 0.90206423E-01 0.56299321E+03</pdfrwt>
<pdfrwt beam="2">  1       -1 0.17927213E-01 0.56299321E+03</pdfrwt>
<totfact> 0.87389485E+02</totfact>
</mgrwt>
</event>
<event>
 4    1  0.7145298E-006  0.8114724E+03  0.7818608E-02  0.9543558E-01
          1   -1    0    0  501    0  0.00000000000E+00  0.00000000000E+00  0.35159273520E+03  0.35159273523E+03  0.50400000000E-02 0.  1.
         -1   -1    0    0    0  501 -0.00000000000E+00 -0.00000000000E+00 -0.46821744051E+03  0.46821744054E+03  0.50400000000E-02 0. -1.
    5000001    1    1    2    0    0  0.24349813514E+03  0.17126997636E+03  0.14154112860E+03  0.38147429495E+03  0.19200000000E+03 0.  0.
   -5000001    1    1    2    0    0 -0.24349813514E+03 -0.17126997636E+03 -0.25816583391E+03  0.43833588082E+03  0.19200000000E+03 0.  0.
<mgrwt>
<rscale>  0 0.81147237E+03</rscale>
<asrwt>0</asrwt>
<pdfrwt beam="1">  1        1 0.50227533E-01 0.81147237E+03</pdfrwt>
<pdfrwt beam="2">  1       -1 0.66888206E-01 0.81147237E+03</pdfrwt>
<totfact> 0.17965980E+02</totfact>
</mgrwt>
</event>
<event>
 4    1  0.7145298E-006  0.4602689E+03  0.7818608E-02  0.1024703E+00
         -1   -1    0    0    0  501 -0.00000000000E+00  0.00000000000E+00  0.39547083632E+02  0.39547083953E+02  0.50400000000E-02 0.  1.
          1   -1    0    0  501    0  0.00000000000E+00 -0.00000000000E+00 -0.13392102509E+04  0.13392102509E+04  0.50400000000E-02 0. -1.
    5000001    1    1    2    0    0  0.33464396883E+02  0.11879910780E+03 -0.73792137174E+03  0.77241507284E+03  0.19200000000E+03 0.  0.
   -5000001    1    1    2    0    0 -0.33464396883E+02 -0.11879910780E+03 -0.56174179549E+03  0.60634226199E+03  0.19200000000E+03 0.  0.
<mgrwt>
<rscale>  0 0.46026888E+03</rscale>
<asrwt>0</asrwt>
<pdfrwt beam="1">  1        1 0.19131572E+00 0.46026888E+03</pdfrwt>
<pdfrwt beam="2">  1       -1 0.56495842E-02 0.46026888E+03</pdfrwt>
<totfact> 0.15571163E+03</totfact>
</mgrwt>
</event>
<event>
 4    1  0.7145298E-006  0.6135460E+03  0.7818608E-02  0.9877694E-01
          1   -1    0    0  501    0  0.00000000000E+00  0.00000000000E+00  0.19081559158E+03  0.19081559165E+03  0.50400000000E-02 0. -1.
         -1   -1    0    0    0  501 -0.00000000000E+00 -0.00000000000E+00 -0.49319704743E+03  0.49319704746E+03  0.50400000000E-02 0.  1.
    5000001    1    1    2    0    0 -0.22415434441E+03 -0.81704282825E+02 -0.17128672251E+03  0.35089015554E+03  0.19200000000E+03 0.  0.
   -5000001    1    1    2    0    0  0.22415434441E+03  0.81704282825E+02 -0.13109473334E+03  0.33312248357E+03  0.19200000000E+03 0.  0.
<mgrwt>
<rscale>  0 0.61354604E+03</rscale>
<asrwt>0</asrwt>
<pdfrwt beam="1">  1        1 0.27259371E-01 0.61354604E+03</pdfrwt>
<pdfrwt beam="2">  1       -1 0.70456720E-01 0.61354604E+03</pdfrwt>
<totfact> 0.35945389E+02</totfact>
</mgrwt>
</event>
<event>
 4    1  0.7145298E-006  0.4183150E+03  0.7818608E-02  0.1037616E+00
         -1   -1    0    0    0  501 -0.00000000000E+00  0.00000000000E+00  0.19109290275E+02  0.19109290940E+02  0.50400000000E-02 0. -1.
          1   -1    0    0  501    0  0.00000000000E+00 -0.00000000000E+00 -0.22892984129E+04  0.22892984129E+04  0.50400000000E-02 0.  1.
    5000001    1    1    2    0    0  0.66924735504E+02 -0.47733341777E+02 -0.10732800716E+04  0.10934127786E+04  0.19200000000E+03 0.  0.
   -5000001    1    1    2    0    0 -0.66924735504E+02  0.47733341777E+02 -0.11969090510E+04  0.12149949253E+04  0.19200000000E+03 0.  0.
<mgrwt>
<rscale>  0 0.41831504E+03</rscale>
<asrwt>0</asrwt>
<pdfrwt beam="1">  1        1 0.32704246E+00 0.41831504E+03</pdfrwt>
<pdfrwt beam="2">  1       -1 0.27299001E-02 0.41831504E+03</pdfrwt>
<totfact> 0.11986136E+03</totfact>
</mgrwt>
</event>
<event>
 4    1  0.7145298E-006  0.5336473E+03  0.7818608E-02  0.1005351E+00
          1   -1    0    0  501    0  0.00000000000E+00  0.00000000000E+00  0.31841823829E+03  0.31841823833E+03  0.50400000000E-02 0.  1.
         -1   -1    0    0    0  501 -0.00000000000E+00 -0.00000000000E+00 -0.22358912763E+03  0.22358912768E+03  0.50400000000E-02 0. -1.
    5000001    1    1    2    0    0 -0.45347496445E+02 -0.15531951989E+03  0.13910791393E+03  0.28704626876E+03  0.19200000000E+03 0.  0.
   -5000001    1    1    2    0    0  0.45347496445E+02  0.15531951989E+03 -0.44278803266E+02  0.25496109725E+03  0.19200000000E+03 0.  0.
<mgrwt>
<rscale>  0 0.53364728E+03</rscale>
<asrwt>0</asrwt>
<pdfrwt beam="1">  1        1 0.45488320E-01 0.53364728E+03</pdfrwt>
<pdfrwt beam="2">  1       -1 0.31941304E-01 0.53364728E+03</pdfrwt>
<totfact> 0.82017166E+02</totfact>
</mgrwt>
</event>
<event>
 4    1  0.7145298E-006  0.6716410E+03  0.7818608E-02  0.9766998E-01
         -1   -1    0    0    0  501 -0.00000000000E+00  0.00000000000E+00  0.23434418441E+03  0.23434418446E+03  0.50400000000E-02 0. -1.
          1   -1    0    0  501    0  0.00000000000E+00 -0.00000000000E+00 -0.48123830441E+03  0.48123830444E+03  0.50400000000E-02 0.  1.
    5000001    1    1    2    0    0 -0.10330592062E+03  0.14442267209E+03 -0.34789876491E+03  0.43523277918E+03  0.19200000000E+03 0.  0.
   -5000001    1    1    2    0    0  0.10330592062E+03 -0.14442267209E+03  0.10100464491E+03  0.28034970972E+03  0.19200000000E+03 0.  0.
<mgrwt>
<rscale>  0 0.67164097E+03</rscale>
<asrwt>0</asrwt>
<pdfrwt beam="1">  1        1 0.68748329E-01 0.67164097E+03</pdfrwt>
<pdfrwt beam="2">  1       -1 0.33477741E-01 0.67164097E+03</pdfrwt>
<totfact> 0.43866661E+02</totfact>
</mgrwt>
</event>
<event>
 4    1  0.7145298E-006  0.5196170E+03  0.7818608E-02  0.1008782E+00
          1   -1    0    0  501    0  0.00000000000E+00  0.00000000000E+00  0.58174421426E+03  0.58174421428E+03  0.50400000000E-02 0.  1.
         -1   -1    0    0    0  501 -0.00000000000E+00 -0.00000000000E+00 -0.11603115001E+03  0.11603115011E+03  0.50400000000E-02 0. -1.
    5000001    1    1    2    0    0 -0.10232110340E+03  0.35398036635E+02  0.41753741390E+03  0.47214841014E+03  0.19200000000E+03 0.  0.
   -5000001    1    1    2    0    0  0.10232110340E+03 -0.35398036635E+02  0.48175650361E+02  0.22562695426E+03  0.19200000000E+03 0.  0.
<mgrwt>
<rscale>  0 0.51961698E+03</rscale>
<asrwt>0</asrwt>
<pdfrwt beam="1">  1        1 0.83106318E-01 0.51961698E+03</pdfrwt>
<pdfrwt beam="2">  1       -1 0.16575878E-01 0.51961698E+03</pdfrwt>
<totfact> 0.11147382E+03</totfact>
</mgrwt>
</event>
<event>
 4    1  0.7145298E-006  0.4886851E+03  0.7818608E-02  0.1016775E+00
         -1   -1    0    0    0  501 -0.00000000000E+00  0.00000000000E+00  0.70421466573E+02  0.70421466753E+02  0.50400000000E-02 0.  1.
          1   -1    0    0  501    0  0.00000000000E+00 -0.00000000000E+00 -0.84779943629E+03  0.84779943631E+03  0.50400000000E-02 0. -1.
    5000001    1    1    2    0    0 -0.10942950291E+03 -0.83450963259E+02 -0.27134179884E+03  0.35976277069E+03  0.19200000000E+03 0.  0.
   -5000001    1    1    2    0    0  0.10942950291E+03  0.83450963259E+02 -0.50603617088E+03  0.55845813237E+03  0.19200000000E+03 0.  0.
<mgrwt>
<rscale>  0 0.48868509E+03</rscale>
<asrwt>0</asrwt>
<pdfrwt beam="1">  1        1 0.12111420E+00 0.48868509E+03</pdfrwt>
<pdfrwt beam="2">  1       -1 0.10060210E-01 0.48868509E+03</pdfrwt>
<totfact> 0.14268713E+03</totfact>
</mgrwt>
</event>
<event>
 4    1  0.7145298E-006  0.7300260E+03  0.7818608E-02  0.9667218E-01
          1   -1    0    0  501    0  0.00000000000E+00  0.00000000000E+00  0.21650174719E+04  0.21650174719E+04  0.50400000000E-02 0.  1.
         -1   -1    0    0    0  501 -0.00000000000E+00 -0.00000000000E+00 -0.61539682625E+02  0.61539682831E+02  0.50400000000E-02 0. -1.
    5000001    1    1    2    0    0 -0.23352556162E+03 -0.20410392380E+03  0.10924178410E+04  0.11517088777E+04  0.19200000000E+03 0.  0.
   -5000001    1    1    2    0    0  0.23352556162E+03  0.20410392380E+03  0.10110599482E+04  0.10748482770E+04  0.19200000000E+03 0.  0.
<mgrwt>
<rscale>  0 0.73002599E+03</rscale>
<asrwt>0</asrwt>
<pdfrwt beam="1">  1        1 0.30928824E+00 0.73002599E+03</pdfrwt>
<pdfrwt beam="2">  1       -1 0.87913824E-02 0.73002599E+03</pdfrwt>
<totfact> 0.23382051E+02</totfact>
</mgrwt>
</event>
<event>
 4    1  0.7145298E-006  0.6282558E+03  0.7818608E-02  0.9848458E-01
          1   -1    0    0  501    0  0.00000000000E+00  0.00000000000E+00  0.29632456397E+03  0.29632456401E+03  0.50400000000E-02 0.  1.
         -1   -1    0    0    0  501 -0.00000000000E+00 -0.00000000000E+00 -0.33300087191E+03  0.33300087195E+03  0.50400000000E-02 0. -1.
    5000001    1    1    2    0    0  0.73685206765E+02  0.23553088512E+03 -0.48523004683E+02  0.31642185374E+03  0.19200000000E+03 0.  0.
   -5000001    1    1    2    0    0 -0.73685206765E+02 -0.23553088512E+03  0.11846696742E+02  0.31290358222E+03  0.19200000000E+03 0.  0.
<mgrwt>
<rscale>  0 0.62825580E+03</rscale>
<asrwt>0</asrwt>
<pdfrwt beam="1">  1        1 0.42332081E-01 0.62825580E+03</pdfrwt>
<pdfrwt beam="2">  1       -1 0.47571553E-01 0.62825580E+03</pdfrwt>
<totfact> 0.43778898E+02</totfact>
</mgrwt>
</event>
<event>
 4    1  0.7145298E-006  0.6417401E+03  0.7818608E-02  0.9822403E-01
          1   -1    0    0  501    0  0.00000000000E+00  0.00000000000E+00  0.10720951551E+04  0.10720951551E+04  0.50400000000E-02 0. -1.
         -1   -1    0    0    0  501 -0.00000000000E+00 -0.00000000000E+00 -0.96033994689E+02  0.96033994821E+02  0.50400000000E-02 0.  1.
    5000001    1    1    2    0    0 -0.24422364655E+03 -0.46562888048E+02  0.36894252039E+03  0.48455740159E+03  0.19200000000E+03 0.  0.
   -5000001    1    1    2    0    0  0.24422364655E+03  0.46562888048E+02  0.60711864001E+03  0.68357174834E+03  0.19200000000E+03 0.  0.
<mgrwt>
<rscale>  0 0.64174007E+03</rscale>
<asrwt>0</asrwt>
<pdfrwt beam="1">  1        1 0.15315644E+00 0.64174007E+03</pdfrwt>
<pdfrwt beam="2">  1       -1 0.13719143E-01 0.64174007E+03</pdfrwt>
<totfact> 0.58738415E+02</totfact>
</mgrwt>
</event>
<event>
 4    1  0.7145298E-006  0.1056015E+04  0.7818608E-02  0.9249156E-01
          1   -1    0    0  501    0  0.00000000000E+00  0.00000000000E+00  0.19598007343E+03  0.19598007349E+03  0.50400000000E-02 0. -1.
         -1   -1    0    0    0  501 -0.00000000000E+00 -0.00000000000E+00 -0.14225524794E+04  0.14225524794E+04  0.50400000000E-02 0.  1.
    5000001    1    1    2    0    0  0.37923279435E+03  0.67657787445E+02 -0.14454468468E+03  0.45403992598E+03  0.19200000000E+03 0.  0.
   -5000001    1    1    2    0    0 -0.37923279435E+03 -0.67657787445E+02 -0.10820277213E+04  0.11644926269E+04  0.19200000000E+03 0.  0.
<mgrwt>
<rscale>  0 0.10560150E+04</rscale>
<asrwt>0</asrwt>
<pdfrwt beam="1">  1        1 0.27997154E-01 0.10560150E+04</pdfrwt>
<pdfrwt beam="2">  1       -1 0.20322178E+00 0.10560150E+04</pdfrwt>
<totfact> 0.24096473E+01</totfact>
</mgrwt>
</event>
<event>
 4    1  0.7145298E-006  0.8085525E+03  0.7818608E-02  0.9547720E-01
          1   -1    0    0  501    0  0.00000000000E+00  0.00000000000E+00  0.12202261282E+04  0.12202261282E+04  0.50400000000E-02 0.  1.
         -1   -1    0    0    0  501 -0.00000000000E+00 -0.00000000000E+00 -0.13394179068E+03  0.13394179077E+03  0.50400000000E-02 0. -1.
    5000001    1    1    2    0    0 -0.66913394380E+02 -0.32285653572E+03  0.31930942645E+03  0.49753015469E+03  0.19200000000E+03 0.  0.
   -5000001    1    1    2    0    0  0.66913394380E+02  0.32285653572E+03  0.76697491107E+03  0.85663776430E+03  0.19200000000E+03 0.  0.
<mgrwt>
<rscale>  0 0.80855247E+03</rscale>
<asrwt>0</asrwt>
<pdfrwt beam="1">  1        1 0.17431802E+00 0.80855247E+03</pdfrwt>
<pdfrwt beam="2">  1       -1 0.19134541E-01 0.80855247E+03</pdfrwt>
<totfact> 0.26613444E+02</totfact>
</mgrwt>
</event>
<event>
 4    1  0.7145298E-006  0.4313546E+03  0.7818608E-02  0.1033433E+00
          1   -1    0    0  501    0  0.00000000000E+00  0.00000000000E+00  0.12315919823E+04  0.12315919823E+04  0.50400000000E-02 0. -1.
         -1   -1    0    0    0  501 -0.00000000000E+00 -0.00000000000E+00 -0.37769561007E+02  0.37769561344E+02  0.50400000000E-02 0.  1.
    5000001    1    1    2    0    0  0.96861625339E+02  0.96358680716E+01  0.55768728599E+03  0.59779104491E+03  0.19200000000E+03 0.  0.
   -5000001    1    1    2    0    0 -0.96861625339E+02 -0.96358680716E+01  0.63613513526E+03  0.67157049870E+03  0.19200000000E+03 0.  0.
<mgrwt>
<rscale>  0 0.43135456E+03</rscale>
<asrwt>0</asrwt>
<pdfrwt beam="1">  1        1 0.17594169E+00 0.43135456E+03</pdfrwt>
<pdfrwt beam="2">  1       -1 0.53956522E-02 0.43135456E+03</pdfrwt>
<totfact> 0.19693926E+03</totfact>
</mgrwt>
</event>
<event>
 4    1  0.7145298E-006  0.5675389E+03  0.7818608E-02  0.9975140E-01
         -1   -1    0    0    0  501 -0.00000000000E+00  0.00000000000E+00  0.16581154303E+03  0.16581154311E+03  0.50400000000E-02 0. -1.
          1   -1    0    0  501    0  0.00000000000E+00 -0.00000000000E+00 -0.48564231209E+03  0.48564231211E+03  0.50400000000E-02 0.  1.
    5000001    1    1    2    0    0  0.16447205636E+02  0.20808775166E+03 -0.14902112125E+03  0.32037839743E+03  0.19200000000E+03 0.  0.
   -5000001    1    1    2    0    0 -0.16447205636E+02 -0.20808775166E+03 -0.17080964781E+03  0.33107545779E+03  0.19200000000E+03 0.  0.
<mgrwt>
<rscale>  0 0.56753890E+03</rscale>
<asrwt>0</asrwt>
<pdfrwt beam="1">  1        1 0.69377472E-01 0.56753890E+03</pdfrwt>
<pdfrwt beam="2">  1       -1 0.23687364E-01 0.56753890E+03</pdfrwt>
<totfact> 0.78871339E+02</totfact>
</mgrwt>
</event>
<event>
 4    1  0.7145298E-006  0.5369405E+03  0.7818608E-02  0.1004563E+00
         -1   -1    0    0    0  501 -0.00000000000E+00  0.00000000000E+00  0.70091741683E+03  0.70091741685E+03  0.50400000000E-02 0. -1.
          1   -1    0    0  501    0  0.00000000000E+00 -0.00000000000E+00 -0.10283133347E+03  0.10283133359E+03  0.50400000000E-02 0.  1.
    5000001    1    1    2    0    0 -0.16330250642E+03 -0.74727112350E+02  0.38048927838E+03  0.46248020594E+03  0.19200000000E+03 0.  0.
   -5000001    1    1    2    0    0  0.16330250642E+03  0.74727112350E+02  0.21759680498E+03  0.34126854450E+03  0.19200000000E+03 0.  0.
<mgrwt>
<rscale>  0 0.53694049E+03</rscale>
<asrwt>0</asrwt>
<pdfrwt beam="1">  1        1 0.14690190E-01 0.53694049E+03</pdfrwt>
<pdfrwt beam="2">  1       -1 0.10013106E+00 0.53694049E+03</pdfrwt>
<totfact> 0.38299904E+02</totfact>
</mgrwt>
</event>
<event>
 4    1  0.7145298E-006  0.5235078E+03  0.7818608E-02  0.1007819E+00
          1   -1    0    0  501    0  0.00000000000E+00  0.00000000000E+00  0.10064136991E+04  0.10064136991E+04  0.50400000000E-02 0.  1.
         -1   -1    0    0    0  501 -0.00000000000E+00 -0.00000000000E+00 -0.68078474117E+02  0.68078474304E+02  0.50400000000E-02 0. -1.
    5000001    1    1    2    0    0  0.14709501301E+03  0.32045628548E+01  0.26387908015E+03  0.35797120138E+03  0.19200000000E+03 0.  0.
   -5000001    1    1    2    0    0 -0.14709501301E+03 -0.32045628548E+01  0.67445614486E+03  0.71652097207E+03  0.19200000000E+03 0.  0.
<mgrwt>
<rscale>  0 0.52350782E+03</rscale>
<asrwt>0</asrwt>
<pdfrwt beam="1">  1        1 0.14377338E+00 0.52350782E+03</pdfrwt>
<pdfrwt beam="2">  1       -1 0.97254965E-02 0.52350782E+03</pdfrwt>
<totfact> 0.11373463E+03</totfact>
</mgrwt>
</event>
<event>
 4    1  0.7145298E-006  0.5336196E+03  0.7818608E-02  0.1005358E+00
          1   -1    0    0  501    0  0.00000000000E+00  0.00000000000E+00  0.33423077389E+03  0.33423077393E+03  0.50400000000E-02 0.  1.
         -1   -1    0    0    0  501 -0.00000000000E+00 -0.00000000000E+00 -0.21298893924E+03  0.21298893930E+03  0.50400000000E-02 0. -1.
    5000001    1    1    2    0    0  0.17582920869E+03 -0.34271897209E+02  0.10907973853E+03  0.28434637843E+03  0.19200000000E+03 0.  0.
   -5000001    1    1    2    0    0 -0.17582920869E+03  0.34271897209E+02  0.12162096123E+02  0.26287333480E+03  0.19200000000E+03 0.  0.
<mgrwt>
<rscale>  0 0.53361956E+03</rscale>
<asrwt>0</asrwt>
<pdfrwt beam="1">  1        1 0.47747254E-01 0.53361956E+03</pdfrwt>
<pdfrwt beam="2">  1       -1 0.30426991E-01 0.53361956E+03</pdfrwt>
<totfact> 0.83855243E+02</totfact>
</mgrwt>
</event>
<event>
 4    1  0.7145298E-006  0.6892483E+03  0.7818608E-02  0.9735798E-01
         -1   -1    0    0    0  501 -0.00000000000E+00  0.00000000000E+00  0.29769339514E+03  0.29769339518E+03  0.50400000000E-02 0. -1.
          1   -1    0    0  501    0  0.00000000000E+00 -0.00000000000E+00 -0.39895338727E+03  0.39895338730E+03  0.50400000000E-02 0.  1.
    5000001    1    1    2    0    0 -0.15849207204E+03  0.21609560506E+03 -0.15213076575E+03  0.36307687521E+03  0.19200000000E+03 0.  0.
   -5000001    1    1    2    0    0  0.15849207204E+03 -0.21609560506E+03  0.50870773624E+02  0.33356990727E+03  0.19200000000E+03 0.  0.
<mgrwt>
<rscale>  0 0.68924825E+03</rscale>
<asrwt>0</asrwt>
<pdfrwt beam="1">  1        1 0.56993341E-01 0.68924825E+03</pdfrwt>
<pdfrwt beam="2">  1       -1 0.42527628E-01 0.68924825E+03</pdfrwt>
<totfact> 0.36553546E+02</totfact>
</mgrwt>
</event>
<event>
 4    1  0.7145298E-006  0.9010074E+03  0.7818608E-02  0.9424323E-01
          1   -1    0    0  501    0  0.00000000000E+00  0.00000000000E+00  0.65662832394E+03  0.65662832396E+03  0.50400000000E-02 0.  1.
         -1   -1    0    0    0  501 -0.00000000000E+00 -0.00000000000E+00 -0.30908442241E+03  0.30908442245E+03  0.50400000000E-02 0. -1.
    5000001    1    1    2    0    0 -0.24025287422E+03 -0.31256681432E+03  0.63057465877E+02  0.44301207770E+03  0.19200000000E+03 0.  0.
   -5000001    1    1    2    0    0  0.24025287422E+03  0.31256681432E+03  0.28448643566E+03  0.52270066870E+03  0.19200000000E+03 0.  0.
<mgrwt>
<rscale>  0 0.90100741E+03</rscale>
<asrwt>0</asrwt>
<pdfrwt beam="1">  1        1 0.93804046E-01 0.90100741E+03</pdfrwt>
<pdfrwt beam="2">  1       -1 0.44154918E-01 0.90100741E+03</pdfrwt>
<totfact> 0.17088205E+02</totfact>
</mgrwt>
</event>
<event>
 4    1  0.7145298E-006  0.4298677E+03  0.7818608E-02  0.1033902E+00
          1   -1    0    0  501    0  0.00000000000E+00  0.00000000000E+00  0.14430058096E+04  0.14430058096E+04  0.50400000000E-02 0.  1.
         -1   -1    0    0    0  501 -0.00000000000E+00 -0.00000000000E+00 -0.32014117902E+02  0.32014118299E+02  0.50400000000E-02 0. -1.
    5000001    1    1    2    0    0  0.99833704480E+00  0.64661261416E+02  0.45923970990E+03  0.50194340971E+03  0.19200000000E+03 0.  0.
   -5000001    1    1    2    0    0 -0.99833704480E+00 -0.64661261416E+02  0.95175198177E+03  0.97307651817E+03  0.19200000000E+03 0.  0.
<mgrwt>
<rscale>  0 0.42986769E+03</rscale>
<asrwt>0</asrwt>
<pdfrwt beam="1">  1        1 0.20614365E+00 0.42986769E+03</pdfrwt>
<pdfrwt beam="2">  1       -1 0.45734463E-02 0.42986769E+03</pdfrwt>
<totfact> 0.18405498E+03</totfact>
</mgrwt>
</event>
<event>
 4    1  0.7145298E-006  0.7657934E+03  0.7818608E-02  0.9610894E-01
         -1   -1    0    0    0  501 -0.00000000000E+00  0.00000000000E+00  0.95979716789E+02  0.95979716921E+02  0.50400000000E-02 0. -1.
          1   -1    0    0  501    0  0.00000000000E+00 -0.00000000000E+00 -0.15275089474E+04  0.15275089474E+04  0.50400000000E-02 0.  1.
    5000001    1    1    2    0    0  0.32997849027E+03 -0.12539279634E+02 -0.77196839018E+03  0.86130263730E+03  0.19200000000E+03 0.  0.
   -5000001    1    1    2    0    0 -0.32997849027E+03  0.12539279634E+02 -0.65956084043E+03  0.76218602704E+03  0.19200000000E+03 0.  0.
<mgrwt>
<rscale>  0 0.76579338E+03</rscale>
<asrwt>0</asrwt>
<pdfrwt beam="1">  1        1 0.21821555E+00 0.76579338E+03</pdfrwt>
<pdfrwt beam="2">  1       -1 0.13711389E-01 0.76579338E+03</pdfrwt>
<totfact> 0.28827069E+02</totfact>
</mgrwt>
</event>
<event>
 4    1  0.7145298E-006  0.7937088E+03  0.7818608E-02  0.9569168E-01
          1   -1    0    0  501    0  0.00000000000E+00  0.00000000000E+00  0.83718678340E+03  0.83718678341E+03  0.50400000000E-02 0.  1.
         -1   -1    0    0    0  501 -0.00000000000E+00 -0.00000000000E+00 -0.18812217075E+03  0.18812217081E+03  0.50400000000E-02 0. -1.
    5000001    1    1    2    0    0 -0.33456549673E+03  0.19092005993E+02  0.44243871874E+03  0.58729430113E+03  0.19200000000E+03 0.  0.
   -5000001    1    1    2    0    0  0.33456549673E+03 -0.19092005993E+02  0.20662589391E+03  0.43801465310E+03  0.19200000000E+03 0.  0.
<mgrwt>
<rscale>  0 0.79370875E+03</rscale>
<asrwt>0</asrwt>
<pdfrwt beam="1">  1        1 0.11959811E+00 0.79370875E+03</pdfrwt>
<pdfrwt beam="2">  1       -1 0.26874595E-01 0.79370875E+03</pdfrwt>
<totfact> 0.28850892E+02</totfact>
</mgrwt>
</event>
<event>
 4    1  0.7145298E-006  0.4344648E+03  0.7818608E-02  0.1032459E+00
         -1   -1    0    0    0  501 -0.00000000000E+00  0.00000000000E+00  0.60522996348E+02  0.60522996557E+02  0.50400000000E-02 0. -1.
          1   -1    0    0  501    0  0.00000000000E+00 -0.00000000000E+00 -0.77970233687E+03  0.77970233689E+03  0.50400000000E-02 0.  1.
    5000001    1    1    2    0    0  0.82843962860E+02 -0.58238609556E+02 -0.34328673371E+03  0.40615839197E+03  0.19200000000E+03 0.  0.
   -5000001    1    1    2    0    0 -0.82843962860E+02  0.58238609556E+02 -0.37589260681E+03  0.43406694148E+03  0.19200000000E+03 0.  0.
<mgrwt>
<rscale>  0 0.43446483E+03</rscale>
<asrwt>0</asrwt>
<pdfrwt beam="1">  1        1 0.11138604E+00 0.43446483E+03</pdfrwt>
<pdfrwt beam="2">  1       -1 0.86461428E-02 0.43446483E+03</pdfrwt>
<totfact> 0.20554888E+03</totfact>
</mgrwt>
</event>
<event>
 4    1  0.7145298E-006  0.6804259E+03  0.7818608E-02  0.9751305E-01
          1   -1    0    0  501    0  0.00000000000E+00  0.00000000000E+00  0.36362979998E+04  0.36362979998E+04  0.50400000000E-02 0.  1.
         -1   -1    0    0    0  501 -0.00000000000E+00 -0.00000000000E+00 -0.31830407173E+02  0.31830407572E+02  0.50400000000E-02 0. -1.
    5000001    1    1    2    0    0  0.41866985926E+02  0.27679783477E+03  0.16803748250E+04  0.17143201097E+04  0.19200000000E+03 0.  0.
   -5000001    1    1    2    0    0 -0.41866985926E+02 -0.27679783477E+03  0.19240927676E+04  0.19538082977E+04  0.19200000000E+03 0.  0.
<mgrwt>
<rscale>  0 0.68042589E+03</rscale>
<asrwt>0</asrwt>
<pdfrwt beam="1">  1        1 0.51947115E+00 0.68042589E+03</pdfrwt>
<pdfrwt beam="2">  1       -1 0.45472010E-02 0.68042589E+03</pdfrwt>
<totfact> 0.72413160E+01</totfact>
</mgrwt>
</event>
<event>
 4    1  0.7145298E-006  0.4897403E+03  0.7818608E-02  0.1016492E+00
          1   -1    0    0  501    0  0.00000000000E+00  0.00000000000E+00  0.41208993054E+03  0.41208993057E+03  0.50400000000E-02 0.  1.
         -1   -1    0    0    0  501 -0.00000000000E+00 -0.00000000000E+00 -0.14550561949E+03  0.14550561958E+03  0.50400000000E-02 0. -1.
    5000001    1    1    2    0    0 -0.14392902684E+03  0.47008588886E+02  0.11835893164E+03  0.27165825755E+03  0.19200000000E+03 0.  0.
   -5000001    1    1    2    0    0  0.14392902684E+03 -0.47008588886E+02  0.14822537941E+03  0.28593729260E+03  0.19200000000E+03 0.  0.
<mgrwt>
<rscale>  0 0.48974034E+03</rscale>
<asrwt>0</asrwt>
<pdfrwt beam="1">  1        1 0.58869990E-01 0.48974034E+03</pdfrwt>
<pdfrwt beam="2">  1       -1 0.20786517E-01 0.48974034E+03</pdfrwt>
<totfact> 0.12194542E+03</totfact>
</mgrwt>
</event>
<event>
 4    1  0.7145298E-006  0.5429940E+03  0.7818608E-02  0.1003129E+00
         -1   -1    0    0    0  501 -0.00000000000E+00  0.00000000000E+00  0.47346359334E+02  0.47346359602E+02  0.50400000000E-02 0.  1.
          1   -1    0    0  501    0  0.00000000000E+00 -0.00000000000E+00 -0.15568383256E+04  0.15568383256E+04  0.50400000000E-02 0. -1.
    5000001    1    1    2    0    0  0.39051182206E+02 -0.14351750042E+03 -0.39625559154E+03  0.46476312417E+03  0.19200000000E+03 0.  0.
   -5000001    1    1    2    0    0 -0.39051182206E+02  0.14351750042E+03 -0.11132363747E+04  0.11394215611E+04  0.19200000000E+03 0.  0.
<mgrwt>
<rscale>  0 0.54299402E+03</rscale>
<asrwt>0</asrwt>
<pdfrwt beam="1">  1        1 0.22240544E+00 0.54299402E+03</pdfrwt>
<pdfrwt beam="2">  1       -1 0.67637666E-02 0.54299402E+03</pdfrwt>
<totfact> 0.85280275E+02</totfact>
</mgrwt>
</event>
<event>
 4    1  0.7145298E-006  0.4511257E+03  0.7818608E-02  0.1027387E+00
          1   -1    0    0  501    0  0.00000000000E+00  0.00000000000E+00  0.44513271372E+04  0.44513271372E+04  0.50400000000E-02 0. -1.
         -1   -1    0    0    0  501 -0.00000000000E+00 -0.00000000000E+00 -0.11429981911E+02  0.11429983022E+02  0.50400000000E-02 0.  1.
    5000001    1    1    2    0    0 -0.85587703744E+02  0.67644878685E+02  0.26747350219E+04  0.26838354126E+04  0.19200000000E+03 0.  0.
   -5000001    1    1    2    0    0  0.85587703744E+02 -0.67644878685E+02  0.17651621334E+04  0.17789217076E+04  0.19200000000E+03 0.  0.
<mgrwt>
<rscale>  0 0.45112566E+03</rscale>
<asrwt>0</asrwt>
<pdfrwt beam="1">  1        1 0.63590265E+00 0.45112566E+03</pdfrwt>
<pdfrwt beam="2">  1       -1 0.16328578E-02 0.45112566E+03</pdfrwt>
<totfact> 0.84864187E+01</totfact>
</mgrwt>
</event>
<event>
 4    1  0.7145298E-006  0.4735378E+03  0.7818608E-02  0.1020926E+00
         -1   -1    0    0    0  501 -0.00000000000E+00  0.00000000000E+00  0.54380648894E+03  0.54380648896E+03  0.50400000000E-02 0. -1.
          1   -1    0    0  501    0  0.00000000000E+00 -0.00000000000E+00 -0.10308723471E+03  0.10308723484E+03  0.50400000000E-02 0.  1.
    5000001    1    1    2    0    0  0.79944842548E+02 -0.11117643401E+03  0.24914907266E+03  0.34306069104E+03  0.19200000000E+03 0.  0.
   -5000001    1    1    2    0    0 -0.79944842548E+02  0.11117643401E+03  0.19157018157E+03  0.30383303276E+03  0.19200000000E+03 0.  0.
<mgrwt>
<rscale>  0 0.47353778E+03</rscale>
<asrwt>0</asrwt>
<pdfrwt beam="1">  1        1 0.14726748E-01 0.47353778E+03</pdfrwt>
<pdfrwt beam="2">  1       -1 0.77686643E-01 0.47353778E+03</pdfrwt>
<totfact> 0.66297518E+02</totfact>
</mgrwt>
</event>
<event>
 4    1  0.7145298E-006  0.6581004E+03  0.7818608E-02  0.9791697E-01
          1   -1    0    0  501    0  0.00000000000E+00  0.00000000000E+00  0.26150897511E+03  0.26150897516E+03  0.50400000000E-02 0.  1.
         -1   -1    0    0    0  501 -0.00000000000E+00 -0.00000000000E+00 -0.41403560143E+03  0.41403560146E+03  0.50400000000E-02 0. -1.
    5000001    1    1    2    0    0 -0.70141572583E+02  0.16303881401E+03 -0.28132982456E+03  0.38407286452E+03  0.19200000000E+03 0.  0.
   -5000001    1    1    2    0    0  0.70141572583E+02 -0.16303881401E+03  0.12880319824E+03  0.29147171210E+03  0.19200000000E+03 0.  0.
<mgrwt>
<rscale>  0 0.65810037E+03</rscale>
<asrwt>0</asrwt>
<pdfrwt beam="1">  1        1 0.37358425E-01 0.65810037E+03</pdfrwt>
<pdfrwt beam="2">  1       -1 0.59147943E-01 0.65810037E+03</pdfrwt>
<totfact> 0.33882488E+02</totfact>
</mgrwt>
</event>
<event>
 4    1  0.7145298E-006  0.5727316E+03  0.7818608E-02  0.9963652E-01
          1   -1    0    0  501    0  0.00000000000E+00  0.00000000000E+00  0.26900358793E+03  0.26900358798E+03  0.50400000000E-02 0.  1.
         -1   -1    0    0    0  501 -0.00000000000E+00 -0.00000000000E+00 -0.30484858950E+03  0.30484858954E+03  0.50400000000E-02 0. -1.
    5000001    1    1    2    0    0 -0.16921114048E+03 -0.78331227280E+02 -0.11997055317E+03  0.29330040037E+03  0.19200000000E+03 0.  0.
   -5000001    1    1    2    0    0  0.16921114048E+03  0.78331227280E+02  0.84125551601E+02  0.28055177715E+03  0.19200000000E+03 0.  0.
<mgrwt>
<rscale>  0 0.57273158E+03</rscale>
<asrwt>0</asrwt>
<pdfrwt beam="1">  1        1 0.38429084E-01 0.57273158E+03</pdfrwt>
<pdfrwt beam="2">  1       -1 0.43549798E-01 0.57273158E+03</pdfrwt>
<totfact> 0.58472621E+02</totfact>
</mgrwt>
</event>
<event>
 4    1  0.7145298E-006  0.5527673E+03  0.7818608E-02  0.1000855E+00
          1   -1    0    0  501    0  0.00000000000E+00  0.00000000000E+00  0.31637360380E+03  0.31637360384E+03  0.50400000000E-02 0.  1.
         -1   -1    0    0    0  501 -0.00000000000E+00 -0.00000000000E+00 -0.24144844502E+03  0.24144844507E+03  0.50400000000E-02 0. -1.
    5000001    1    1    2    0    0  0.10241594310E+03 -0.15240818066E+03 -0.39435527150E+02  0.26858227740E+03  0.19200000000E+03 0.  0.
   -5000001    1    1    2    0    0 -0.10241594310E+03  0.15240818066E+03  0.11436068594E+03  0.28923977151E+03  0.19200000000E+03 0.  0.
<mgrwt>
<rscale>  0 0.55276727E+03</rscale>
<asrwt>0</asrwt>
<pdfrwt beam="1">  1        1 0.45196229E-01 0.55276727E+03</pdfrwt>
<pdfrwt beam="2">  1       -1 0.34492635E-01 0.55276727E+03</pdfrwt>
<totfact> 0.72244072E+02</totfact>
</mgrwt>
</event>
<event>
 4    1  0.7145298E-006  0.5382479E+03  0.7818608E-02  0.1004251E+00
          1   -1    0    0  501    0  0.00000000000E+00  0.00000000000E+00  0.35086184712E+03  0.35086184716E+03  0.50400000000E-02 0.  1.
         -1   -1    0    0    0  501 -0.00000000000E+00 -0.00000000000E+00 -0.20642795784E+03  0.20642795790E+03  0.50400000000E-02 0. -1.
    5000001    1    1    2    0    0  0.11544226964E+02  0.17705629919E+03  0.13836365725E+03  0.29578827547E+03  0.19200000000E+03 0.  0.
   -5000001    1    1    2    0    0 -0.11544226964E+02 -0.17705629919E+03  0.60702320377E+01  0.26150152959E+03  0.19200000000E+03 0.  0.
<mgrwt>
<rscale>  0 0.53824788E+03</rscale>
<asrwt>0</asrwt>
<pdfrwt beam="1">  1        1 0.50123121E-01 0.53824788E+03</pdfrwt>
<pdfrwt beam="2">  1       -1 0.29489708E-01 0.53824788E+03</pdfrwt>
<totfact> 0.83145010E+02</totfact>
</mgrwt>
</event>
<event>
 4    1  0.7145298E-006  0.6645399E+03  0.7818608E-02  0.9779872E-01
         -1   -1    0    0    0  501 -0.00000000000E+00  0.00000000000E+00  0.11049076158E+04  0.11049076158E+04  0.50400000000E-02 0. -1.
          1   -1    0    0  501    0  0.00000000000E+00 -0.00000000000E+00 -0.99920851233E+02  0.99920851360E+02  0.50400000000E-02 0.  1.
    5000001    1    1    2    0    0  0.13640124781E+03  0.18997539767E+03  0.75136955639E+03  0.81000997673E+03  0.19200000000E+03 0.  0.
   -5000001    1    1    2    0    0 -0.13640124781E+03 -0.18997539767E+03  0.25361720820E+03  0.39481849047E+03  0.19200000000E+03 0.  0.
<mgrwt>
<rscale>  0 0.66453987E+03</rscale>
<asrwt>0</asrwt>
<pdfrwt beam="1">  1        1 0.14274408E-01 0.66453987E+03</pdfrwt>
<pdfrwt beam="2">  1       -1 0.15784394E+00 0.66453987E+03</pdfrwt>
<totfact> 0.12787153E+02</totfact>
</mgrwt>
</event>
<event>
 4    1  0.7145298E-006  0.4309835E+03  0.7818608E-02  0.1033550E+00
         -1   -1    0    0    0  501 -0.00000000000E+00  0.00000000000E+00  0.44953981719E+02  0.44953982001E+02  0.50400000000E-02 0. -1.
          1   -1    0    0  501    0  0.00000000000E+00 -0.00000000000E+00 -0.10329831242E+04  0.10329831242E+04  0.50400000000E-02 0.  1.
    5000001    1    1    2    0    0  0.72876851978E+02 -0.51459370036E+02 -0.39354582445E+03  0.44687964628E+03  0.19200000000E+03 0.  0.
   -5000001    1    1    2    0    0 -0.72876851978E+02  0.51459370036E+02 -0.59448331803E+03  0.63105745993E+03  0.19200000000E+03 0.  0.
<mgrwt>
<rscale>  0 0.43098355E+03</rscale>
<asrwt>0</asrwt>
<pdfrwt beam="1">  1        1 0.14756900E+00 0.43098355E+03</pdfrwt>
<pdfrwt beam="2">  1       -1 0.64219980E-02 0.43098355E+03</pdfrwt>
<totfact> 0.20731332E+03</totfact>
</mgrwt>
</event>
<event>
 4    1  0.7145298E-006  0.4971952E+03  0.7818608E-02  0.1014514E+00
          1   -1    0    0  501    0  0.00000000000E+00  0.00000000000E+00  0.22030105337E+04  0.22030105337E+04  0.50400000000E-02 0.  1.
         -1   -1    0    0    0  501 -0.00000000000E+00 -0.00000000000E+00 -0.28052866366E+02  0.28052866819E+02  0.50400000000E-02 0. -1.
    5000001    1    1    2    0    0  0.90247252389E+02 -0.11476789148E+03  0.13574832014E+04  0.13787461251E+04  0.19200000000E+03 0.  0.
   -5000001    1    1    2    0    0 -0.90247252389E+02  0.11476789148E+03  0.81747446588E+03  0.85231727534E+03  0.19200000000E+03 0.  0.
<mgrwt>
<rscale>  0 0.49719518E+03</rscale>
<asrwt>0</asrwt>
<pdfrwt beam="1">  1        1 0.31471579E+00 0.49719518E+03</pdfrwt>
<pdfrwt beam="2">  1       -1 0.40075524E-02 0.49719518E+03</pdfrwt>
<totfact> 0.75673776E+02</totfact>
</mgrwt>
</event>
<event>
 4    1  0.7145298E-006  0.1307639E+04  0.7818608E-02  0.9023529E-01
         -1   -1    0    0    0  501 -0.00000000000E+00  0.00000000000E+00  0.26452804264E+03  0.26452804269E+03  0.50400000000E-02 0. -1.
          1   -1    0    0  501    0  0.00000000000E+00 -0.00000000000E+00 -0.16160100228E+04  0.16160100228E+04  0.50400000000E-02 0.  1.
    5000001    1    1    2    0    0 -0.47330609836E+03 -0.39224351875E+03 -0.51340357343E+03  0.82360237369E+03  0.19200000000E+03 0.  0.
   -5000001    1    1    2    0    0  0.47330609836E+03  0.39224351875E+03 -0.83807840668E+03  0.10569356917E+04  0.19200000000E+03 0.  0.
<mgrwt>
<rscale>  0 0.13076390E+04</rscale>
<asrwt>0</asrwt>
<pdfrwt beam="1">  1        1 0.23085857E+00 0.13076390E+04</pdfrwt>
<pdfrwt beam="2">  1       -1 0.37789721E-01 0.13076390E+04</pdfrwt>
<totfact> 0.43385077E+01</totfact>
</mgrwt>
</event>
<event>
 4    1  0.7145298E-006  0.5080340E+03  0.7818608E-02  0.1011703E+00
         -1   -1    0    0    0  501 -0.00000000000E+00  0.00000000000E+00  0.60352403106E+02  0.60352403316E+02  0.50400000000E-02 0. -1.
          1   -1    0    0  501    0  0.00000000000E+00 -0.00000000000E+00 -0.10691310126E+04  0.10691310126E+04  0.50400000000E-02 0.  1.
    5000001    1    1    2    0    0  0.11794806434E+03 -0.10279389423E+03 -0.37897202977E+03  0.45272743447E+03  0.19200000000E+03 0.  0.
   -5000001    1    1    2    0    0 -0.11794806434E+03  0.10279389423E+03 -0.62980657968E+03  0.67675598141E+03  0.19200000000E+03 0.  0.
<mgrwt>
<rscale>  0 0.50803396E+03</rscale>
<asrwt>0</asrwt>
<pdfrwt beam="1">  1        1 0.15273299E+00 0.50803396E+03</pdfrwt>
<pdfrwt beam="2">  1       -1 0.86217725E-02 0.50803396E+03</pdfrwt>
<totfact> 0.12375054E+03</totfact>
</mgrwt>
</event>
<event>
 4    1  0.7145298E-006  0.7772640E+03  0.7818608E-02  0.9593522E-01
          1   -1    0    0  501    0  0.00000000000E+00  0.00000000000E+00  0.41628580599E+03  0.41628580602E+03  0.50400000000E-02 0. -1.
         -1   -1    0    0    0  501 -0.00000000000E+00 -0.00000000000E+00 -0.36281527624E+03  0.36281527628E+03  0.50400000000E-02 0.  1.
    5000001    1    1    2    0    0  0.20501434347E+03 -0.26419061811E+03  0.75257173591E+02  0.39288065097E+03  0.19200000000E+03 0.  0.
   -5000001    1    1    2    0    0 -0.20501434347E+03  0.26419061811E+03 -0.21786643839E+02  0.38622043133E+03  0.19200000000E+03 0.  0.
<mgrwt>
<rscale>  0 0.77726405E+03</rscale>
<asrwt>0</asrwt>
<pdfrwt beam="1">  1        1 0.59469401E-01 0.77726405E+03</pdfrwt>
<pdfrwt beam="2">  1       -1 0.51830754E-01 0.77726405E+03</pdfrwt>
<totfact> 0.23791535E+02</totfact>
</mgrwt>
</event>
<event>
 4    1  0.7145298E-006  0.1137214E+04  0.7818608E-02  0.9169661E-01
         -1   -1    0    0    0  501 -0.00000000000E+00  0.00000000000E+00  0.23384297086E+03  0.23384297091E+03  0.50400000000E-02 0. -1.
          1   -1    0    0  501    0  0.00000000000E+00 -0.00000000000E+00 -0.13826106125E+04  0.13826106125E+04  0.50400000000E-02 0.  1.
    5000001    1    1    2    0    0 -0.53516369622E+03  0.45007124986E+01 -0.58208247153E+03  0.81369800407E+03  0.19200000000E+03 0.  0.
   -5000001    1    1    2    0    0  0.53516369622E+03 -0.45007124986E+01 -0.56668517014E+03  0.80275557938E+03  0.19200000000E+03 0.  0.
<mgrwt>
<rscale>  0 0.11372137E+04</rscale>
<asrwt>0</asrwt>
<pdfrwt beam="1">  1        1 0.19751580E+00 0.11372137E+04</pdfrwt>
<pdfrwt beam="2">  1       -1 0.33406139E-01 0.11372137E+04</pdfrwt>
<totfact> 0.77839058E+01</totfact>
</mgrwt>
</event>
<event>
 4    1  0.7145298E-006  0.7032833E+03  0.7818608E-02  0.9711634E-01
         -1   -1    0    0    0  501 -0.00000000000E+00  0.00000000000E+00  0.74241347049E+02  0.74241347220E+02  0.50400000000E-02 0. -1.
          1   -1    0    0  501    0  0.00000000000E+00 -0.00000000000E+00 -0.16655389263E+04  0.16655389263E+04  0.50400000000E-02 0.  1.
    5000001    1    1    2    0    0 -0.29092728734E+03  0.43445200276E+02 -0.75563121772E+03  0.83328789091E+03  0.19200000000E+03 0.  0.
   -5000001    1    1    2    0    0  0.29092728734E+03 -0.43445200276E+02 -0.83566636157E+03  0.90649238265E+03  0.19200000000E+03 0.  0.
<mgrwt>
<rscale>  0 0.70328331E+03</rscale>
<asrwt>0</asrwt>
<pdfrwt beam="1">  1        1 0.23793411E+00 0.70328331E+03</pdfrwt>
<pdfrwt beam="2">  1       -1 0.10605908E-01 0.70328331E+03</pdfrwt>
<totfact> 0.35665416E+02</totfact>
</mgrwt>
</event>
<event>
 4    1  0.7145298E-006  0.5189937E+03  0.7818608E-02  0.1008937E+00
         -1   -1    0    0    0  501 -0.00000000000E+00  0.00000000000E+00  0.75682308239E+02  0.75682308407E+02  0.50400000000E-02 0. -1.
          1   -1    0    0  501    0  0.00000000000E+00 -0.00000000000E+00 -0.88975355987E+03  0.88975355988E+03  0.50400000000E-02 0.  1.
    5000001    1    1    2    0    0  0.10555509194E+02 -0.17133132300E+03 -0.34795354358E+03  0.43289895992E+03  0.19200000000E+03 0.  0.
   -5000001    1    1    2    0    0 -0.10555509194E+02  0.17133132300E+03 -0.46611770805E+03  0.53253690836E+03  0.19200000000E+03 0.  0.
<mgrwt>
<rscale>  0 0.51899365E+03</rscale>
<asrwt>0</asrwt>
<pdfrwt beam="1">  1        1 0.12710765E+00 0.51899365E+03</pdfrwt>
<pdfrwt beam="2">  1       -1 0.10811759E-01 0.51899365E+03</pdfrwt>
<totfact> 0.11795855E+03</totfact>
</mgrwt>
</event>
<event>
 4    1  0.7145298E-006  0.5805511E+03  0.7818608E-02  0.9946599E-01
          1   -1    0    0  501    0  0.00000000000E+00  0.00000000000E+00  0.13464033335E+04  0.13464033335E+04  0.50400000000E-02 0. -1.
         -1   -1    0    0    0  501 -0.00000000000E+00 -0.00000000000E+00 -0.62581461390E+02  0.62581461593E+02  0.50400000000E-02 0.  1.
    5000001    1    1    2    0    0  0.80738023584E+02  0.18611148680E+03  0.45019848689E+03  0.52981014672E+03  0.19200000000E+03 0.  0.
   -5000001    1    1    2    0    0 -0.80738023584E+02 -0.18611148680E+03  0.83362338522E+03  0.87917464839E+03  0.19200000000E+03 0.  0.
<mgrwt>
<rscale>  0 0.58055108E+03</rscale>
<asrwt>0</asrwt>
<pdfrwt beam="1">  1        1 0.19234333E+00 0.58055108E+03</pdfrwt>
<pdfrwt beam="2">  1       -1 0.89402087E-02 0.58055108E+03</pdfrwt>
<totfact> 0.75418637E+02</totfact>
</mgrwt>
</event>
<event>
 4    1  0.7145298E-006  0.4608227E+03  0.7818608E-02  0.1024543E+00
         -1   -1    0    0    0  501 -0.00000000000E+00  0.00000000000E+00  0.36419601464E+02  0.36419601812E+02  0.50400000000E-02 0. -1.
          1   -1    0    0  501    0  0.00000000000E+00 -0.00000000000E+00 -0.14577149881E+04  0.14577149881E+04  0.50400000000E-02 0.  1.
    5000001    1    1    2    0    0  0.12375423938E+03 -0.14991101865E+02 -0.62575374291E+03  0.66631193270E+03  0.19200000000E+03 0.  0.
   -5000001    1    1    2    0    0 -0.12375423938E+03  0.14991101865E+02 -0.79554164376E+03  0.82782265725E+03  0.19200000000E+03 0.  0.
<mgrwt>
<rscale>  0 0.46082274E+03</rscale>
<asrwt>0</asrwt>
<pdfrwt beam="1">  1        1 0.20824496E+00 0.46082274E+03</pdfrwt>
<pdfrwt beam="2">  1       -1 0.52028012E-02 0.46082274E+03</pdfrwt>
<totfact> 0.14797006E+03</totfact>
</mgrwt>
</event>
<event>
 4    1  0.7145298E-006  0.1340327E+04  0.7818608E-02  0.8998183E-01
          1   -1    0    0  501    0  0.00000000000E+00  0.00000000000E+00  0.67841678245E+03  0.67841678247E+03  0.50400000000E-02 0.  1.
         -1   -1    0    0    0  501 -0.00000000000E+00 -0.00000000000E+00 -0.66201027298E+03  0.66201027300E+03  0.50400000000E-02 0. -1.
    5000001    1    1    2    0    0 -0.49749719092E+03 -0.19746061464E+03 -0.34645090543E+03  0.66587264486E+03  0.19200000000E+03 0.  0.
   -5000001    1    1    2    0    0  0.49749719092E+03  0.19746061464E+03  0.36285741490E+03  0.67455441060E+03  0.19200000000E+03 0.  0.
<mgrwt>
<rscale>  0 0.13403266E+04</rscale>
<asrwt>0</asrwt>
<pdfrwt beam="1">  1        1 0.96916683E-01 0.13403266E+04</pdfrwt>
<pdfrwt beam="2">  1       -1 0.94572896E-01 0.13403266E+04</pdfrwt>
<totfact> 0.33878411E+01</totfact>
</mgrwt>
</event>
<event>
 4    1  0.7145298E-006  0.9204269E+03  0.7818608E-02  0.9400401E-01
          1   -1    0    0  501    0  0.00000000000E+00  0.00000000000E+00  0.22376355029E+03  0.22376355035E+03  0.50400000000E-02 0.  1.
         -1   -1    0    0    0  501 -0.00000000000E+00 -0.00000000000E+00 -0.94651882700E+03  0.94651882701E+03  0.50400000000E-02 0. -1.
    5000001    1    1    2    0    0 -0.19034350426E+03 -0.37998375743E+02  0.10967563234E+03  0.29422316445E+03  0.19200000000E+03 0.  0.
   -5000001    1    1    2    0    0  0.19034350426E+03  0.37998375743E+02 -0.83243090905E+03  0.87605921291E+03  0.19200000000E+03 0.  0.
<mgrwt>
<rscale>  0 0.92042689E+03</rscale>
<asrwt>0</asrwt>
<pdfrwt beam="1">  1        1 0.31966222E-01 0.92042689E+03</pdfrwt>
<pdfrwt beam="2">  1       -1 0.13521697E+00 0.92042689E+03</pdfrwt>
<totfact> 0.65390497E+01</totfact>
</mgrwt>
</event>
<event>
 4    1  0.7145298E-006  0.4868474E+03  0.7818608E-02  0.1017270E+00
         -1   -1    0    0    0  501 -0.00000000000E+00  0.00000000000E+00  0.60854858922E+02  0.60854859131E+02  0.50400000000E-02 0. -1.
          1   -1    0    0  501    0  0.00000000000E+00 -0.00000000000E+00 -0.97371184138E+03  0.97371184139E+03  0.50400000000E-02 0.  1.
    5000001    1    1    2    0    0 -0.66583788361E+02 -0.12366595468E+03 -0.56611863571E+03  0.61406919717E+03  0.19200000000E+03 0.  0.
   -5000001    1    1    2    0    0  0.66583788361E+02  0.12366595468E+03 -0.34673834675E+03  0.42049750335E+03  0.19200000000E+03 0.  0.
<mgrwt>
<rscale>  0 0.48684740E+03</rscale>
<asrwt>0</asrwt>
<pdfrwt beam="1">  1        1 0.13910168E+00 0.48684740E+03</pdfrwt>
<pdfrwt beam="2">  1       -1 0.86935519E-02 0.48684740E+03</pdfrwt>
<totfact> 0.14340998E+03</totfact>
</mgrwt>
</event>
<event>
 4    1  0.7145298E-006  0.4361848E+03  0.7818608E-02  0.1031924E+00
         -1   -1    0    0    0  501 -0.00000000000E+00  0.00000000000E+00  0.89846812865E+02  0.89846813007E+02  0.50400000000E-02 0. -1.
          1   -1    0    0  501    0  0.00000000000E+00 -0.00000000000E+00 -0.52939312964E+03  0.52939312966E+03  0.50400000000E-02 0.  1.
    5000001    1    1    2    0    0 -0.86023094678E+02 -0.56369002993E+02 -0.20403793726E+03  0.29845086222E+03  0.19200000000E+03 0.  0.
   -5000001    1    1    2    0    0  0.86023094678E+02  0.56369002993E+02 -0.23550837951E+03  0.32078908045E+03  0.19200000000E+03 0.  0.
<mgrwt>
<rscale>  0 0.43618476E+03</rscale>
<asrwt>0</asrwt>
<pdfrwt beam="1">  1        1 0.75627588E-01 0.43618476E+03</pdfrwt>
<pdfrwt beam="2">  1       -1 0.12835259E-01 0.43618476E+03</pdfrwt>
<totfact> 0.19123897E+03</totfact>
</mgrwt>
</event>
<event>
 4    1  0.7145298E-006  0.5877549E+03  0.7818608E-02  0.9931142E-01
         -1   -1    0    0    0  501 -0.00000000000E+00  0.00000000000E+00  0.14237998159E+03  0.14237998168E+03  0.50400000000E-02 0. -1.
          1   -1    0    0  501    0  0.00000000000E+00 -0.00000000000E+00 -0.60657369617E+03  0.60657369619E+03  0.50400000000E-02 0.  1.
    5000001    1    1    2    0    0  0.12305762199E+03  0.18157157749E+03 -0.18461395822E+03  0.34504743102E+03  0.19200000000E+03 0.  0.
   -5000001    1    1    2    0    0 -0.12305762199E+03 -0.18157157749E+03 -0.27957975636E+03  0.40390624685E+03  0.19200000000E+03 0.  0.
<mgrwt>
<rscale>  0 0.58775489E+03</rscale>
<asrwt>0</asrwt>
<pdfrwt beam="1">  1        1 0.86653384E-01 0.58775489E+03</pdfrwt>
<pdfrwt beam="2">  1       -1 0.20339998E-01 0.58775489E+03</pdfrwt>
<totfact> 0.75047836E+02</totfact>
</mgrwt>
</event>
<event>
 4    1  0.7145298E-006  0.5370038E+03  0.7818608E-02  0.1004548E+00
          1   -1    0    0  501    0  0.00000000000E+00  0.00000000000E+00  0.92075829777E+03  0.92075829778E+03  0.50400000000E-02 0.  1.
         -1   -1    0    0    0  501 -0.00000000000E+00 -0.00000000000E+00 -0.78297707261E+02  0.78297707423E+02  0.50400000000E-02 0. -1.
    5000001    1    1    2    0    0  0.14128483589E+03 -0.11157257725E+03  0.52001558969E+03  0.58282935613E+03  0.19200000000E+03 0.  0.
   -5000001    1    1    2    0    0 -0.14128483589E+03  0.11157257725E+03  0.32244500082E+03  0.41622664907E+03  0.19200000000E+03 0.  0.
<mgrwt>
<rscale>  0 0.53700378E+03</rscale>
<asrwt>0</asrwt>
<pdfrwt beam="1">  1        1 0.13153689E+00 0.53700378E+03</pdfrwt>
<pdfrwt beam="2">  1       -1 0.11185387E-01 0.53700378E+03</pdfrwt>
<totfact> 0.10573616E+03</totfact>
</mgrwt>
</event>
<event>
 4    1  0.7145298E-006  0.6634393E+03  0.7818608E-02  0.9781883E-01
         -1   -1    0    0    0  501 -0.00000000000E+00  0.00000000000E+00  0.11429529542E+03  0.11429529554E+03  0.50400000000E-02 0. -1.
          1   -1    0    0  501    0  0.00000000000E+00 -0.00000000000E+00 -0.96275101850E+03  0.96275101851E+03  0.50400000000E-02 0.  1.
    5000001    1    1    2    0    0  0.25026205838E+03  0.66236375714E+02 -0.55159778400E+03  0.63886029040E+03  0.19200000000E+03 0.  0.
   -5000001    1    1    2    0    0 -0.25026205838E+03 -0.66236375714E+02 -0.29685793907E+03  0.43818602365E+03  0.19200000000E+03 0.  0.
<mgrwt>
<rscale>  0 0.66343926E+03</rscale>
<asrwt>0</asrwt>
<pdfrwt beam="1">  1        1 0.13753585E+00 0.66343926E+03</pdfrwt>
<pdfrwt beam="2">  1       -1 0.16327900E-01 0.66343926E+03</pdfrwt>
<totfact> 0.53254361E+02</totfact>
</mgrwt>
</event>
<event>
 4    1  0.7145298E-006  0.4820039E+03  0.7818608E-02  0.1018586E+00
         -1   -1    0    0    0  501 -0.00000000000E+00  0.00000000000E+00  0.88531137976E+02  0.88531138119E+02  0.50400000000E-02 0. -1.
          1   -1    0    0  501    0  0.00000000000E+00 -0.00000000000E+00 -0.65606231695E+03  0.65606231697E+03  0.50400000000E-02 0.  1.
    5000001    1    1    2    0    0  0.58497754307E+02 -0.10723664745E+03 -0.40634284625E+03  0.46572544971E+03  0.19200000000E+03 0.  0.
   -5000001    1    1    2    0    0 -0.58497754307E+02  0.10723664745E+03 -0.16118833273E+03  0.27886800538E+03  0.19200000000E+03 0.  0.
<mgrwt>
<rscale>  0 0.48200392E+03</rscale>
<asrwt>0</asrwt>
<pdfrwt beam="1">  1        1 0.93723185E-01 0.48200392E+03</pdfrwt>
<pdfrwt beam="2">  1       -1 0.12647306E-01 0.48200392E+03</pdfrwt>
<totfact> 0.14554515E+03</totfact>
</mgrwt>
</event>
<event>
 4    1  0.7145298E-006  0.1191072E+04  0.7818608E-02  0.9120707E-01
          1   -1    0    0  501    0  0.00000000000E+00  0.00000000000E+00  0.18420728933E+04  0.18420728933E+04  0.50400000000E-02 0.  1.
         -1   -1    0    0    0  501 -0.00000000000E+00 -0.00000000000E+00 -0.19253492568E+03  0.19253492574E+03  0.50400000000E-02 0. -1.
    5000001    1    1    2    0    0  0.28548531943E+02 -0.40187911896E+03  0.14983290840E+04  0.15633860332E+04  0.19200000000E+03 0.  0.
   -5000001    1    1    2    0    0 -0.28548531943E+02  0.40187911896E+03  0.15120888361E+03  0.47122178580E+03  0.19200000000E+03 0.  0.
<mgrwt>
<rscale>  0 0.11910724E+04</rscale>
<asrwt>0</asrwt>
<pdfrwt beam="1">  1        1 0.26315326E+00 0.11910724E+04</pdfrwt>
<pdfrwt beam="2">  1       -1 0.27504990E-01 0.11910724E+04</pdfrwt>
<totfact> 0.55167058E+01</totfact>
</mgrwt>
</event>
<event>
 4    1  0.7145298E-006  0.6925146E+03  0.7818608E-02  0.9730120E-01
          1   -1    0    0  501    0  0.00000000000E+00  0.00000000000E+00  0.80994985190E+03  0.80994985192E+03  0.50400000000E-02 0.  1.
         -1   -1    0    0    0  501 -0.00000000000E+00 -0.00000000000E+00 -0.14802657651E+03  0.14802657660E+03  0.50400000000E-02 0. -1.
    5000001    1    1    2    0    0  0.13148198800E+03 -0.22575278722E+03  0.16279582586E+03  0.36279238557E+03  0.19200000000E+03 0.  0.
   -5000001    1    1    2    0    0 -0.13148198800E+03  0.22575278722E+03  0.49912744953E+03  0.59518404295E+03  0.19200000000E+03 0.  0.
<mgrwt>
<rscale>  0 0.69251456E+03</rscale>
<asrwt>0</asrwt>
<pdfrwt beam="1">  1        1 0.11570712E+00 0.69251456E+03</pdfrwt>
<pdfrwt beam="2">  1       -1 0.21146654E-01 0.69251456E+03</pdfrwt>
<totfact> 0.45822126E+02</totfact>
</mgrwt>
</event>
<event>
 4    1  0.7145298E-006  0.4881193E+03  0.7818608E-02  0.1016927E+00
         -1   -1    0    0    0  501 -0.00000000000E+00  0.00000000000E+00  0.26068718802E+02  0.26068719289E+02  0.50400000000E-02 0.  1.
          1   -1    0    0  501    0  0.00000000000E+00 -0.00000000000E+00 -0.22849266751E+04  0.22849266751E+04  0.50400000000E-02 0. -1.
    5000001    1    1    2    0    0 -0.11177788307E+03 -0.38279731073E+02 -0.15720841612E+04  0.15881663146E+04  0.19200000000E+03 0.  0.
   -5000001    1    1    2    0    0  0.11177788307E+03  0.38279731073E+02 -0.68677379510E+03  0.72282907979E+03  0.19200000000E+03 0.  0.
<mgrwt>
<rscale>  0 0.48811930E+03</rscale>
<asrwt>0</asrwt>
<pdfrwt beam="1">  1        1 0.32641797E+00 0.48811930E+03</pdfrwt>
<pdfrwt beam="2">  1       -1 0.37241042E-02 0.48811930E+03</pdfrwt>
<totfact> 0.75336731E+02</totfact>
</mgrwt>
</event>
<event>
 4    1  0.7145298E-006  0.5669515E+03  0.7818608E-02  0.9976447E-01
          1   -1    0    0  501    0  0.00000000000E+00  0.00000000000E+00  0.82559527317E+03  0.82559527318E+03  0.50400000000E-02 0.  1.
         -1   -1    0    0    0  501 -0.00000000000E+00 -0.00000000000E+00 -0.97334028261E+02  0.97334028391E+02  0.50400000000E-02 0. -1.
    5000001    1    1    2    0    0  0.14438114992E+03 -0.13739297652E+03  0.26415481175E+03  0.38257615062E+03  0.19200000000E+03 0.  0.
   -5000001    1    1    2    0    0 -0.14438114992E+03  0.13739297652E+03  0.46410643316E+03  0.54035315096E+03  0.19200000000E+03 0.  0.
<mgrwt>
<rscale>  0 0.56695155E+03</rscale>
<asrwt>0</asrwt>
<pdfrwt beam="1">  1        1 0.11794218E+00 0.56695155E+03</pdfrwt>
<pdfrwt beam="2">  1       -1 0.13904862E-01 0.56695155E+03</pdfrwt>
<totfact> 0.88794659E+02</totfact>
</mgrwt>
</event>
<event>
 4    1  0.7145298E-006  0.1020548E+04  0.7818608E-02  0.9286291E-01
          1   -1    0    0  501    0  0.00000000000E+00  0.00000000000E+00  0.24548719974E+04  0.24548719974E+04  0.50400000000E-02 0.  1.
         -1   -1    0    0    0  501 -0.00000000000E+00 -0.00000000000E+00 -0.10606646921E+03  0.10606646933E+03  0.50400000000E-02 0. -1.
    5000001    1    1    2    0    0  0.47325053150E+02 -0.45466005391E+03  0.14771979999E+04  0.15581827095E+04  0.19200000000E+03 0.  0.
   -5000001    1    1    2    0    0 -0.47325053150E+02  0.45466005391E+03  0.87160752826E+03  0.10027557572E+04  0.19200000000E+03 0.  0.
<mgrwt>
<rscale>  0 0.10205481E+04</rscale>
<asrwt>0</asrwt>
<pdfrwt beam="1">  1        1 0.35069602E+00 0.10205481E+04</pdfrwt>
<pdfrwt beam="2">  1       -1 0.15152352E-01 0.10205481E+04</pdfrwt>
<totfact> 0.62849790E+01</totfact>
</mgrwt>
</event>
<event>
 4    1  0.7145298E-006  0.5814501E+03  0.7818608E-02  0.9944657E-01
         -1   -1    0    0    0  501 -0.00000000000E+00  0.00000000000E+00  0.24539154428E+02  0.24539154946E+02  0.50400000000E-02 0. -1.
          1   -1    0    0  501    0  0.00000000000E+00 -0.00000000000E+00 -0.34443343300E+04  0.34443343300E+04  0.50400000000E-02 0.  1.
    5000001    1    1    2    0    0  0.17548274586E+03  0.10116046931E+03 -0.12241465617E+04  0.12555582182E+04  0.19200000000E+03 0.  0.
   -5000001    1    1    2    0    0 -0.17548274586E+03 -0.10116046931E+03 -0.21956486139E+04  0.22133152668E+04  0.19200000000E+03 0.  0.
<mgrwt>
<rscale>  0 0.58145009E+03</rscale>
<asrwt>0</asrwt>
<pdfrwt beam="1">  1        1 0.49204745E+00 0.58145009E+03</pdfrwt>
<pdfrwt beam="2">  1       -1 0.35055957E-02 0.58145009E+03</pdfrwt>
<totfact> 0.14781892E+02</totfact>
</mgrwt>
</event>
<event>
 4    1  0.7145298E-006  0.6629447E+03  0.7818608E-02  0.9782788E-01
         -1   -1    0    0    0  501 -0.00000000000E+00  0.00000000000E+00  0.10806269982E+03  0.10806269994E+03  0.50400000000E-02 0. -1.
          1   -1    0    0  501    0  0.00000000000E+00 -0.00000000000E+00 -0.10167608970E+04  0.10167608971E+04  0.50400000000E-02 0.  1.
    5000001    1    1    2    0    0 -0.12454594495E+03 -0.21197747607E+03 -0.64453019403E+03  0.71605119495E+03  0.19200000000E+03 0.  0.
   -5000001    1    1    2    0    0  0.12454594495E+03  0.21197747607E+03 -0.26416800319E+03  0.40877240205E+03  0.19200000000E+03 0.  0.
<mgrwt>
<rscale>  0 0.66294473E+03</rscale>
<asrwt>0</asrwt>
<pdfrwt beam="1">  1        1 0.14525155E+00 0.66294473E+03</pdfrwt>
<pdfrwt beam="2">  1       -1 0.15437529E-01 0.66294473E+03</pdfrwt>
<totfact> 0.53184626E+02</totfact>
</mgrwt>
</event>
<event>
 4    1  0.7145298E-006  0.8646335E+03  0.7818608E-02  0.9470904E-01
         -1   -1    0    0    0  501 -0.00000000000E+00  0.00000000000E+00  0.11118249933E+04  0.11118249934E+04  0.50400000000E-02 0. -1.
          1   -1    0    0  501    0  0.00000000000E+00 -0.00000000000E+00 -0.16809997748E+03  0.16809997755E+03  0.50400000000E-02 0.  1.
    5000001    1    1    2    0    0  0.28958899209E+02 -0.36029620066E+03  0.26577608872E+03  0.48800911814E+03  0.19200000000E+03 0.  0.
   -5000001    1    1    2    0    0 -0.28958899209E+02  0.36029620066E+03  0.67794892714E+03  0.79191585276E+03  0.19200000000E+03 0.  0.
<mgrwt>
<rscale>  0 0.86463346E+03</rscale>
<asrwt>0</asrwt>
<pdfrwt beam="1">  1        1 0.24014282E-01 0.86463346E+03</pdfrwt>
<pdfrwt beam="2">  1       -1 0.15883215E+00 0.86463346E+03</pdfrwt>
<totfact> 0.62100679E+01</totfact>
</mgrwt>
</event>
<event>
 4    1  0.7145298E-006  0.4463527E+03  0.7818608E-02  0.1028815E+00
         -1   -1    0    0    0  501 -0.00000000000E+00  0.00000000000E+00  0.33044141159E+02  0.33044141543E+02  0.50400000000E-02 0. -1.
          1   -1    0    0  501    0  0.00000000000E+00 -0.00000000000E+00 -0.15073076425E+04  0.15073076425E+04  0.50400000000E-02 0.  1.
    5000001    1    1    2    0    0 -0.10322041538E+03 -0.79278994047E+01 -0.89996439835E+03  0.92602225894E+03  0.19200000000E+03 0.  0.
   -5000001    1    1    2    0    0  0.10322041538E+03  0.79278994047E+01 -0.57429910301E+03  0.61432952514E+03  0.19200000000E+03 0.  0.
<mgrwt>
<rscale>  0 0.44635272E+03</rscale>
<asrwt>0</asrwt>
<pdfrwt beam="1">  1        1 0.21532962E+00 0.44635272E+03</pdfrwt>
<pdfrwt beam="2">  1       -1 0.47205926E-02 0.44635272E+03</pdfrwt>
<totfact> 0.15956573E+03</totfact>
</mgrwt>
</event>
<event>
 4    1  0.7145298E-006  0.5742774E+03  0.7818608E-02  0.9960258E-01
         -1   -1    0    0    0  501 -0.00000000000E+00  0.00000000000E+00  0.12595879889E+03  0.12595879900E+03  0.50400000000E-02 0. -1.
          1   -1    0    0  501    0  0.00000000000E+00 -0.00000000000E+00 -0.65456823497E+03  0.65456823499E+03  0.50400000000E-02 0.  1.
    5000001    1    1    2    0    0  0.11307438596E+03 -0.17999991046E+03 -0.23716109150E+03  0.37188058278E+03  0.19200000000E+03 0.  0.
   -5000001    1    1    2    0    0 -0.11307438596E+03  0.17999991046E+03 -0.29144834457E+03  0.40864645120E+03  0.19200000000E+03 0.  0.
<mgrwt>
<rscale>  0 0.57427738E+03</rscale>
<asrwt>0</asrwt>
<pdfrwt beam="1">  1        1 0.93509747E-01 0.57427738E+03</pdfrwt>
<pdfrwt beam="2">  1       -1 0.17994114E-01 0.57427738E+03</pdfrwt>
<totfact> 0.82501037E+02</totfact>
</mgrwt>
</event>
<event>
 4    1  0.7145298E-006  0.8641714E+03  0.7818608E-02  0.9471512E-01
          1   -1    0    0  501    0  0.00000000000E+00  0.00000000000E+00  0.26463008775E+04  0.26463008775E+04  0.50400000000E-02 0.  1.
         -1   -1    0    0    0  501 -0.00000000000E+00 -0.00000000000E+00 -0.70550572063E+02  0.70550572243E+02  0.50400000000E-02 0. -1.
    5000001    1    1    2    0    0  0.34851837259E+03 -0.13352807583E+03  0.16106284009E+04  0.16644166092E+04  0.19200000000E+03 0.  0.
   -5000001    1    1    2    0    0 -0.34851837259E+03  0.13352807583E+03  0.96512190455E+03  0.10524348406E+04  0.19200000000E+03 0.  0.
<mgrwt>
<rscale>  0 0.86417137E+03</rscale>
<asrwt>0</asrwt>
<pdfrwt beam="1">  1        1 0.37804306E+00 0.86417137E+03</pdfrwt>
<pdfrwt beam="2">  1       -1 0.10078651E-01 0.86417137E+03</pdfrwt>
<totfact> 0.93057294E+01</totfact>
</mgrwt>
</event>
<event>
 4    1  0.7145298E-006  0.8281952E+03  0.7818608E-02  0.9520079E-01
          1   -1    0    0  501    0  0.00000000000E+00  0.00000000000E+00  0.84166842494E+03  0.84166842496E+03  0.50400000000E-02 0.  1.
         -1   -1    0    0    0  501 -0.00000000000E+00 -0.00000000000E+00 -0.20373441015E+03  0.20373441021E+03  0.50400000000E-02 0. -1.
    5000001    1    1    2    0    0  0.29803476395E+03 -0.13512276157E+03  0.52840409555E+03  0.65050577969E+03  0.19200000000E+03 0.  0.
   -5000001    1    1    2    0    0 -0.29803476395E+03  0.13512276157E+03  0.10952991924E+03  0.39489705548E+03  0.19200000000E+03 0.  0.
<mgrwt>
<rscale>  0 0.82819519E+03</rscale>
<asrwt>0</asrwt>
<pdfrwt beam="1">  1        1 0.12023835E+00 0.82819519E+03</pdfrwt>
<pdfrwt beam="2">  1       -1 0.29104915E-01 0.82819519E+03</pdfrwt>
<totfact> 0.24880865E+02</totfact>
</mgrwt>
</event>
<event>
 4    1  0.7145298E-006  0.6744368E+03  0.7818608E-02  0.9761976E-01
          1   -1    0    0  501    0  0.00000000000E+00  0.00000000000E+00  0.21547311625E+03  0.21547311631E+03  0.50400000000E-02 0.  1.
         -1   -1    0    0    0  501 -0.00000000000E+00 -0.00000000000E+00 -0.52775137465E+03  0.52775137468E+03  0.50400000000E-02 0. -1.
    5000001    1    1    2    0    0  0.19399012825E+03 -0.19664340080E+03 -0.18201687823E+03  0.38248521658E+03  0.19200000000E+03 0.  0.
   -5000001    1    1    2    0    0 -0.19399012825E+03  0.19664340080E+03 -0.13026138017E+03  0.36073927441E+03  0.19200000000E+03 0.  0.
<mgrwt>
<rscale>  0 0.67443675E+03</rscale>
<asrwt>0</asrwt>
<pdfrwt beam="1">  1        1 0.30781874E-01 0.67443675E+03</pdfrwt>
<pdfrwt beam="2">  1       -1 0.75393053E-01 0.67443675E+03</pdfrwt>
<totfact> 0.26647299E+02</totfact>
</mgrwt>
</event>
<event>
 4    1  0.7145298E-006  0.7254697E+03  0.7818608E-02  0.9674640E-01
         -1   -1    0    0    0  501 -0.00000000000E+00  0.00000000000E+00  0.12221293590E+03  0.12221293600E+03  0.50400000000E-02 0. -1.
          1   -1    0    0  501    0  0.00000000000E+00 -0.00000000000E+00 -0.10766173054E+04  0.10766173054E+04  0.50400000000E-02 0.  1.
    5000001    1    1    2    0    0 -0.11487131841E+03 -0.28351157102E+03 -0.53295576070E+03  0.64380126868E+03  0.19200000000E+03 0.  0.
   -5000001    1    1    2    0    0  0.11487131841E+03  0.28351157102E+03 -0.42144860876E+03  0.55502897269E+03  0.19200000000E+03 0.  0.
<mgrwt>
<rscale>  0 0.72546967E+03</rscale>
<asrwt>0</asrwt>
<pdfrwt beam="1">  1        1 0.15380247E+00 0.72546967E+03</pdfrwt>
<pdfrwt beam="2">  1       -1 0.17458991E-01 0.72546967E+03</pdfrwt>
<totfact> 0.39229587E+02</totfact>
</mgrwt>
</event>
<event>
 4    1  0.7145298E-006  0.9848663E+03  0.7818608E-02  0.9325301E-01
          1   -1    0    0  501    0  0.00000000000E+00  0.00000000000E+00  0.25303750791E+04  0.25303750791E+04  0.50400000000E-02 0. -1.
         -1   -1    0    0    0  501 -0.00000000000E+00 -0.00000000000E+00 -0.95831793909E+02  0.95831794041E+02  0.50400000000E-02 0.  1.
    5000001    1    1    2    0    0 -0.40646934995E+03  0.17738177505E+03  0.14694663360E+04  0.15468926721E+04  0.19200000000E+03 0.  0.
   -5000001    1    1    2    0    0  0.40646934995E+03 -0.17738177505E+03  0.96507694919E+03  0.10793142010E+04  0.19200000000E+03 0.  0.
<mgrwt>
<rscale>  0 0.98486625E+03</rscale>
<asrwt>0</asrwt>
<pdfrwt beam="1">  1        1 0.36148215E+00 0.98486625E+03</pdfrwt>
<pdfrwt beam="2">  1       -1 0.13690256E-01 0.98486625E+03</pdfrwt>
<totfact> 0.66657731E+01</totfact>
</mgrwt>
</event>
<event>
 4    1  0.7145298E-006  0.4466778E+03  0.7818608E-02  0.1028717E+00
          1   -1    0    0  501    0  0.00000000000E+00  0.00000000000E+00  0.11982660018E+03  0.11982660029E+03  0.50400000000E-02 0.  1.
         -1   -1    0    0    0  501 -0.00000000000E+00 -0.00000000000E+00 -0.41627028991E+03  0.41627028994E+03  0.50400000000E-02 0. -1.
    5000001    1    1    2    0    0  0.42949094781E+02  0.10243792653E+03 -0.17947514408E+03  0.28533047660E+03  0.19200000000E+03 0.  0.
   -5000001    1    1    2    0    0 -0.42949094781E+02 -0.10243792653E+03 -0.11696854564E+03  0.25076641363E+03  0.19200000000E+03 0.  0.
<mgrwt>
<rscale>  0 0.44667775E+03</rscale>
<asrwt>0</asrwt>
<pdfrwt beam="1">  1        1 0.17118086E-01 0.44667775E+03</pdfrwt>
<pdfrwt beam="2">  1       -1 0.59467184E-01 0.44667775E+03</pdfrwt>
<totfact> 0.92936468E+02</totfact>
</mgrwt>
</event>
<event>
 4    1  0.7145298E-006  0.4718630E+03  0.7818608E-02  0.1021396E+00
         -1   -1    0    0    0  501 -0.00000000000E+00  0.00000000000E+00  0.36575317641E+02  0.36575317988E+02  0.50400000000E-02 0. -1.
          1   -1    0    0  501    0  0.00000000000E+00 -0.00000000000E+00 -0.15218919549E+04  0.15218919549E+04  0.50400000000E-02 0.  1.
    5000001    1    1    2    0    0 -0.10602332474E+01 -0.10488061781E+03 -0.10343274274E+04  0.10572125118E+04  0.19200000000E+03 0.  0.
   -5000001    1    1    2    0    0  0.10602332474E+01  0.10488061781E+03 -0.45098920985E+03  0.50125476106E+03  0.19200000000E+03 0.  0.
<mgrwt>
<rscale>  0 0.47186304E+03</rscale>
<asrwt>0</asrwt>
<pdfrwt beam="1">  1        1 0.21741310E+00 0.47186304E+03</pdfrwt>
<pdfrwt beam="2">  1       -1 0.52250464E-02 0.47186304E+03</pdfrwt>
<totfact> 0.13374935E+03</totfact>
</mgrwt>
</event>
<event>
 4    1  0.7145298E-006  0.1019710E+04  0.7818608E-02  0.9287187E-01
          1   -1    0    0  501    0  0.00000000000E+00  0.00000000000E+00  0.12653381128E+04  0.12653381128E+04  0.50400000000E-02 0.  1.
         -1   -1    0    0    0  501 -0.00000000000E+00 -0.00000000000E+00 -0.20544088264E+03  0.20544088270E+03  0.50400000000E-02 0. -1.
    5000001    1    1    2    0    0 -0.41372647571E+02  0.42372181440E+03  0.82496583230E+03  0.94798971325E+03  0.19200000000E+03 0.  0.
   -5000001    1    1    2    0    0  0.41372647571E+02 -0.42372181440E+03  0.23493139790E+03  0.52278928230E+03  0.19200000000E+03 0.  0.
<mgrwt>
<rscale>  0 0.10197101E+04</rscale>
<asrwt>0</asrwt>
<pdfrwt beam="1">  1        1 0.18076258E+00 0.10197101E+04</pdfrwt>
<pdfrwt beam="2">  1       -1 0.29348698E-01 0.10197101E+04</pdfrwt>
<totfact> 0.11819911E+02</totfact>
</mgrwt>
</event>
<event>
 4    1  0.7145298E-006  0.6795051E+03  0.7818608E-02  0.9752938E-01
          1   -1    0    0  501    0  0.00000000000E+00  0.00000000000E+00  0.21260495006E+03  0.21260495012E+03  0.50400000000E-02 0.  1.
         -1   -1    0    0    0  501 -0.00000000000E+00 -0.00000000000E+00 -0.54294024024E+03  0.54294024027E+03  0.50400000000E-02 0. -1.
    5000001    1    1    2    0    0 -0.98187799513E+02 -0.17288904259E+03 -0.38485353818E+03  0.47382244656E+03  0.19200000000E+03 0.  0.
   -5000001    1    1    2    0    0  0.98187799513E+02  0.17288904259E+03  0.54518247995E+02  0.28172274382E+03  0.19200000000E+03 0.  0.
<mgrwt>
<rscale>  0 0.67950506E+03</rscale>
<asrwt>0</asrwt>
<pdfrwt beam="1">  1        1 0.30372136E-01 0.67950506E+03</pdfrwt>
<pdfrwt beam="2">  1       -1 0.77562891E-01 0.67950506E+03</pdfrwt>
<totfact> 0.25547094E+02</totfact>
</mgrwt>
</event>
<event>
 4    1  0.7145298E-006  0.4132970E+03  0.7818608E-02  0.1039270E+00
          1   -1    0    0  501    0  0.00000000000E+00  0.00000000000E+00  0.70757360945E+02  0.70757361124E+02  0.50400000000E-02 0.  1.
         -1   -1    0    0    0  501 -0.00000000000E+00 -0.00000000000E+00 -0.60352176148E+03  0.60352176151E+03  0.50400000000E-02 0. -1.
    5000001    1    1    2    0    0  0.10815179792E+02 -0.43820035932E+02 -0.16577968883E+03  0.25765106033E+03  0.19200000000E+03 0.  0.
   -5000001    1    1    2    0    0 -0.10815179792E+02  0.43820035932E+02 -0.36698471171E+03  0.41662806229E+03  0.19200000000E+03 0.  0.
<mgrwt>
<rscale>  0 0.41329702E+03</rscale>
<asrwt>0</asrwt>
<pdfrwt beam="1">  1        1 0.10108195E-01 0.41329702E+03</pdfrwt>
<pdfrwt beam="2">  1       -1 0.86217392E-01 0.41329702E+03</pdfrwt>
<totfact> 0.88401067E+02</totfact>
</mgrwt>
</event>
<event>
 4    1  0.7145298E-006  0.4684500E+03  0.7818608E-02  0.1022359E+00
         -1   -1    0    0    0  501 -0.00000000000E+00  0.00000000000E+00  0.44504701688E+02  0.44504701974E+02  0.50400000000E-02 0.  1.
          1   -1    0    0  501    0  0.00000000000E+00 -0.00000000000E+00 -0.12327090910E+04  0.12327090910E+04  0.50400000000E-02 0. -1.
    5000001    1    1    2    0    0 -0.13654606779E+02  0.11391760283E+03 -0.40454538264E+03  0.46226035428E+03  0.19200000000E+03 0.  0.
   -5000001    1    1    2    0    0  0.13654606779E+02 -0.11391760283E+03 -0.78365900665E+03  0.81495343868E+03  0.19200000000E+03 0.  0.
<mgrwt>
<rscale>  0 0.46845000E+03</rscale>
<asrwt>0</asrwt>
<pdfrwt beam="1">  1        1 0.17610128E+00 0.46845000E+03</pdfrwt>
<pdfrwt beam="2">  1       -1 0.63578153E-02 0.46845000E+03</pdfrwt>
<totfact> 0.15289172E+03</totfact>
</mgrwt>
</event>
<event>
 4    1  0.7145298E-006  0.4240395E+03  0.7818608E-02  0.1035760E+00
          1   -1    0    0  501    0  0.00000000000E+00  0.00000000000E+00  0.11439180601E+04  0.11439180601E+04  0.50400000000E-02 0.  1.
         -1   -1    0    0    0  501 -0.00000000000E+00 -0.00000000000E+00 -0.39296839765E+02  0.39296840088E+02  0.50400000000E-02 0. -1.
    5000001    1    1    2    0    0 -0.47620173735E+02 -0.72779782955E+02  0.61617147346E+03  0.65122642948E+03  0.19200000000E+03 0.  0.
   -5000001    1    1    2    0    0  0.47620173735E+02  0.72779782955E+02  0.48844974690E+03  0.53198847074E+03  0.19200000000E+03 0.  0.
<mgrwt>
<rscale>  0 0.42403946E+03</rscale>
<asrwt>0</asrwt>
<pdfrwt beam="1">  1        1 0.16341685E+00 0.42403946E+03</pdfrwt>
<pdfrwt beam="2">  1       -1 0.56138349E-02 0.42403946E+03</pdfrwt>
<totfact> 0.21270117E+03</totfact>
</mgrwt>
</event>
<event>
 4    1  0.7145298E-006  0.6355242E+03  0.7818608E-02  0.9834328E-01
          1   -1    0    0  501    0  0.00000000000E+00  0.00000000000E+00  0.69936562106E+03  0.69936562108E+03  0.50400000000E-02 0. -1.
         -1   -1    0    0    0  501 -0.00000000000E+00 -0.00000000000E+00 -0.14437763010E+03  0.14437763019E+03  0.50400000000E-02 0.  1.
    5000001    1    1    2    0    0  0.56956760183E+02 -0.18554594687E+03  0.49336157868E+03  0.56386258809E+03  0.19200000000E+03 0.  0.
   -5000001    1    1    2    0    0 -0.56956760183E+02  0.18554594687E+03  0.61626412288E+02  0.27988066318E+03  0.19200000000E+03 0.  0.
<mgrwt>
<rscale>  0 0.63552420E+03</rscale>
<asrwt>0</asrwt>
<pdfrwt beam="1">  1        1 0.99909378E-01 0.63552420E+03</pdfrwt>
<pdfrwt beam="2">  1       -1 0.20625375E-01 0.63552420E+03</pdfrwt>
<totfact> 0.59715524E+02</totfact>
</mgrwt>
</event>
<event>
 4    1  0.7145298E-006  0.5114797E+03  0.7818608E-02  0.1010825E+00
          1   -1    0    0  501    0  0.00000000000E+00  0.00000000000E+00  0.27362112047E+04  0.27362112047E+04  0.50400000000E-02 0.  1.
         -1   -1    0    0    0  501 -0.00000000000E+00 -0.00000000000E+00 -0.23902712903E+02  0.23902713434E+02  0.50400000000E-02 0. -1.
    5000001    1    1    2    0    0  0.12964632598E+03  0.10563513507E+03  0.12271017980E+04  0.12532397114E+04  0.19200000000E+03 0.  0.
   -5000001    1    1    2    0    0 -0.12964632598E+03 -0.10563513507E+03  0.14852066938E+04  0.15068742067E+04  0.19200000000E+03 0.  0.
<mgrwt>
<rscale>  0 0.51147970E+03</rscale>
<asrwt>0</asrwt>
<pdfrwt beam="1">  1        1 0.39088723E+00 0.51147970E+03</pdfrwt>
<pdfrwt beam="2">  1       -1 0.34146740E-02 0.51147970E+03</pdfrwt>
<totfact> 0.44923587E+02</totfact>
</mgrwt>
</event>
<event>
 4    1  0.7145298E-006  0.5247205E+03  0.7818608E-02  0.1007521E+00
         -1   -1    0    0    0  501 -0.00000000000E+00  0.00000000000E+00  0.38524662470E+02  0.38524662799E+02  0.50400000000E-02 0. -1.
          1   -1    0    0  501    0  0.00000000000E+00 -0.00000000000E+00 -0.17867230622E+04  0.17867230622E+04  0.50400000000E-02 0.  1.
    5000001    1    1    2    0    0 -0.15345414481E+03 -0.91069092286E+02 -0.91332306437E+03  0.95019196694E+03  0.19200000000E+03 0.  0.
   -5000001    1    1    2    0    0  0.15345414481E+03  0.91069092286E+02 -0.83487533537E+03  0.87505575808E+03  0.19200000000E+03 0.  0.
<mgrwt>
<rscale>  0 0.52472051E+03</rscale>
<asrwt>0</asrwt>
<pdfrwt beam="1">  1        1 0.25524610E+00 0.52472051E+03</pdfrwt>
<pdfrwt beam="2">  1       -1 0.55035244E-02 0.52472051E+03</pdfrwt>
<totfact> 0.84122550E+02</totfact>
</mgrwt>
</event>
<event>
 4    1  0.7145298E-006  0.6171792E+03  0.7818608E-02  0.9870392E-01
         -1   -1    0    0    0  501 -0.00000000000E+00  0.00000000000E+00  0.49102143739E+03  0.49102143742E+03  0.50400000000E-02 0.  1.
          1   -1    0    0  501    0  0.00000000000E+00 -0.00000000000E+00 -0.19393767256E+03  0.19393767262E+03  0.50400000000E-02 0. -1.
    5000001    1    1    2    0    0  0.17230412196E+03  0.16150539551E+03  0.20503227581E+03  0.36698084057E+03  0.19200000000E+03 0.  0.
   -5000001    1    1    2    0    0 -0.17230412196E+03 -0.16150539551E+03  0.92051489023E+02  0.31797826947E+03  0.19200000000E+03 0.  0.
<mgrwt>
<rscale>  0 0.61717924E+03</rscale>
<asrwt>0</asrwt>
<pdfrwt beam="1">  1        1 0.27705382E-01 0.61717924E+03</pdfrwt>
<pdfrwt beam="2">  1       -1 0.70145919E-01 0.61717924E+03</pdfrwt>
<totfact> 0.35511056E+02</totfact>
</mgrwt>
</event>
<event>
 4    1  0.7145298E-006  0.5542986E+03  0.7818608E-02  0.1000504E+00
         -1   -1    0    0    0  501 -0.00000000000E+00  0.00000000000E+00  0.24813730840E+02  0.24813731352E+02  0.50400000000E-02 0.  1.
          1   -1    0    0  501    0  0.00000000000E+00 -0.00000000000E+00 -0.30955331499E+04  0.30955331499E+04  0.50400000000E-02 0. -1.
    5000001    1    1    2    0    0 -0.14335985557E+03 -0.90499014072E+02 -0.21312644186E+04  0.21466006013E+04  0.19200000000E+03 0.  0.
   -5000001    1    1    2    0    0  0.14335985557E+03  0.90499014072E+02 -0.93945500047E+03  0.97374627991E+03  0.19200000000E+03 0.  0.
<mgrwt>
<rscale>  0 0.55429857E+03</rscale>
<asrwt>0</asrwt>
<pdfrwt beam="1">  1        1 0.44221878E+00 0.55429857E+03</pdfrwt>
<pdfrwt beam="2">  1       -1 0.35448207E-02 0.55429857E+03</pdfrwt>
<totfact> 0.24884810E+02</totfact>
</mgrwt>
</event>
<event>
 4    1  0.7145298E-006  0.6243026E+03  0.7818608E-02  0.9856230E-01
          1   -1    0    0  501    0  0.00000000000E+00  0.00000000000E+00  0.41874710343E+03  0.41874710346E+03  0.50400000000E-02 0.  1.
         -1   -1    0    0    0  501 -0.00000000000E+00 -0.00000000000E+00 -0.23269039275E+03  0.23269039281E+03  0.50400000000E-02 0. -1.
    5000001    1    1    2    0    0  0.68304705453E+02 -0.18357835026E+03 -0.62471939864E+02  0.28130639300E+03  0.19200000000E+03 0.  0.
   -5000001    1    1    2    0    0 -0.68304705453E+02  0.18357835026E+03  0.24852865054E+03  0.37013110327E+03  0.19200000000E+03 0.  0.
<mgrwt>
<rscale>  0 0.62430258E+03</rscale>
<asrwt>0</asrwt>
<pdfrwt beam="1">  1        1 0.59821014E-01 0.62430258E+03</pdfrwt>
<pdfrwt beam="2">  1       -1 0.33241485E-01 0.62430258E+03</pdfrwt>
<totfact> 0.53501725E+02</totfact>
</mgrwt>
</event>
<event>
 4    1  0.7145298E-006  0.5153922E+03  0.7818608E-02  0.1009838E+00
         -1   -1    0    0    0  501 -0.00000000000E+00  0.00000000000E+00  0.30539734137E+03  0.30539734141E+03  0.50400000000E-02 0. -1.
          1   -1    0    0  501    0  0.00000000000E+00 -0.00000000000E+00 -0.21744550706E+03  0.21744550711E+03  0.50400000000E-02 0.  1.
    5000001    1    1    2    0    0  0.16941021759E+03  0.61119151330E+00  0.73431583819E+02  0.26637641202E+03  0.19200000000E+03 0.  0.
   -5000001    1    1    2    0    0 -0.16941021759E+03 -0.61119151330E+00  0.14520250492E+02  0.25646643650E+03  0.19200000000E+03 0.  0.
<mgrwt>
<rscale>  0 0.51539220E+03</rscale>
<asrwt>0</asrwt>
<pdfrwt beam="1">  1        1 0.31063644E-01 0.51539220E+03</pdfrwt>
<pdfrwt beam="2">  1       -1 0.43628191E-01 0.51539220E+03</pdfrwt>
<totfact> 0.76673739E+02</totfact>
</mgrwt>
</event>
<event>
 4    1  0.7145298E-006  0.5498517E+03  0.7818608E-02  0.1001528E+00
         -1   -1    0    0    0  501 -0.00000000000E+00  0.00000000000E+00  0.69294505362E+02  0.69294505545E+02  0.50400000000E-02 0.  1.
          1   -1    0    0  501    0  0.00000000000E+00 -0.00000000000E+00 -0.10907679492E+04  0.10907679492E+04  0.50400000000E-02 0. -1.
    5000001    1    1    2    0    0  0.83276325731E+02  0.11545559178E+03 -0.79734991376E+03  0.83240364312E+03  0.19200000000E+03 0.  0.
   -5000001    1    1    2    0    0 -0.83276325731E+02 -0.11545559178E+03 -0.22412353003E+03  0.32765881160E+03  0.19200000000E+03 0.  0.
<mgrwt>
<rscale>  0 0.54985171E+03</rscale>
<asrwt>0</asrwt>
<pdfrwt beam="1">  1        1 0.15582398E+00 0.54985171E+03</pdfrwt>
<pdfrwt beam="2">  1       -1 0.98992158E-02 0.54985171E+03</pdfrwt>
<totfact> 0.96086345E+02</totfact>
</mgrwt>
</event>
<event>
 4    1  0.7145298E-006  0.7247655E+03  0.7818608E-02  0.9675793E-01
         -1   -1    0    0    0  501 -0.00000000000E+00  0.00000000000E+00  0.95039732620E+02  0.95039732754E+02  0.50400000000E-02 0. -1.
          1   -1    0    0  501    0  0.00000000000E+00 -0.00000000000E+00 -0.13817509400E+04  0.13817509401E+04  0.50400000000E-02 0.  1.
    5000001    1    1    2    0    0 -0.27491577220E+03 -0.12831704146E+03 -0.54325731114E+03  0.65118081287E+03  0.19200000000E+03 0.  0.
   -5000001    1    1    2    0    0  0.27491577220E+03  0.12831704146E+03 -0.74345389629E+03  0.82560985995E+03  0.19200000000E+03 0.  0.
<mgrwt>
<rscale>  0 0.72476545E+03</rscale>
<asrwt>0</asrwt>
<pdfrwt beam="1">  1        1 0.19739298E+00 0.72476545E+03</pdfrwt>
<pdfrwt beam="2">  1       -1 0.13577105E-01 0.72476545E+03</pdfrwt>
<totfact> 0.36521432E+02</totfact>
</mgrwt>
</event>
<event>
 4    1  0.7145298E-006  0.6119653E+03  0.7818608E-02  0.9880888E-01
          1   -1    0    0  501    0  0.00000000000E+00  0.00000000000E+00  0.36833040982E+03  0.36833040985E+03  0.50400000000E-02 0.  1.
         -1   -1    0    0    0  501 -0.00000000000E+00 -0.00000000000E+00 -0.25418860630E+03  0.25418860635E+03  0.50400000000E-02 0. -1.
    5000001    1    1    2    0    0 -0.20747996648E+02 -0.23687720062E+03  0.72162726615E+02  0.31402666551E+03  0.19200000000E+03 0.  0.
   -5000001    1    1    2    0    0  0.20747996648E+02  0.23687720062E+03  0.41979076903E+02  0.30849235069E+03  0.19200000000E+03 0.  0.
<mgrwt>
<rscale>  0 0.61196534E+03</rscale>
<asrwt>0</asrwt>
<pdfrwt beam="1">  1        1 0.52618630E-01 0.61196534E+03</pdfrwt>
<pdfrwt beam="2">  1       -1 0.36312658E-01 0.61196534E+03</pdfrwt>
<totfact> 0.54115018E+02</totfact>
</mgrwt>
</event>
<event>
 4    1  0.7145298E-006  0.5459115E+03  0.7818608E-02  0.1002445E+00
          1   -1    0    0  501    0  0.00000000000E+00  0.00000000000E+00  0.26470102887E+03  0.26470102892E+03  0.50400000000E-02 0.  1.
         -1   -1    0    0    0  501 -0.00000000000E+00 -0.00000000000E+00 -0.28146789294E+03  0.28146789298E+03  0.50400000000E-02 0. -1.
    5000001    1    1    2    0    0 -0.14078792339E+03  0.37149466009E+02 -0.13666057893E+03  0.27702244680E+03  0.19200000000E+03 0.  0.
   -5000001    1    1    2    0    0  0.14078792339E+03 -0.37149466009E+02  0.11989371487E+03  0.26914647511E+03  0.19200000000E+03 0.  0.
<mgrwt>
<rscale>  0 0.54591150E+03</rscale>
<asrwt>0</asrwt>
<pdfrwt beam="1">  1        1 0.37814433E-01 0.54591150E+03</pdfrwt>
<pdfrwt beam="2">  1       -1 0.40209699E-01 0.54591150E+03</pdfrwt>
<totfact> 0.69071500E+02</totfact>
</mgrwt>
</event>
<event>
 4    1  0.7145298E-006  0.1253682E+04  0.7818608E-02  0.9067124E-01
          1   -1    0    0  501    0  0.00000000000E+00  0.00000000000E+00  0.97744081904E+03  0.97744081905E+03  0.50400000000E-02 0.  1.
         -1   -1    0    0    0  501 -0.00000000000E+00 -0.00000000000E+00 -0.40199870724E+03  0.40199870727E+03  0.50400000000E-02 0. -1.
    5000001    1    1    2    0    0  0.30933084078E+03  0.36945825300E+03  0.67499423025E+03  0.85127327025E+03  0.19200000000E+03 0.  0.
   -5000001    1    1    2    0    0 -0.30933084078E+03 -0.36945825300E+03 -0.99552118454E+02  0.52816625607E+03  0.19200000000E+03 0.  0.
<mgrwt>
<rscale>  0 0.12536825E+04</rscale>
<asrwt>0</asrwt>
<pdfrwt beam="1">  1        1 0.13963440E+00 0.12536825E+04</pdfrwt>
<pdfrwt beam="2">  1       -1 0.57428387E-01 0.12536825E+04</pdfrwt>
<totfact> 0.54369308E+01</totfact>
</mgrwt>
</event>
<event>
 4    1  0.7145298E-006  0.5524267E+03  0.7818608E-02  0.1000934E+00
          1   -1    0    0  501    0  0.00000000000E+00  0.00000000000E+00  0.54634404050E+03  0.54634404052E+03  0.50400000000E-02 0.  1.
         -1   -1    0    0    0  501 -0.00000000000E+00 -0.00000000000E+00 -0.13964428230E+03  0.13964428240E+03  0.50400000000E-02 0. -1.
    5000001    1    1    2    0    0 -0.10917921633E+03  0.15383872032E+03  0.12636630928E+03  0.29735315245E+03  0.19200000000E+03 0.  0.
   -5000001    1    1    2    0    0  0.10917921633E+03 -0.15383872032E+03  0.28033344891E+03  0.38863517047E+03  0.19200000000E+03 0.  0.
<mgrwt>
<rscale>  0 0.55242672E+03</rscale>
<asrwt>0</asrwt>
<pdfrwt beam="1">  1        1 0.78049148E-01 0.55242672E+03</pdfrwt>
<pdfrwt beam="2">  1       -1 0.19949183E-01 0.55242672E+03</pdfrwt>
<totfact> 0.89634700E+02</totfact>
</mgrwt>
</event>
<event>
 4    1  0.7145298E-006  0.4297128E+03  0.7818608E-02  0.1033951E+00
          1   -1    0    0  501    0  0.00000000000E+00  0.00000000000E+00  0.50533699346E+03  0.50533699349E+03  0.50400000000E-02 0.  1.
         -1   -1    0    0    0  501 -0.00000000000E+00 -0.00000000000E+00 -0.91351463847E+02  0.91351463986E+02  0.50400000000E-02 0. -1.
    5000001    1    1    2    0    0  0.51317155173E+02  0.80427677498E+02  0.18749268157E+03  0.28481497040E+03  0.19200000000E+03 0.  0.
   -5000001    1    1    2    0    0 -0.51317155173E+02 -0.80427677498E+02  0.22649284804E+03  0.31187348707E+03  0.19200000000E+03 0.  0.
<mgrwt>
<rscale>  0 0.42971281E+03</rscale>
<asrwt>0</asrwt>
<pdfrwt beam="1">  1        1 0.72191001E-01 0.42971281E+03</pdfrwt>
<pdfrwt beam="2">  1       -1 0.13050209E-01 0.42971281E+03</pdfrwt>
<totfact> 0.19821987E+03</totfact>
</mgrwt>
</event>
<event>
 4    1  0.7145298E-006  0.7448077E+03  0.7818608E-02  0.9643532E-01
          1   -1    0    0  501    0  0.00000000000E+00  0.00000000000E+00  0.60194354045E+03  0.60194354047E+03  0.50400000000E-02 0. -1.
         -1   -1    0    0    0  501 -0.00000000000E+00 -0.00000000000E+00 -0.23039471327E+03  0.23039471332E+03  0.50400000000E-02 0.  1.
    5000001    1    1    2    0    0  0.72756698582E+02 -0.26512331517E+03  0.47611784993E+01  0.33536633441E+03  0.19200000000E+03 0.  0.
   -5000001    1    1    2    0    0 -0.72756698582E+02  0.26512331517E+03  0.36678764868E+03  0.49697191938E+03  0.19200000000E+03 0.  0.
<mgrwt>
<rscale>  0 0.74480765E+03</rscale>
<asrwt>0</asrwt>
<pdfrwt beam="1">  1        1 0.85991935E-01 0.74480765E+03</pdfrwt>
<pdfrwt beam="2">  1       -1 0.32913530E-01 0.74480765E+03</pdfrwt>
<totfact> 0.33153144E+02</totfact>
</mgrwt>
</event>
<event>
 4    1  0.7145298E-006  0.1368111E+04  0.7818608E-02  0.8977231E-01
          1   -1    0    0  501    0  0.00000000000E+00  0.00000000000E+00  0.45840156135E+03  0.45840156138E+03  0.50400000000E-02 0.  1.
         -1   -1    0    0    0  501 -0.00000000000E+00 -0.00000000000E+00 -0.10207901221E+04  0.10207901221E+04  0.50400000000E-02 0. -1.
    5000001    1    1    2    0    0  0.13140325423E+03 -0.52119607260E+03 -0.68884218184E+03  0.89458354155E+03  0.19200000000E+03 0.  0.
   -5000001    1    1    2    0    0 -0.13140325423E+03  0.52119607260E+03  0.12645362111E+03  0.58460814193E+03  0.19200000000E+03 0.  0.
<mgrwt>
<rscale>  0 0.13681108E+04</rscale>
<asrwt>0</asrwt>
<pdfrwt beam="1">  1        1 0.65485938E-01 0.13681108E+04</pdfrwt>
<pdfrwt beam="2">  1       -1 0.14582716E+00 0.13681108E+04</pdfrwt>
<totfact> 0.20343085E+01</totfact>
</mgrwt>
</event>
<event>
 4    1  0.7145298E-006  0.4553906E+03  0.7818608E-02  0.1026127E+00
         -1   -1    0    0    0  501 -0.00000000000E+00  0.00000000000E+00  0.15783463851E+03  0.15783463859E+03  0.50400000000E-02 0.  1.
          1   -1    0    0  501    0  0.00000000000E+00 -0.00000000000E+00 -0.32847759014E+03  0.32847759018E+03  0.50400000000E-02 0. -1.
    5000001    1    1    2    0    0 -0.85425781513E+02  0.78001539618E+02 -0.42614265063E+02  0.22817050624E+03  0.19200000000E+03 0.  0.
   -5000001    1    1    2    0    0  0.85425781513E+02 -0.78001539618E+02 -0.12802868657E+03  0.25814172254E+03  0.19200000000E+03 0.  0.
<mgrwt>
<rscale>  0 0.45539057E+03</rscale>
<asrwt>0</asrwt>
<pdfrwt beam="1">  1        1 0.46925370E-01 0.45539057E+03</pdfrwt>
<pdfrwt beam="2">  1       -1 0.22547806E-01 0.45539057E+03</pdfrwt>
<totfact> 0.14271282E+03</totfact>
</mgrwt>
</event>
<event>
 4    1  0.7145298E-006  0.5100490E+03  0.7818608E-02  0.1011189E+00
          1   -1    0    0  501    0  0.00000000000E+00  0.00000000000E+00  0.43625002671E+03  0.43625002674E+03  0.50400000000E-02 0.  1.
         -1   -1    0    0    0  501 -0.00000000000E+00 -0.00000000000E+00 -0.14908309072E+03  0.14908309080E+03  0.50400000000E-02 0. -1.
    5000001    1    1    2    0    0 -0.13340646319E+03 -0.16571640808E+02  0.28241799815E+02  0.23607944205E+03  0.19200000000E+03 0.  0.
   -5000001    1    1    2    0    0  0.13340646319E+03  0.16571640808E+02  0.25892513618E+03  0.34925367550E+03  0.19200000000E+03 0.  0.
<mgrwt>
<rscale>  0 0.51004903E+03</rscale>
<asrwt>0</asrwt>
<pdfrwt beam="1">  1        1 0.62321432E-01 0.51004903E+03</pdfrwt>
<pdfrwt beam="2">  1       -1 0.21297584E-01 0.51004903E+03</pdfrwt>
<totfact> 0.10870637E+03</totfact>
</mgrwt>
</event>
<event>
 4    1  0.7145298E-006  0.6129733E+03  0.7818608E-02  0.9878850E-01
         -1   -1    0    0    0  501 -0.00000000000E+00  0.00000000000E+00  0.54283172823E+02  0.54283173057E+02  0.50400000000E-02 0.  1.
          1   -1    0    0  501    0  0.00000000000E+00 -0.00000000000E+00 -0.17304453618E+04  0.17304453618E+04  0.50400000000E-02 0. -1.
    5000001    1    1    2    0    0 -0.27541384167E+02 -0.16189594598E+03 -0.13432339410E+04  0.13667882957E+04  0.19200000000E+03 0.  0.
   -5000001    1    1    2    0    0  0.27541384167E+02  0.16189594598E+03 -0.33292824799E+03  0.41794023912E+03  0.19200000000E+03 0.  0.
<mgrwt>
<rscale>  0 0.61297329E+03</rscale>
<asrwt>0</asrwt>
<pdfrwt beam="1">  1        1 0.24720645E+00 0.61297329E+03</pdfrwt>
<pdfrwt beam="2">  1       -1 0.77547401E-02 0.61297329E+03</pdfrwt>
<totfact> 0.53427091E+02</totfact>
</mgrwt>
</event>
<event>
 4    1  0.7145298E-006  0.4685372E+03  0.7818608E-02  0.1022334E+00
          1   -1    0    0  501    0  0.00000000000E+00  0.00000000000E+00  0.18233920472E+04  0.18233920472E+04  0.50400000000E-02 0. -1.
         -1   -1    0    0    0  501 -0.00000000000E+00 -0.00000000000E+00 -0.30098725464E+02  0.30098725886E+02  0.50400000000E-02 0.  1.
    5000001    1    1    2    0    0  0.12049812979E+03  0.86152197797E+01  0.66517504839E+03  0.70279148137E+03  0.19200000000E+03 0.  0.
   -5000001    1    1    2    0    0 -0.12049812979E+03 -0.86152197797E+01  0.11281182733E+04  0.11506992917E+04  0.19200000000E+03 0.  0.
<mgrwt>
<rscale>  0 0.46853720E+03</rscale>
<asrwt>0</asrwt>
<pdfrwt beam="1">  1        1 0.26048465E+00 0.46853720E+03</pdfrwt>
<pdfrwt beam="2">  1       -1 0.42998168E-02 0.46853720E+03</pdfrwt>
<totfact> 0.11659309E+03</totfact>
</mgrwt>
</event>
<event>
 4    1  0.7145298E-006  0.4601908E+03  0.7818608E-02  0.1024726E+00
          1   -1    0    0  501    0  0.00000000000E+00  0.00000000000E+00  0.47955967841E+02  0.47955968106E+02  0.50400000000E-02 0.  1.
         -1   -1    0    0    0  501 -0.00000000000E+00 -0.00000000000E+00 -0.11040106854E+04  0.11040106854E+04  0.50400000000E-02 0. -1.
    5000001    1    1    2    0    0  0.47361481456E+02  0.42954764501E+02 -0.80214813098E+03  0.82728099564E+03  0.19200000000E+03 0.  0.
   -5000001    1    1    2    0    0 -0.47361481456E+02 -0.42954764501E+02 -0.25390658657E+03  0.32468565786E+03  0.19200000000E+03 0.  0.
<mgrwt>
<rscale>  0 0.46019083E+03</rscale>
<asrwt>0</asrwt>
<pdfrwt beam="1">  1        1 0.68508533E-02 0.46019083E+03</pdfrwt>
<pdfrwt beam="2">  1       -1 0.15771580E+00 0.46019083E+03</pdfrwt>
<totfact> 0.35433273E+02</totfact>
</mgrwt>
</event>
<event>
 4    1  0.7145298E-006  0.5489358E+03  0.7818608E-02  0.1001741E+00
         -1   -1    0    0    0  501 -0.00000000000E+00  0.00000000000E+00  0.13459609328E+03  0.13459609338E+03  0.50400000000E-02 0. -1.
          1   -1    0    0  501    0  0.00000000000E+00 -0.00000000000E+00 -0.55969401924E+03  0.55969401927E+03  0.50400000000E-02 0.  1.
    5000001    1    1    2    0    0 -0.10315637014E+03 -0.15151969352E+03 -0.30080554057E+03  0.40118253634E+03  0.19200000000E+03 0.  0.
   -5000001    1    1    2    0    0  0.10315637014E+03  0.15151969352E+03 -0.12429238538E+03  0.29310757630E+03  0.19200000000E+03 0.  0.
<mgrwt>
<rscale>  0 0.54893580E+03</rscale>
<asrwt>0</asrwt>
<pdfrwt beam="1">  1        1 0.79956287E-01 0.54893580E+03</pdfrwt>
<pdfrwt beam="2">  1       -1 0.19228014E-01 0.54893580E+03</pdfrwt>
<totfact> 0.92165134E+02</totfact>
</mgrwt>
</event>
<event>
 4    1  0.7145298E-006  0.3969660E+03  0.7818608E-02  0.1044835E+00
         -1   -1    0    0    0  501 -0.00000000000E+00  0.00000000000E+00  0.34633325208E+02  0.34633325574E+02  0.50400000000E-02 0. -1.
          1   -1    0    0  501    0  0.00000000000E+00 -0.00000000000E+00 -0.11375029846E+04  0.11375029846E+04  0.50400000000E-02 0.  1.
    5000001    1    1    2    0    0  0.33096470014E+02  0.26889973730E+02 -0.47258713325E+03  0.51187991319E+03  0.19200000000E+03 0.  0.
   -5000001    1    1    2    0    0 -0.33096470014E+02 -0.26889973730E+02 -0.63028252618E+03  0.66025639703E+03  0.19200000000E+03 0.  0.
<mgrwt>
<rscale>  0 0.39696605E+03</rscale>
<asrwt>0</asrwt>
<pdfrwt beam="1">  1        1 0.16250040E+00 0.39696605E+03</pdfrwt>
<pdfrwt beam="2">  1       -1 0.49476186E-02 0.39696605E+03</pdfrwt>
<totfact> 0.26032972E+03</totfact>
</mgrwt>
</event>
<event>
 4    1  0.7145298E-006  0.8434484E+03  0.7818608E-02  0.9499173E-01
         -1   -1    0    0    0  501 -0.00000000000E+00  0.00000000000E+00  0.11108465525E+03  0.11108465536E+03  0.50400000000E-02 0. -1.
          1   -1    0    0  501    0  0.00000000000E+00 -0.00000000000E+00 -0.16010428797E+04  0.16010428797E+04  0.50400000000E-02 0.  1.
    5000001    1    1    2    0    0  0.22161588730E+03  0.16505375534E+02 -0.13593467630E+04  0.13907097652E+04  0.19200000000E+03 0.  0.
   -5000001    1    1    2    0    0 -0.22161588730E+03 -0.16505375534E+02 -0.13061146145E+03  0.32141776987E+03  0.19200000000E+03 0.  0.
<mgrwt>
<rscale>  0 0.84344839E+03</rscale>
<asrwt>0</asrwt>
<pdfrwt beam="1">  1        1 0.22872040E+00 0.84344839E+03</pdfrwt>
<pdfrwt beam="2">  1       -1 0.15869237E-01 0.84344839E+03</pdfrwt>
<totfact> 0.20287577E+02</totfact>
</mgrwt>
</event>
<event>
 4    1  0.7145298E-006  0.5414244E+03  0.7818608E-02  0.1003499E+00
         -1   -1    0    0    0  501 -0.00000000000E+00  0.00000000000E+00  0.41687569212E+03  0.41687569215E+03  0.50400000000E-02 0. -1.
          1   -1    0    0  501    0  0.00000000000E+00 -0.00000000000E+00 -0.17579600706E+03  0.17579600713E+03  0.50400000000E-02 0.  1.
    5000001    1    1    2    0    0  0.73655164877E+02  0.11968580865E+03 -0.20798897864E+02  0.23884381980E+03  0.19200000000E+03 0.  0.
   -5000001    1    1    2    0    0 -0.73655164877E+02 -0.11968580865E+03  0.26187858292E+03  0.35382787948E+03  0.19200000000E+03 0.  0.
<mgrwt>
<rscale>  0 0.54142435E+03</rscale>
<asrwt>0</asrwt>
<pdfrwt beam="1">  1        1 0.25113715E-01 0.54142435E+03</pdfrwt>
<pdfrwt beam="2">  1       -1 0.59553671E-01 0.54142435E+03</pdfrwt>
<totfact> 0.56038639E+02</totfact>
</mgrwt>
</event>
<event>
 4    1  0.7145298E-006  0.9193625E+03  0.7818608E-02  0.9401696E-01
         -1   -1    0    0    0  501 -0.00000000000E+00  0.00000000000E+00  0.19227166429E+03  0.19227166435E+03  0.50400000000E-02 0. -1.
          1   -1    0    0  501    0  0.00000000000E+00 -0.00000000000E+00 -0.10990015600E+04  0.10990015600E+04  0.50400000000E-02 0.  1.
    5000001    1    1    2    0    0  0.59460514022E+02 -0.41011863256E+03 -0.38024816345E+03  0.59429412861E+03  0.19200000000E+03 0.  0.
   -5000001    1    1    2    0    0 -0.59460514022E+02  0.41011863256E+03 -0.52648173225E+03  0.69697909573E+03  0.19200000000E+03 0.  0.
<mgrwt>
<rscale>  0 0.91936252E+03</rscale>
<asrwt>0</asrwt>
<pdfrwt beam="1">  1        1 0.15700022E+00 0.91936252E+03</pdfrwt>
<pdfrwt beam="2">  1       -1 0.27467381E-01 0.91936252E+03</pdfrwt>
<totfact> 0.17436797E+02</totfact>
</mgrwt>
</event>
<event>
 4    1  0.7145298E-006  0.5472798E+03  0.7818608E-02  0.1002126E+00
         -1   -1    0    0    0  501 -0.00000000000E+00  0.00000000000E+00  0.57046728834E+02  0.57046729057E+02  0.50400000000E-02 0. -1.
          1   -1    0    0  501    0  0.00000000000E+00 -0.00000000000E+00 -0.13125868534E+04  0.13125868534E+04  0.50400000000E-02 0.  1.
    5000001    1    1    2    0    0 -0.15394375603E+03 -0.10317569607E+03 -0.77939834783E+03  0.82381411064E+03  0.19200000000E+03 0.  0.
   -5000001    1    1    2    0    0  0.15394375603E+03  0.10317569607E+03 -0.47614177675E+03  0.54581947185E+03  0.19200000000E+03 0.  0.
<mgrwt>
<rscale>  0 0.54727977E+03</rscale>
<asrwt>0</asrwt>
<pdfrwt beam="1">  1        1 0.18751239E+00 0.54727977E+03</pdfrwt>
<pdfrwt beam="2">  1       -1 0.81495335E-02 0.54727977E+03</pdfrwt>
<totfact> 0.91887769E+02</totfact>
</mgrwt>
</event>
<event>
 4    1  0.7145298E-006  0.7207175E+03  0.7818608E-02  0.9682444E-01
          1   -1    0    0  501    0  0.00000000000E+00  0.00000000000E+00  0.10958697387E+04  0.10958697387E+04  0.50400000000E-02 0.  1.
         -1   -1    0    0    0  501 -0.00000000000E+00 -0.00000000000E+00 -0.11849804501E+03  0.11849804511E+03  0.50400000000E-02 0. -1.
    5000001    1    1    2    0    0 -0.18906508049E+03  0.23477832064E+03  0.41095979211E+03  0.54462685872E+03  0.19200000000E+03 0.  0.
   -5000001    1    1    2    0    0  0.18906508049E+03 -0.23477832064E+03  0.56641190157E+03  0.66974092510E+03  0.19200000000E+03 0.  0.
<mgrwt>
<rscale>  0 0.72071748E+03</rscale>
<asrwt>0</asrwt>
<pdfrwt beam="1">  1        1 0.15655284E+00 0.72071748E+03</pdfrwt>
<pdfrwt beam="2">  1       -1 0.16928290E-01 0.72071748E+03</pdfrwt>
<totfact> 0.39989378E+02</totfact>
</mgrwt>
</event>
<event>
 4    1  0.7145298E-006  0.5082270E+03  0.7818608E-02  0.1011654E+00
          1   -1    0    0  501    0  0.00000000000E+00  0.00000000000E+00  0.90530892778E+02  0.90530892918E+02  0.50400000000E-02 0. -1.
         -1   -1    0    0    0  501 -0.00000000000E+00 -0.00000000000E+00 -0.71327766691E+03  0.71327766693E+03  0.50400000000E-02 0.  1.
    5000001    1    1    2    0    0  0.12737539481E+03 -0.65260368240E+02 -0.44582054406E+03  0.50606656121E+03  0.19200000000E+03 0.  0.
   -5000001    1    1    2    0    0 -0.12737539481E+03  0.65260368240E+02 -0.17692623008E+03  0.29774199864E+03  0.19200000000E+03 0.  0.
<mgrwt>
<rscale>  0 0.50822697E+03</rscale>
<asrwt>0</asrwt>
<pdfrwt beam="1">  1        1 0.12932985E-01 0.50822697E+03</pdfrwt>
<pdfrwt beam="2">  1       -1 0.10189681E+00 0.50822697E+03</pdfrwt>
<totfact> 0.43721793E+02</totfact>
</mgrwt>
</event>
<event>
 4    1  0.7145298E-006  0.6866801E+03  0.7818608E-02  0.9740286E-01
          1   -1    0    0  501    0  0.00000000000E+00  0.00000000000E+00  0.13020203908E+04  0.13020203909E+04  0.50400000000E-02 0.  1.
         -1   -1    0    0    0  501 -0.00000000000E+00 -0.00000000000E+00 -0.90538054093E+02  0.90538054233E+02  0.50400000000E-02 0. -1.
    5000001    1    1    2    0    0  0.15600231098E+03 -0.16541458068E+03  0.95298827678E+03  0.99837335713E+03  0.19200000000E+03 0.  0.
   -5000001    1    1    2    0    0 -0.15600231098E+03  0.16541458068E+03  0.25849405997E+03  0.39418508796E+03  0.19200000000E+03 0.  0.
<mgrwt>
<rscale>  0 0.68668011E+03</rscale>
<asrwt>0</asrwt>
<pdfrwt beam="1">  1        1 0.18600289E+00 0.68668011E+03</pdfrwt>
<pdfrwt beam="2">  1       -1 0.12934010E-01 0.68668011E+03</pdfrwt>
<totfact> 0.44698542E+02</totfact>
</mgrwt>
</event>
<event>
 4    1  0.7145298E-006  0.7218161E+03  0.7818608E-02  0.9680634E-01
          1   -1    0    0  501    0  0.00000000000E+00  0.00000000000E+00  0.14862835743E+03  0.14862835751E+03  0.50400000000E-02 0.  1.
         -1   -1    0    0    0  501 -0.00000000000E+00 -0.00000000000E+00 -0.87637794330E+03  0.87637794332E+03  0.50400000000E-02 0. -1.
    5000001    1    1    2    0    0 -0.73203495815E+02  0.28196000184E+03 -0.23271969281E+03  0.41938365473E+03  0.19200000000E+03 0.  0.
   -5000001    1    1    2    0    0  0.73203495815E+02 -0.28196000184E+03 -0.49502989307E+03  0.60562264610E+03  0.19200000000E+03 0.  0.
<mgrwt>
<rscale>  0 0.72181608E+03</rscale>
<asrwt>0</asrwt>
<pdfrwt beam="1">  1        1 0.21232623E-01 0.72181608E+03</pdfrwt>
<pdfrwt beam="2">  1       -1 0.12519685E+00 0.72181608E+03</pdfrwt>
<totfact> 0.13719382E+02</totfact>
</mgrwt>
</event>
<event>
 4    1  0.7145298E-006  0.5520413E+03  0.7818608E-02  0.1001023E+00
         -1   -1    0    0    0  501 -0.00000000000E+00  0.00000000000E+00  0.78549151329E+03  0.78549151331E+03  0.50400000000E-02 0. -1.
          1   -1    0    0  501    0  0.00000000000E+00 -0.00000000000E+00 -0.96993271842E+02  0.96993271973E+02  0.50400000000E-02 0.  1.
    5000001    1    1    2    0    0  0.19465632630E+03  0.26341113087E+02  0.38768983041E+03  0.47513402763E+03  0.19200000000E+03 0.  0.
   -5000001    1    1    2    0    0 -0.19465632630E+03 -0.26341113087E+02  0.30080841104E+03  0.40735075765E+03  0.19200000000E+03 0.  0.
<mgrwt>
<rscale>  0 0.55204127E+03</rscale>
<asrwt>0</asrwt>
<pdfrwt beam="1">  1        1 0.13856182E-01 0.55204127E+03</pdfrwt>
<pdfrwt beam="2">  1       -1 0.11221307E+00 0.55204127E+03</pdfrwt>
<totfact> 0.31815812E+02</totfact>
</mgrwt>
</event>
<event>
 4    1  0.7145298E-006  0.6090712E+03  0.7818608E-02  0.9886763E-01
         -1   -1    0    0    0  501 -0.00000000000E+00  0.00000000000E+00  0.14738714333E+03  0.14738714342E+03  0.50400000000E-02 0. -1.
          1   -1    0    0  501    0  0.00000000000E+00 -0.00000000000E+00 -0.62924026868E+03  0.62924026870E+03  0.50400000000E-02 0.  1.
    5000001    1    1    2    0    0 -0.15901837099E+03  0.21799258246E+02 -0.19646434985E+02  0.25102197589E+03  0.19200000000E+03 0.  0.
   -5000001    1    1    2    0    0  0.15901837099E+03 -0.21799258246E+02 -0.46220669036E+03  0.52560543623E+03  0.19200000000E+03 0.  0.
<mgrwt>
<rscale>  0 0.60907118E+03</rscale>
<asrwt>0</asrwt>
<pdfrwt beam="1">  1        1 0.89891465E-01 0.60907118E+03</pdfrwt>
<pdfrwt beam="2">  1       -1 0.21055307E-01 0.60907118E+03</pdfrwt>
<totfact> 0.67242070E+02</totfact>
</mgrwt>
</event>
<event>
 4    1  0.7145298E-006  0.5483967E+03  0.7818608E-02  0.1001866E+00
         -1   -1    0    0    0  501 -0.00000000000E+00  0.00000000000E+00  0.42027417255E+03  0.42027417258E+03  0.50400000000E-02 0. -1.
          1   -1    0    0  501    0  0.00000000000E+00 -0.00000000000E+00 -0.17889449639E+03  0.17889449646E+03  0.50400000000E-02 0.  1.
    5000001    1    1    2    0    0 -0.24496375662E+02 -0.15566455612E+03  0.24758571678E+03  0.35070530878E+03  0.19200000000E+03 0.  0.
   -5000001    1    1    2    0    0  0.24496375662E+02  0.15566455612E+03 -0.62060406226E+01  0.24846336026E+03  0.19200000000E+03 0.  0.
<mgrwt>
<rscale>  0 0.54839670E+03</rscale>
<asrwt>0</asrwt>
<pdfrwt beam="1">  1        1 0.25556357E-01 0.54839670E+03</pdfrwt>
<pdfrwt beam="2">  1       -1 0.60039167E-01 0.54839670E+03</pdfrwt>
<totfact> 0.53910119E+02</totfact>
</mgrwt>
</event>
<event>
 4    1  0.7145298E-006  0.4822961E+03  0.7818608E-02  0.1018506E+00
          1   -1    0    0  501    0  0.00000000000E+00  0.00000000000E+00  0.27813801200E+03  0.27813801204E+03  0.50400000000E-02 0.  1.
         -1   -1    0    0    0  501 -0.00000000000E+00 -0.00000000000E+00 -0.20907745446E+03  0.20907745453E+03  0.50400000000E-02 0. -1.
    5000001    1    1    2    0    0  0.89717549586E+02  0.10942764312E+03 -0.13956401463E+01  0.23851539907E+03  0.19200000000E+03 0.  0.
   -5000001    1    1    2    0    0 -0.89717549586E+02 -0.10942764312E+03  0.70456197680E+02  0.24870006750E+03  0.19200000000E+03 0.  0.
<mgrwt>
<rscale>  0 0.48229612E+03</rscale>
<asrwt>0</asrwt>
<pdfrwt beam="1">  1        1 0.39734002E-01 0.48229612E+03</pdfrwt>
<pdfrwt beam="2">  1       -1 0.29868208E-01 0.48229612E+03</pdfrwt>
<totfact> 0.10961494E+03</totfact>
</mgrwt>
</event>
<event>
 4    1  0.7145298E-006  0.5033268E+03  0.7818608E-02  0.1012914E+00
         -1   -1    0    0    0  501 -0.00000000000E+00  0.00000000000E+00  0.11618506125E+03  0.11618506136E+03  0.50400000000E-02 0. -1.
          1   -1    0    0  501    0  0.00000000000E+00 -0.00000000000E+00 -0.54511717745E+03  0.54511717748E+03  0.50400000000E-02 0.  1.
    5000001    1    1    2    0    0  0.79876564774E+02 -0.55488475852E+02 -0.38582937292E+03  0.44180034128E+03  0.19200000000E+03 0.  0.
   -5000001    1    1    2    0    0 -0.79876564774E+02  0.55488475852E+02 -0.43102743286E+02  0.21950189756E+03  0.19200000000E+03 0.  0.
<mgrwt>
<rscale>  0 0.50332682E+03</rscale>
<asrwt>0</asrwt>
<pdfrwt beam="1">  1        1 0.77873881E-01 0.50332682E+03</pdfrwt>
<pdfrwt beam="2">  1       -1 0.16597866E-01 0.50332682E+03</pdfrwt>
<totfact> 0.12163334E+03</totfact>
</mgrwt>
</event>
<event>
 4    1  0.7145298E-006  0.4173016E+03  0.7818608E-02  0.1037948E+00
         -1   -1    0    0    0  501 -0.00000000000E+00  0.00000000000E+00  0.12078720205E+03  0.12078720216E+03  0.50400000000E-02 0. -1.
          1   -1    0    0  501    0  0.00000000000E+00 -0.00000000000E+00 -0.36042847803E+03  0.36042847806E+03  0.50400000000E-02 0.  1.
    5000001    1    1    2    0    0 -0.33549882521E+02  0.71399076329E+02 -0.95420330439E+02  0.22845669651E+03  0.19200000000E+03 0.  0.
   -5000001    1    1    2    0    0  0.33549882521E+02 -0.71399076329E+02 -0.14422094553E+03  0.25275898371E+03  0.19200000000E+03 0.  0.
<mgrwt>
<rscale>  0 0.41730156E+03</rscale>
<asrwt>0</asrwt>
<pdfrwt beam="1">  1        1 0.51489782E-01 0.41730156E+03</pdfrwt>
<pdfrwt beam="2">  1       -1 0.17255315E-01 0.41730156E+03</pdfrwt>
<totfact> 0.19661891E+03</totfact>
</mgrwt>
</event>
<event>
 4    1  0.7145298E-006  0.5439348E+03  0.7818608E-02  0.1002908E+00
          1   -1    0    0  501    0  0.00000000000E+00  0.00000000000E+00  0.34426978685E+03  0.34426978688E+03  0.50400000000E-02 0.  1.
         -1   -1    0    0    0  501 -0.00000000000E+00 -0.00000000000E+00 -0.21484970863E+03  0.21484970869E+03  0.50400000000E-02 0. -1.
    5000001    1    1    2    0    0 -0.26562732113E+02  0.12974103579E+03 -0.79065847191E+02  0.24627976632E+03  0.19200000000E+03 0.  0.
   -5000001    1    1    2    0    0  0.26562732113E+02 -0.12974103579E+03  0.20848592541E+03  0.31283972925E+03  0.19200000000E+03 0.  0.
<mgrwt>
<rscale>  0 0.54393479E+03</rscale>
<asrwt>0</asrwt>
<pdfrwt beam="1">  1        1 0.49181399E-01 0.54393479E+03</pdfrwt>
<pdfrwt beam="2">  1       -1 0.30692815E-01 0.54393479E+03</pdfrwt>
<totfact> 0.79497580E+02</totfact>
</mgrwt>
</event>
<event>
 4    1  0.7145298E-006  0.6339389E+03  0.7818608E-02  0.9837392E-01
         -1   -1    0    0    0  501 -0.00000000000E+00  0.00000000000E+00  0.28120272294E+02  0.28120272745E+02  0.50400000000E-02 0. -1.
          1   -1    0    0  501    0  0.00000000000E+00 -0.00000000000E+00 -0.35728537941E+04  0.35728537941E+04  0.50400000000E-02 0.  1.
    5000001    1    1    2    0    0 -0.18017622685E+03 -0.17621941234E+03 -0.17188183966E+04  0.17477749954E+04  0.19200000000E+03 0.  0.
   -5000001    1    1    2    0    0  0.18017622685E+03  0.17621941234E+03 -0.18259151252E+04  0.18531990715E+04  0.19200000000E+03 0.  0.
<mgrwt>
<rscale>  0 0.63393887E+03</rscale>
<asrwt>0</asrwt>
<pdfrwt beam="1">  1        1 0.51040740E+00 0.63393887E+03</pdfrwt>
<pdfrwt beam="2">  1       -1 0.40171841E-02 0.63393887E+03</pdfrwt>
<totfact> 0.97454409E+01</totfact>
</mgrwt>
</event>
<event>
 4    1  0.7145298E-006  0.6107694E+03  0.7818608E-02  0.9883312E-01
         -1   -1    0    0    0  501 -0.00000000000E+00  0.00000000000E+00  0.35891177517E+03  0.35891177520E+03  0.50400000000E-02 0. -1.
          1   -1    0    0  501    0  0.00000000000E+00 -0.00000000000E+00 -0.25984049162E+03  0.25984049167E+03  0.50400000000E-02 0.  1.
    5000001    1    1    2    0    0  0.81471280764E+02 -0.22228912609E+03  0.68374034585E+02  0.31239243553E+03  0.19200000000E+03 0.  0.
   -5000001    1    1    2    0    0 -0.81471280764E+02  0.22228912609E+03  0.30697248962E+02  0.30635983135E+03  0.19200000000E+03 0.  0.
<mgrwt>
<rscale>  0 0.61076939E+03</rscale>
<asrwt>0</asrwt>
<pdfrwt beam="1">  1        1 0.37120071E-01 0.61076939E+03</pdfrwt>
<pdfrwt beam="2">  1       -1 0.51273110E-01 0.61076939E+03</pdfrwt>
<totfact> 0.45050588E+02</totfact>
</mgrwt>
</event>
<event>
 4    1  0.7145298E-006  0.5207578E+03  0.7818608E-02  0.1008498E+00
         -1   -1    0    0    0  501 -0.00000000000E+00  0.00000000000E+00  0.41668700249E+03  0.41668700252E+03  0.50400000000E-02 0.  1.
          1   -1    0    0  501    0  0.00000000000E+00 -0.00000000000E+00 -0.16270527380E+03  0.16270527388E+03  0.50400000000E-02 0. -1.
    5000001    1    1    2    0    0 -0.10738243110E+03 -0.95937074225E+02  0.14633888372E+02  0.24044346406E+03  0.19200000000E+03 0.  0.
   -5000001    1    1    2    0    0  0.10738243110E+03  0.95937074225E+02  0.23934784032E+03  0.33894881234E+03  0.19200000000E+03 0.  0.
<mgrwt>
<rscale>  0 0.52075780E+03</rscale>
<asrwt>0</asrwt>
<pdfrwt beam="1">  1        1 0.23243611E-01 0.52075780E+03</pdfrwt>
<pdfrwt beam="2">  1       -1 0.59526714E-01 0.52075780E+03</pdfrwt>
<totfact> 0.62054108E+02</totfact>
</mgrwt>
</event>
<event>
 4    1  0.7145298E-006  0.5832320E+03  0.7818608E-02  0.9940818E-01
         -1   -1    0    0    0  501 -0.00000000000E+00  0.00000000000E+00  0.45814139490E+02  0.45814139767E+02  0.50400000000E-02 0. -1.
          1   -1    0    0  501    0  0.00000000000E+00 -0.00000000000E+00 -0.18561931965E+04  0.18561931965E+04  0.50400000000E-02 0.  1.
    5000001    1    1    2    0    0  0.75965711187E+02  0.20331843995E+03 -0.79867828779E+03  0.84962355469E+03  0.19200000000E+03 0.  0.
   -5000001    1    1    2    0    0 -0.75965711187E+02 -0.20331843995E+03 -0.10117007692E+04  0.10523837816E+04  0.19200000000E+03 0.  0.
<mgrwt>
<rscale>  0 0.58323201E+03</rscale>
<asrwt>0</asrwt>
<pdfrwt beam="1">  1        1 0.26517041E+00 0.58323201E+03</pdfrwt>
<pdfrwt beam="2">  1       -1 0.65448783E-02 0.58323201E+03</pdfrwt>
<totfact> 0.58152886E+02</totfact>
</mgrwt>
</event>
<event>
 4    1  0.7145298E-006  0.5419985E+03  0.7818608E-02  0.1003363E+00
         -1   -1    0    0    0  501 -0.00000000000E+00  0.00000000000E+00  0.78990399263E+02  0.78990399424E+02  0.50400000000E-02 0. -1.
          1   -1    0    0  501    0  0.00000000000E+00 -0.00000000000E+00 -0.92974062845E+03  0.92974062846E+03  0.50400000000E-02 0.  1.
    5000001    1    1    2    0    0  0.11728007697E+03 -0.15099607408E+03 -0.43413484304E+03  0.51175335151E+03  0.19200000000E+03 0.  0.
   -5000001    1    1    2    0    0 -0.11728007697E+03  0.15099607408E+03 -0.41661538615E+03  0.49697767638E+03  0.19200000000E+03 0.  0.
<mgrwt>
<rscale>  0 0.54199846E+03</rscale>
<asrwt>0</asrwt>
<pdfrwt beam="1">  1        1 0.13282008E+00 0.54199846E+03</pdfrwt>
<pdfrwt beam="2">  1       -1 0.11284343E-01 0.54199846E+03</pdfrwt>
<totfact> 0.10262017E+03</totfact>
</mgrwt>
</event>
<event>
 4    1  0.7145298E-006  0.4858387E+03  0.7818608E-02  0.1017543E+00
         -1   -1    0    0    0  501 -0.00000000000E+00  0.00000000000E+00  0.16185042842E+03  0.16185042850E+03  0.50400000000E-02 0. -1.
          1   -1    0    0  501    0  0.00000000000E+00 -0.00000000000E+00 -0.36459470695E+03  0.36459470699E+03  0.50400000000E-02 0.  1.
    5000001    1    1    2    0    0  0.12240014756E+02  0.12803052184E+03 -0.18249008411E+03  0.29446266874E+03  0.19200000000E+03 0.  0.
   -5000001    1    1    2    0    0 -0.12240014756E+02 -0.12803052184E+03 -0.20254194419E+02  0.23198246674E+03  0.19200000000E+03 0.  0.
<mgrwt>
<rscale>  0 0.48583870E+03</rscale>
<asrwt>0</asrwt>
<pdfrwt beam="1">  1        1 0.52084958E-01 0.48583870E+03</pdfrwt>
<pdfrwt beam="2">  1       -1 0.23121490E-01 0.48583870E+03</pdfrwt>
<totfact> 0.11969787E+03</totfact>
</mgrwt>
</event>
<event>
 4    1  0.7145298E-006  0.4903817E+03  0.7818608E-02  0.1016320E+00
          1   -1    0    0  501    0  0.00000000000E+00  0.00000000000E+00  0.17159316562E+04  0.17159316562E+04  0.50400000000E-02 0.  1.
         -1   -1    0    0    0  501 -0.00000000000E+00 -0.00000000000E+00 -0.35035515085E+02  0.35035515448E+02  0.50400000000E-02 0. -1.
    5000001    1    1    2    0    0 -0.31480262005E+02  0.14606841650E+03  0.94919447241E+03  0.97987812285E+03  0.19200000000E+03 0.  0.
   -5000001    1    1    2    0    0  0.31480262005E+02 -0.14606841650E+03  0.73170166868E+03  0.77108904877E+03  0.19200000000E+03 0.  0.
<mgrwt>
<rscale>  0 0.49038169E+03</rscale>
<asrwt>0</asrwt>
<pdfrwt beam="1">  1        1 0.24513302E+00 0.49038169E+03</pdfrwt>
<pdfrwt beam="2">  1       -1 0.50050751E-02 0.49038169E+03</pdfrwt>
<totfact> 0.10779754E+03</totfact>
</mgrwt>
</event>
<event>
 4    1  0.7145298E-006  0.5113900E+03  0.7818608E-02  0.1010848E+00
          1   -1    0    0  501    0  0.00000000000E+00  0.00000000000E+00  0.48077175767E+03  0.48077175770E+03  0.50400000000E-02 0.  1.
         -1   -1    0    0    0  501 -0.00000000000E+00 -0.00000000000E+00 -0.13598956867E+03  0.13598956877E+03  0.50400000000E-02 0. -1.
    5000001    1    1    2    0    0 -0.13715673279E+03  0.95263955559E+01  0.29064060772E+03  0.37448455832E+03  0.19200000000E+03 0.  0.
   -5000001    1    1    2    0    0  0.13715673279E+03 -0.95263955559E+01  0.54141581276E+02  0.24227676815E+03  0.19200000000E+03 0.  0.
<mgrwt>
<rscale>  0 0.51139004E+03</rscale>
<asrwt>0</asrwt>
<pdfrwt beam="1">  1        1 0.68681679E-01 0.51139004E+03</pdfrwt>
<pdfrwt beam="2">  1       -1 0.19427082E-01 0.51139004E+03</pdfrwt>
<totfact> 0.11131797E+03</totfact>
</mgrwt>
</event>
<event>
 4    1  0.7145298E-006  0.3791628E+04  0.7818608E-02  0.8047954E-01
          1   -1    0    0  501    0  0.00000000000E+00  0.00000000000E+00  0.25679432197E+04  0.25679432197E+04  0.50400000000E-02 0.  1.
         -1   -1    0    0    0  501 -0.00000000000E+00 -0.00000000000E+00 -0.13996066865E+04  0.13996066865E+04  0.50400000000E-02 0. -1.
    5000001    1    1    2    0    0  0.14023843861E+04 -0.41870590611E+03 -0.66067093446E+03  0.16172033533E+04  0.19200000000E+03 0.  0.
   -5000001    1    1    2    0    0 -0.14023843861E+04  0.41870590611E+03  0.18290074677E+04  0.23503465530E+04  0.19200000000E+03 0.  0.
<mgrwt>
<rscale>  0 0.37916279E+04</rscale>
<asrwt>0</asrwt>
<pdfrwt beam="1">  1        1 0.36684903E+00 0.37916279E+04</pdfrwt>
<pdfrwt beam="2">  1       -1 0.19994381E+00 0.37916279E+04</pdfrwt>
<totfact> 0.19724650E-01</totfact>
</mgrwt>
</event>
<event>
 4    1  0.7145298E-006  0.5917352E+03  0.7818608E-02  0.9922703E-01
         -1   -1    0    0    0  501 -0.00000000000E+00  0.00000000000E+00  0.61701401198E+02  0.61701401404E+02  0.50400000000E-02 0. -1.
          1   -1    0    0  501    0  0.00000000000E+00 -0.00000000000E+00 -0.14187301526E+04  0.14187301526E+04  0.50400000000E-02 0.  1.
    5000001    1    1    2    0    0  0.11213747897E+03  0.15244986865E+03 -0.37355704173E+03  0.46067845626E+03  0.19200000000E+03 0.  0.
   -5000001    1    1    2    0    0 -0.11213747897E+03 -0.15244986865E+03 -0.98347170970E+03  0.10197530978E+04  0.19200000000E+03 0.  0.
<mgrwt>
<rscale>  0 0.59173521E+03</rscale>
<asrwt>0</asrwt>
<pdfrwt beam="1">  1        1 0.20267572E+00 0.59173521E+03</pdfrwt>
<pdfrwt beam="2">  1       -1 0.88144868E-02 0.59173521E+03</pdfrwt>
<totfact> 0.69115037E+02</totfact>
</mgrwt>
</event>
<event>
 4    1  0.7145298E-006  0.5203042E+03  0.7818608E-02  0.1008611E+00
         -1   -1    0    0    0  501 -0.00000000000E+00  0.00000000000E+00  0.72478080198E+02  0.72478080373E+02  0.50400000000E-02 0. -1.
          1   -1    0    0  501    0  0.00000000000E+00 -0.00000000000E+00 -0.93378723527E+03  0.93378723529E+03  0.50400000000E-02 0.  1.
    5000001    1    1    2    0    0  0.12635130924E+03 -0.11829670746E+03 -0.37405948270E+03  0.45469029124E+03  0.19200000000E+03 0.  0.
   -5000001    1    1    2    0    0 -0.12635130924E+03  0.11829670746E+03 -0.48724967237E+03  0.55157502442E+03  0.19200000000E+03 0.  0.
<mgrwt>
<rscale>  0 0.52030417E+03</rscale>
<asrwt>0</asrwt>
<pdfrwt beam="1">  1        1 0.13339817E+00 0.52030417E+03</pdfrwt>
<pdfrwt beam="2">  1       -1 0.10354012E-01 0.52030417E+03</pdfrwt>
<totfact> 0.11679113E+03</totfact>
</mgrwt>
</event>
<event>
 4    1  0.7145298E-006  0.5642151E+03  0.7818608E-02  0.9982562E-01
         -1   -1    0    0    0  501 -0.00000000000E+00  0.00000000000E+00  0.12850793660E+03  0.12850793670E+03  0.50400000000E-02 0.  1.
          1   -1    0    0  501    0  0.00000000000E+00 -0.00000000000E+00 -0.61929774371E+03  0.61929774373E+03  0.50400000000E-02 0. -1.
    5000001    1    1    2    0    0 -0.15180171636E+03  0.29812528599E+02 -0.63723828263E+02  0.25467091361E+03  0.19200000000E+03 0.  0.
   -5000001    1    1    2    0    0  0.15180171636E+03 -0.29812528599E+02 -0.42706597885E+03  0.49313476682E+03  0.19200000000E+03 0.  0.
<mgrwt>
<rscale>  0 0.56421512E+03</rscale>
<asrwt>0</asrwt>
<pdfrwt beam="1">  1        1 0.88471105E-01 0.56421512E+03</pdfrwt>
<pdfrwt beam="2">  1       -1 0.18358277E-01 0.56421512E+03</pdfrwt>
<totfact> 0.86382820E+02</totfact>
</mgrwt>
</event>
<event>
 4    1  0.7145298E-006  0.4578847E+03  0.7818608E-02  0.1025396E+00
         -1   -1    0    0    0  501 -0.00000000000E+00  0.00000000000E+00  0.43812326541E+03  0.43812326544E+03  0.50400000000E-02 0. -1.
          1   -1    0    0  501    0  0.00000000000E+00 -0.00000000000E+00 -0.11963437294E+03  0.11963437305E+03  0.50400000000E-02 0.  1.
    5000001    1    1    2    0    0  0.93092281784E+02 -0.42471252368E+02  0.24607005253E+03  0.32845768518E+03  0.19200000000E+03 0.  0.
   -5000001    1    1    2    0    0 -0.93092281784E+02  0.42471252368E+02  0.72418839946E+02  0.22929995330E+03  0.19200000000E+03 0.  0.
<mgrwt>
<rscale>  0 0.45788471E+03</rscale>
<asrwt>0</asrwt>
<pdfrwt beam="1">  1        1 0.17090625E-01 0.45788471E+03</pdfrwt>
<pdfrwt beam="2">  1       -1 0.62589039E-01 0.45788471E+03</pdfrwt>
<totfact> 0.84258791E+02</totfact>
</mgrwt>
</event>
<event>
 4    1  0.7145298E-006  0.5605750E+03  0.7818608E-02  0.9990754E-01
         -1   -1    0    0    0  501 -0.00000000000E+00  0.00000000000E+00  0.28513499459E+03  0.28513499464E+03  0.50400000000E-02 0. -1.
          1   -1    0    0  501    0  0.00000000000E+00 -0.00000000000E+00 -0.27552240973E+03  0.27552240977E+03  0.50400000000E-02 0.  1.
    5000001    1    1    2    0    0  0.15502384853E+03  0.32252265755E+00  0.13773400728E+03  0.28260777483E+03  0.19200000000E+03 0.  0.
   -5000001    1    1    2    0    0 -0.15502384853E+03 -0.32252265755E+00 -0.12812142241E+03  0.27804962958E+03  0.19200000000E+03 0.  0.
<mgrwt>
<rscale>  0 0.56057499E+03</rscale>
<asrwt>0</asrwt>
<pdfrwt beam="1">  1        1 0.39360344E-01 0.56057499E+03</pdfrwt>
<pdfrwt beam="2">  1       -1 0.40733571E-01 0.56057499E+03</pdfrwt>
<totfact> 0.64071763E+02</totfact>
</mgrwt>
</event>
<event>
 4    1  0.7145298E-006  0.8802117E+03  0.7818608E-02  0.9450662E-01
         -1   -1    0    0    0  501 -0.00000000000E+00  0.00000000000E+00  0.77912875584E+02  0.77912875747E+02  0.50400000000E-02 0. -1.
          1   -1    0    0  501    0  0.00000000000E+00 -0.00000000000E+00 -0.24860223975E+04  0.24860223975E+04  0.50400000000E-02 0.  1.
    5000001    1    1    2    0    0  0.26656277086E+02 -0.28635223135E+03 -0.41102305574E+03  0.53713323287E+03  0.19200000000E+03 0.  0.
   -5000001    1    1    2    0    0 -0.26656277086E+02  0.28635223135E+03 -0.19970864662E+04  0.20268020404E+04  0.19200000000E+03 0.  0.
<mgrwt>
<rscale>  0 0.88021169E+03</rscale>
<asrwt>0</asrwt>
<pdfrwt beam="1">  1        1 0.35514601E+00 0.88021169E+03</pdfrwt>
<pdfrwt beam="2">  1       -1 0.11130412E-01 0.88021169E+03</pdfrwt>
<totfact> 0.10013651E+02</totfact>
</mgrwt>
</event>
<event>
 4    1  0.7145298E-006  0.4161335E+03  0.7818608E-02  0.1038332E+00
         -1   -1    0    0    0  501 -0.00000000000E+00  0.00000000000E+00  0.45017219488E+02  0.45017219770E+02  0.50400000000E-02 0. -1.
          1   -1    0    0  501    0  0.00000000000E+00 -0.00000000000E+00 -0.96167120008E+03  0.96167120009E+03  0.50400000000E-02 0.  1.
    5000001    1    1    2    0    0 -0.77683828803E+02  0.11660892411E+02 -0.49710963502E+03  0.53865828027E+03  0.19200000000E+03 0.  0.
   -5000001    1    1    2    0    0  0.77683828803E+02 -0.11660892411E+02 -0.41954434557E+03  0.46803013959E+03  0.19200000000E+03 0.  0.
<mgrwt>
<rscale>  0 0.41613346E+03</rscale>
<asrwt>0</asrwt>
<pdfrwt beam="1">  1        1 0.13738159E+00 0.41613346E+03</pdfrwt>
<pdfrwt beam="2">  1       -1 0.64310320E-02 0.41613346E+03</pdfrwt>
<totfact> 0.23328277E+03</totfact>
</mgrwt>
</event>
<event>
 4    1  0.7145298E-006  0.5236776E+03  0.7818608E-02  0.1007777E+00
         -1   -1    0    0    0  501 -0.00000000000E+00  0.00000000000E+00  0.62952543646E+03  0.62952543648E+03  0.50400000000E-02 0. -1.
          1   -1    0    0  501    0  0.00000000000E+00 -0.00000000000E+00 -0.10890673438E+03  0.10890673450E+03  0.50400000000E-02 0.  1.
    5000001    1    1    2    0    0 -0.12181489126E+03 -0.10777724726E+03  0.36239004334E+03  0.44118629429E+03  0.19200000000E+03 0.  0.
   -5000001    1    1    2    0    0  0.12181489126E+03  0.10777724726E+03  0.15822865874E+03  0.29724587669E+03  0.19200000000E+03 0.  0.
<mgrwt>
<rscale>  0 0.52367761E+03</rscale>
<asrwt>0</asrwt>
<pdfrwt beam="1">  1        1 0.15558105E-01 0.52367761E+03</pdfrwt>
<pdfrwt beam="2">  1       -1 0.89932206E-01 0.52367761E+03</pdfrwt>
<totfact> 0.45048452E+02</totfact>
</mgrwt>
</event>
<event>
 4    1  0.7145298E-006  0.6827025E+03  0.7818608E-02  0.9747279E-01
          1   -1    0    0  501    0  0.00000000000E+00  0.00000000000E+00  0.13784867818E+04  0.13784867818E+04  0.50400000000E-02 0. -1.
         -1   -1    0    0    0  501 -0.00000000000E+00 -0.00000000000E+00 -0.84527950145E+02  0.84527950295E+02  0.50400000000E-02 0.  1.
    5000001    1    1    2    0    0 -0.26895143930E+03  0.14464181950E+01  0.83032213691E+03  0.89366426574E+03  0.19200000000E+03 0.  0.
   -5000001    1    1    2    0    0  0.26895143930E+03 -0.14464181950E+01  0.46363669472E+03  0.56935046634E+03  0.19200000000E+03 0.  0.
<mgrwt>
<rscale>  0 0.68270246E+03</rscale>
<asrwt>0</asrwt>
<pdfrwt beam="1">  1        1 0.19692669E+00 0.68270246E+03</pdfrwt>
<pdfrwt beam="2">  1       -1 0.12075421E-01 0.68270246E+03</pdfrwt>
<totfact> 0.44411750E+02</totfact>
</mgrwt>
</event>
<event>
 4    1  0.7145298E-006  0.7325474E+03  0.7818608E-02  0.9663136E-01
         -1   -1    0    0    0  501 -0.00000000000E+00  0.00000000000E+00  0.61757615314E+02  0.61757615520E+02  0.50400000000E-02 0. -1.
          1   -1    0    0  501    0  0.00000000000E+00 -0.00000000000E+00 -0.21723059741E+04  0.21723059741E+04  0.50400000000E-02 0.  1.
    5000001    1    1    2    0    0  0.24321376465E+03 -0.19467883563E+03 -0.11024860081E+04  0.11616334113E+04  0.19200000000E+03 0.  0.
   -5000001    1    1    2    0    0 -0.24321376465E+03  0.19467883563E+03 -0.10080623508E+04  0.10724301783E+04  0.19200000000E+03 0.  0.
<mgrwt>
<rscale>  0 0.73254744E+03</rscale>
<asrwt>0</asrwt>
<pdfrwt beam="1">  1        1 0.31032938E+00 0.73254744E+03</pdfrwt>
<pdfrwt beam="2">  1       -1 0.88225178E-02 0.73254744E+03</pdfrwt>
<totfact> 0.23006972E+02</totfact>
</mgrwt>
</event>
<event>
 4    1  0.7145298E-006  0.6254580E+03  0.7818608E-02  0.9853952E-01
         -1   -1    0    0    0  501 -0.00000000000E+00  0.00000000000E+00  0.28016850803E+03  0.28016850807E+03  0.50400000000E-02 0. -1.
          1   -1    0    0  501    0  0.00000000000E+00 -0.00000000000E+00 -0.34907357665E+03  0.34907357669E+03  0.50400000000E-02 0.  1.
    5000001    1    1    2    0    0 -0.95695342220E+02  0.21722403760E+03 -0.10262341534E+03  0.32208608540E+03  0.19200000000E+03 0.  0.
   -5000001    1    1    2    0    0  0.95695342220E+02 -0.21722403760E+03  0.33718346724E+02  0.30715599936E+03  0.19200000000E+03 0.  0.
<mgrwt>
<rscale>  0 0.62545799E+03</rscale>
<asrwt>0</asrwt>
<pdfrwt beam="1">  1        1 0.49867654E-01 0.62545799E+03</pdfrwt>
<pdfrwt beam="2">  1       -1 0.40024073E-01 0.62545799E+03</pdfrwt>
<totfact> 0.48693529E+02</totfact>
</mgrwt>
</event>
<event>
 4    1  0.7145298E-006  0.5671850E+03  0.7818608E-02  0.9975927E-01
         -1   -1    0    0    0  501 -0.00000000000E+00  0.00000000000E+00  0.56299928258E+02  0.56299928483E+02  0.50400000000E-02 0. -1.
          1   -1    0    0  501    0  0.00000000000E+00 -0.00000000000E+00 -0.14285045662E+04  0.14285045662E+04  0.50400000000E-02 0.  1.
    5000001    1    1    2    0    0 -0.18109044756E+03  0.93163719169E+02 -0.56649568024E+03  0.63186595453E+03  0.19200000000E+03 0.  0.
   -5000001    1    1    2    0    0  0.18109044756E+03 -0.93163719169E+02 -0.80570895771E+03  0.85293854016E+03  0.19200000000E+03 0.  0.
<mgrwt>
<rscale>  0 0.56718500E+03</rscale>
<asrwt>0</asrwt>
<pdfrwt beam="1">  1        1 0.20407206E+00 0.56718500E+03</pdfrwt>
<pdfrwt beam="2">  1       -1 0.80428478E-02 0.56718500E+03</pdfrwt>
<totfact> 0.78684981E+02</totfact>
</mgrwt>
</event>
<event>
 4    1  0.7145298E-006  0.5346611E+03  0.7818608E-02  0.1005108E+00
         -1   -1    0    0    0  501 -0.00000000000E+00  0.00000000000E+00  0.14403064040E+03  0.14403064048E+03  0.50400000000E-02 0. -1.
          1   -1    0    0  501    0  0.00000000000E+00 -0.00000000000E+00 -0.49618341561E+03  0.49618341564E+03  0.50400000000E-02 0.  1.
    5000001    1    1    2    0    0 -0.41428127951E+02 -0.16431860940E+03 -0.26793281317E+03  0.37063309020E+03  0.19200000000E+03 0.  0.
   -5000001    1    1    2    0    0  0.41428127951E+02  0.16431860940E+03 -0.84219962050E+02  0.26958096592E+03  0.19200000000E+03 0.  0.
<mgrwt>
<rscale>  0 0.53466107E+03</rscale>
<asrwt>0</asrwt>
<pdfrwt beam="1">  1        1 0.70883345E-01 0.53466107E+03</pdfrwt>
<pdfrwt beam="2">  1       -1 0.20575806E-01 0.53466107E+03</pdfrwt>
<totfact> 0.97028518E+02</totfact>
</mgrwt>
</event>
<event>
 4    1  0.7145298E-006  0.5884324E+03  0.7818608E-02  0.9929700E-01
         -1   -1    0    0    0  501 -0.00000000000E+00  0.00000000000E+00  0.95973969000E+02  0.95973969132E+02  0.50400000000E-02 0. -1.
          1   -1    0    0  501    0  0.00000000000E+00 -0.00000000000E+00 -0.90194419079E+03  0.90194419081E+03  0.50400000000E-02 0.  1.
    5000001    1    1    2    0    0  0.20513927066E+03  0.77480761278E+02 -0.33485801431E+03  0.44393611982E+03  0.19200000000E+03 0.  0.
   -5000001    1    1    2    0    0 -0.20513927066E+03 -0.77480761278E+02 -0.47111220749E+03  0.55398204012E+03  0.19200000000E+03 0.  0.
<mgrwt>
<rscale>  0 0.58843237E+03</rscale>
<asrwt>0</asrwt>
<pdfrwt beam="1">  1        1 0.12884917E+00 0.58843237E+03</pdfrwt>
<pdfrwt beam="2">  1       -1 0.13710568E-01 0.58843237E+03</pdfrwt>
<totfact> 0.78904664E+02</totfact>
</mgrwt>
</event>
<event>
 4    1  0.7145298E-006  0.6763152E+03  0.7818608E-02  0.9758616E-01
          1   -1    0    0  501    0  0.00000000000E+00  0.00000000000E+00  0.30543133685E+03  0.30543133689E+03  0.50400000000E-02 0. -1.
         -1   -1    0    0    0  501 -0.00000000000E+00 -0.00000000000E+00 -0.37439041715E+03  0.37439041718E+03  0.50400000000E-02 0.  1.
    5000001    1    1    2    0    0  0.21548672327E+03  0.11401408907E+03 -0.16953697358E+03  0.35361069812E+03  0.19200000000E+03 0.  0.
   -5000001    1    1    2    0    0 -0.21548672327E+03 -0.11401408907E+03  0.10057789328E+03  0.32621105596E+03  0.19200000000E+03 0.  0.
<mgrwt>
<rscale>  0 0.67631521E+03</rscale>
<asrwt>0</asrwt>
<pdfrwt beam="1">  1        1 0.43633048E-01 0.67631521E+03</pdfrwt>
<pdfrwt beam="2">  1       -1 0.53484345E-01 0.67631521E+03</pdfrwt>
<totfact> 0.33680685E+02</totfact>
</mgrwt>
</event>
<event>
 4    1  0.7145298E-006  0.4967845E+03  0.7818608E-02  0.1014622E+00
         -1   -1    0    0    0  501 -0.00000000000E+00  0.00000000000E+00  0.18560650690E+02  0.18560651374E+02  0.50400000000E-02 0. -1.
          1   -1    0    0  501    0  0.00000000000E+00 -0.00000000000E+00 -0.33241673488E+04  0.33241673488E+04  0.50400000000E-02 0.  1.
    5000001    1    1    2    0    0  0.96110271377E+02  0.11537257327E+03 -0.13310395782E+04  0.13531734455E+04  0.19200000000E+03 0.  0.
   -5000001    1    1    2    0    0 -0.96110271377E+02 -0.11537257327E+03 -0.19745671199E+04  0.19895545547E+04  0.19200000000E+03 0.  0.
<mgrwt>
<rscale>  0 0.49678450E+03</rscale>
<asrwt>0</asrwt>
<pdfrwt beam="1">  1        1 0.47488067E+00 0.49678450E+03</pdfrwt>
<pdfrwt beam="2">  1       -1 0.26515237E-02 0.49678450E+03</pdfrwt>
<totfact> 0.27396593E+02</totfact>
</mgrwt>
</event>
<event>
 4    1  0.7145298E-006  0.1310447E+04  0.7818608E-02  0.9021322E-01
         -1   -1    0    0    0  501 -0.00000000000E+00  0.00000000000E+00  0.10901675577E+03  0.10901675589E+03  0.50400000000E-02 0.  1.
          1   -1    0    0  501    0  0.00000000000E+00 -0.00000000000E+00 -0.39380887668E+04  0.39380887668E+04  0.50400000000E-02 0. -1.
    5000001    1    1    2    0    0 -0.32778348537E+03  0.90107989352E+02 -0.28943441730E+03  0.48600179521E+03  0.19200000000E+03 0.  0.
   -5000001    1    1    2    0    0  0.32778348537E+03 -0.90107989352E+02 -0.35396375938E+04  0.35611037275E+04  0.19200000000E+03 0.  0.
<mgrwt>
<rscale>  0 0.13104467E+04</rscale>
<asrwt>0</asrwt>
<pdfrwt beam="1">  1        1 0.56258402E+00 0.13104467E+04</pdfrwt>
<pdfrwt beam="2">  1       -1 0.15573825E-01 0.13104467E+04</pdfrwt>
<totfact> 0.58123982E+00</totfact>
</mgrwt>
</event>
<event>
 4    1  0.7145298E-006  0.4058188E+03  0.7818608E-02  0.1041783E+00
          1   -1    0    0  501    0  0.00000000000E+00  0.00000000000E+00  0.15826751944E+03  0.15826751953E+03  0.50400000000E-02 0. -1.
         -1   -1    0    0    0  501 -0.00000000000E+00 -0.00000000000E+00 -0.26014327891E+03  0.26014327895E+03  0.50400000000E-02 0.  1.
    5000001    1    1    2    0    0 -0.38418532782E+02 -0.53163279591E+02 -0.53445107472E+02  0.20981586563E+03  0.19200000000E+03 0.  0.
   -5000001    1    1    2    0    0  0.38418532782E+02  0.53163279591E+02 -0.48430651989E+02  0.20859493285E+03  0.19200000000E+03 0.  0.
<mgrwt>
<rscale>  0 0.40581883E+03</rscale>
<asrwt>0</asrwt>
<pdfrwt beam="1">  1        1 0.22609646E-01 0.40581883E+03</pdfrwt>
<pdfrwt beam="2">  1       -1 0.37163326E-01 0.40581883E+03</pdfrwt>
<totfact> 0.15415178E+03</totfact>
</mgrwt>
</event>
<event>
 4    1  0.7145298E-006  0.7472524E+03  0.7818608E-02  0.9639671E-01
          1   -1    0    0  501    0  0.00000000000E+00  0.00000000000E+00  0.60780668793E+03  0.60780668796E+03  0.50400000000E-02 0. -1.
         -1   -1    0    0    0  501 -0.00000000000E+00 -0.00000000000E+00 -0.22967257116E+03  0.22967257122E+03  0.50400000000E-02 0.  1.
    5000001    1    1    2    0    0  0.30126444925E+03  0.11114507090E+02  0.31106220572E+03  0.47382222033E+03  0.19200000000E+03 0.  0.
   -5000001    1    1    2    0    0 -0.30126444925E+03 -0.11114507090E+02  0.67071911051E+02  0.36365703885E+03  0.19200000000E+03 0.  0.
<mgrwt>
<rscale>  0 0.74725237E+03</rscale>
<asrwt>0</asrwt>
<pdfrwt beam="1">  1        1 0.86829526E-01 0.74725237E+03</pdfrwt>
<pdfrwt beam="2">  1       -1 0.32810368E-01 0.74725237E+03</pdfrwt>
<totfact> 0.32880766E+02</totfact>
</mgrwt>
</event>
<event>
 4    1  0.7145298E-006  0.5908666E+03  0.7818608E-02  0.9924538E-01
          1   -1    0    0  501    0  0.00000000000E+00  0.00000000000E+00  0.11547686829E+04  0.11547686829E+04  0.50400000000E-02 0.  1.
         -1   -1    0    0    0  501 -0.00000000000E+00 -0.00000000000E+00 -0.75582947895E+02  0.75582948063E+02  0.50400000000E-02 0. -1.
    5000001    1    1    2    0    0  0.14085594079E+03 -0.10649024073E+03  0.82839479771E+03  0.86849439164E+03  0.19200000000E+03 0.  0.
   -5000001    1    1    2    0    0 -0.14085594079E+03  0.10649024073E+03  0.25079093727E+03  0.36185723932E+03  0.19200000000E+03 0.  0.
<mgrwt>
<rscale>  0 0.59086655E+03</rscale>
<asrwt>0</asrwt>
<pdfrwt beam="1">  1        1 0.16496696E+00 0.59086655E+03</pdfrwt>
<pdfrwt beam="2">  1       -1 0.10797564E-01 0.59086655E+03</pdfrwt>
<totfact> 0.75433044E+02</totfact>
</mgrwt>
</event>
<event>
 4    1  0.7145298E-006  0.7864679E+03  0.7818608E-02  0.9579813E-01
         -1   -1    0    0    0  501 -0.00000000000E+00  0.00000000000E+00  0.24751890601E+03  0.24751890607E+03  0.50400000000E-02 0. -1.
          1   -1    0    0  501    0  0.00000000000E+00 -0.00000000000E+00 -0.62473190128E+03  0.62473190130E+03  0.50400000000E-02 0.  1.
    5000001    1    1    2    0    0 -0.28248083762E+03  0.22904041976E+02  0.26018403244E+02  0.34330886395E+03  0.19200000000E+03 0.  0.
   -5000001    1    1    2    0    0  0.28248083762E+03 -0.22904041976E+02 -0.40323139851E+03  0.52894194342E+03  0.19200000000E+03 0.  0.
<mgrwt>
<rscale>  0 0.78646794E+03</rscale>
<asrwt>0</asrwt>
<pdfrwt beam="1">  1        1 0.89247414E-01 0.78646794E+03</pdfrwt>
<pdfrwt beam="2">  1       -1 0.35359844E-01 0.78646794E+03</pdfrwt>
<totfact> 0.27645406E+02</totfact>
</mgrwt>
</event>
<event>
 4    1  0.7145298E-006  0.4184109E+03  0.7818608E-02  0.1037585E+00
         -1   -1    0    0    0  501 -0.00000000000E+00  0.00000000000E+00  0.60665652232E+02  0.60665652441E+02  0.50400000000E-02 0. -1.
          1   -1    0    0  501    0  0.00000000000E+00 -0.00000000000E+00 -0.72144483751E+03  0.72144483753E+03  0.50400000000E-02 0.  1.
    5000001    1    1    2    0    0 -0.40642641596E+02 -0.46393077166E+02 -0.22633518747E+03  0.30314313288E+03  0.19200000000E+03 0.  0.
   -5000001    1    1    2    0    0  0.40642641596E+02  0.46393077166E+02 -0.43444399782E+03  0.47896735710E+03  0.19200000000E+03 0.  0.
<mgrwt>
<rscale>  0 0.41841091E+03</rscale>
<asrwt>0</asrwt>
<pdfrwt beam="1">  1        1 0.10306354E+00 0.41841091E+03</pdfrwt>
<pdfrwt beam="2">  1       -1 0.86665222E-02 0.41841091E+03</pdfrwt>
<totfact> 0.22974458E+03</totfact>
</mgrwt>
</event>
<event>
 4    1  0.7145298E-006  0.3869161E+03  0.7818608E-02  0.1048407E+00
          1   -1    0    0  501    0  0.00000000000E+00  0.00000000000E+00  0.15024681099E+03  0.15024681108E+03  0.50400000000E-02 0.  1.
         -1   -1    0    0    0  501 -0.00000000000E+00 -0.00000000000E+00 -0.24909692227E+03  0.24909692232E+03  0.50400000000E-02 0. -1.
    5000001    1    1    2    0    0 -0.13642698555E+02  0.75681592884E+01 -0.31001850105E+02  0.19511154494E+03  0.19200000000E+03 0.  0.
   -5000001    1    1    2    0    0  0.13642698555E+02 -0.75681592884E+01 -0.67848261173E+02  0.20423218846E+03  0.19200000000E+03 0.  0.
<mgrwt>
<rscale>  0 0.38691611E+03</rscale>
<asrwt>0</asrwt>
<pdfrwt beam="1">  1        1 0.21463830E-01 0.38691611E+03</pdfrwt>
<pdfrwt beam="2">  1       -1 0.35585275E-01 0.38691611E+03</pdfrwt>
<totfact> 0.17793966E+03</totfact>
</mgrwt>
</event>
<event>
 4    1  0.7145298E-006  0.4649925E+03  0.7818608E-02  0.1023343E+00
         -1   -1    0    0    0  501 -0.00000000000E+00  0.00000000000E+00  0.42273637936E+02  0.42273638237E+02  0.50400000000E-02 0.  1.
          1   -1    0    0  501    0  0.00000000000E+00 -0.00000000000E+00 -0.12786814353E+04  0.12786814353E+04  0.50400000000E-02 0. -1.
    5000001    1    1    2    0    0  0.11729156339E+03  0.52958906292E+02 -0.68942608554E+03  0.72714117200E+03  0.19200000000E+03 0.  0.
   -5000001    1    1    2    0    0 -0.11729156339E+03 -0.52958906292E+02 -0.54698171183E+03  0.59381390155E+03  0.19200000000E+03 0.  0.
<mgrwt>
<rscale>  0 0.46499254E+03</rscale>
<asrwt>0</asrwt>
<pdfrwt beam="1">  1        1 0.18266875E+00 0.46499254E+03</pdfrwt>
<pdfrwt beam="2">  1       -1 0.60390920E-02 0.46499254E+03</pdfrwt>
<totfact> 0.15414231E+03</totfact>
</mgrwt>
</event>
<event>
 4    1  0.7145298E-006  0.6183193E+03  0.7818608E-02  0.9868112E-01
          1   -1    0    0  501    0  0.00000000000E+00  0.00000000000E+00  0.20011521077E+04  0.20011521077E+04  0.50400000000E-02 0.  1.
         -1   -1    0    0    0  501 -0.00000000000E+00 -0.00000000000E+00 -0.47762338242E+02  0.47762338508E+02  0.50400000000E-02 0. -1.
    5000001    1    1    2    0    0  0.80099063514E+02 -0.19568601807E+03  0.13688707488E+04  0.13983490282E+04  0.19200000000E+03 0.  0.
   -5000001    1    1    2    0    0 -0.80099063514E+02  0.19568601807E+03  0.58451902061E+03  0.65056541800E+03  0.19200000000E+03 0.  0.
<mgrwt>
<rscale>  0 0.61831935E+03</rscale>
<asrwt>0</asrwt>
<pdfrwt beam="1">  1        1 0.28587878E+00 0.61831935E+03</pdfrwt>
<pdfrwt beam="2">  1       -1 0.68231934E-02 0.61831935E+03</pdfrwt>
<totfact> 0.44243481E+02</totfact>
</mgrwt>
</event>
<event>
 4    1  0.7145298E-006  0.6839222E+03  0.7818608E-02  0.9745129E-01
         -1   -1    0    0    0  501 -0.00000000000E+00  0.00000000000E+00  0.14205827385E+03  0.14205827394E+03  0.50400000000E-02 0. -1.
          1   -1    0    0  501    0  0.00000000000E+00 -0.00000000000E+00 -0.82316489504E+03  0.82316489505E+03  0.50400000000E-02 0.  1.
    5000001    1    1    2    0    0 -0.39469380980E+02  0.26372494689E+03 -0.20692790263E+03  0.38831924564E+03  0.19200000000E+03 0.  0.
   -5000001    1    1    2    0    0  0.39469380980E+02 -0.26372494689E+03 -0.47417871855E+03  0.57690392335E+03  0.19200000000E+03 0.  0.
<mgrwt>
<rscale>  0 0.68392217E+03</rscale>
<asrwt>0</asrwt>
<pdfrwt beam="1">  1        1 0.11759498E+00 0.68392217E+03</pdfrwt>
<pdfrwt beam="2">  1       -1 0.20294040E-01 0.68392217E+03</pdfrwt>
<totfact> 0.47877599E+02</totfact>
</mgrwt>
</event>
<event>
 4    1  0.7145298E-006  0.4802229E+03  0.7818608E-02  0.1019074E+00
         -1   -1    0    0    0  501 -0.00000000000E+00  0.00000000000E+00  0.25965559158E+02  0.25965559647E+02  0.50400000000E-02 0. -1.
          1   -1    0    0  501    0  0.00000000000E+00 -0.00000000000E+00 -0.22203841330E+04  0.22203841330E+04  0.50400000000E-02 0.  1.
    5000001    1    1    2    0    0 -0.10136916516E+03  0.90228477197E+02 -0.86935903545E+03  0.90059203764E+03  0.19200000000E+03 0.  0.
   -5000001    1    1    2    0    0  0.10136916516E+03 -0.90228477197E+02 -0.13250595384E+04  0.13457576550E+04  0.19200000000E+03 0.  0.
<mgrwt>
<rscale>  0 0.48022293E+03</rscale>
<asrwt>0</asrwt>
<pdfrwt beam="1">  1        1 0.31719761E+00 0.48022293E+03</pdfrwt>
<pdfrwt beam="2">  1       -1 0.37093670E-02 0.48022293E+03</pdfrwt>
<totfact> 0.83083558E+02</totfact>
</mgrwt>
</event>
<event>
 4    1  0.7145298E-006  0.5528338E+03  0.7818608E-02  0.1000840E+00
         -1   -1    0    0    0  501 -0.00000000000E+00  0.00000000000E+00  0.10547641547E+03  0.10547641559E+03  0.50400000000E-02 0. -1.
          1   -1    0    0  501    0  0.00000000000E+00 -0.00000000000E+00 -0.72439226741E+03  0.72439226742E+03  0.50400000000E-02 0.  1.
    5000001    1    1    2    0    0 -0.11284224447E+03 -0.16339246487E+03 -0.32533221069E+03  0.42677337900E+03  0.19200000000E+03 0.  0.
   -5000001    1    1    2    0    0  0.11284224447E+03  0.16339246487E+03 -0.29358364124E+03  0.40309530401E+03  0.19200000000E+03 0.  0.
<mgrwt>
<rscale>  0 0.55283379E+03</rscale>
<asrwt>0</asrwt>
<pdfrwt beam="1">  1        1 0.10348461E+00 0.55283379E+03</pdfrwt>
<pdfrwt beam="2">  1       -1 0.15068060E-01 0.55283379E+03</pdfrwt>
<totfact> 0.95102910E+02</totfact>
</mgrwt>
</event>
<event>
 4    1  0.7145298E-006  0.8430943E+03  0.7818608E-02  0.9499653E-01
          1   -1    0    0  501    0  0.00000000000E+00  0.00000000000E+00  0.15878710846E+04  0.15878710846E+04  0.50400000000E-02 0.  1.
         -1   -1    0    0    0  501 -0.00000000000E+00 -0.00000000000E+00 -0.11191209882E+03  0.11191209894E+03  0.50400000000E-02 0. -1.
    5000001    1    1    2    0    0  0.35793526985E+03 -0.88932375145E+02  0.87782591764E+03  0.97132330685E+03  0.19200000000E+03 0.  0.
   -5000001    1    1    2    0    0 -0.35793526985E+03  0.88932375145E+02  0.59813306813E+03  0.72845987668E+03  0.19200000000E+03 0.  0.
<mgrwt>
<rscale>  0 0.84309427E+03</rscale>
<asrwt>0</asrwt>
<pdfrwt beam="1">  1        1 0.22683870E+00 0.84309427E+03</pdfrwt>
<pdfrwt beam="2">  1       -1 0.15987445E-01 0.84309427E+03</pdfrwt>
<totfact> 0.20435471E+02</totfact>
</mgrwt>
</event>
<event>
 4    1  0.7145298E-006  0.7616972E+03  0.7818608E-02  0.9617176E-01
         -1   -1    0    0    0  501 -0.00000000000E+00  0.00000000000E+00  0.92855332365E+02  0.92855332502E+02  0.50400000000E-02 0. -1.
          1   -1    0    0  501    0  0.00000000000E+00 -0.00000000000E+00 -0.15620605072E+04  0.15620605072E+04  0.50400000000E-02 0.  1.
    5000001    1    1    2    0    0 -0.30641524526E+03  0.77718425372E+02 -0.93195929893E+03  0.10026677371E+04  0.19200000000E+03 0.  0.
   -5000001    1    1    2    0    0  0.30641524526E+03 -0.77718425372E+02 -0.53724587590E+03  0.65224810260E+03  0.19200000000E+03 0.  0.
<mgrwt>
<rscale>  0 0.76169718E+03</rscale>
<asrwt>0</asrwt>
<pdfrwt beam="1">  1        1 0.22315149E+00 0.76169718E+03</pdfrwt>
<pdfrwt beam="2">  1       -1 0.13265048E-01 0.76169718E+03</pdfrwt>
<totfact> 0.28903606E+02</totfact>
</mgrwt>
</event>
<event>
 4    1  0.7145298E-006  0.5136970E+03  0.7818608E-02  0.1010264E+00
          1   -1    0    0  501    0  0.00000000000E+00  0.00000000000E+00  0.15836264218E+04  0.15836264218E+04  0.50400000000E-02 0.  1.
         -1   -1    0    0    0  501 -0.00000000000E+00 -0.00000000000E+00 -0.41658278794E+02  0.41658279099E+02  0.50400000000E-02 0. -1.
    5000001    1    1    2    0    0  0.10510371695E+03  0.10067287677E+03  0.48932019832E+03  0.54541734105E+03  0.19200000000E+03 0.  0.
   -5000001    1    1    2    0    0 -0.10510371695E+03 -0.10067287677E+03  0.10526479447E+04  0.10798673599E+04  0.19200000000E+03 0.  0.
<mgrwt>
<rscale>  0 0.51369700E+03</rscale>
<asrwt>0</asrwt>
<pdfrwt beam="1">  1        1 0.22623237E+00 0.51369700E+03</pdfrwt>
<pdfrwt beam="2">  1       -1 0.59511822E-02 0.51369700E+03</pdfrwt>
<totfact> 0.10001597E+03</totfact>
</mgrwt>
</event>
<event>
 4    1  0.7145298E-006  0.9814112E+03  0.7818608E-02  0.9329171E-01
          1   -1    0    0  501    0  0.00000000000E+00  0.00000000000E+00  0.94604437458E+03  0.94604437459E+03  0.50400000000E-02 0.  1.
         -1   -1    0    0    0  501 -0.00000000000E+00 -0.00000000000E+00 -0.25452506439E+03  0.25452506444E+03  0.50400000000E-02 0. -1.
    5000001    1    1    2    0    0 -0.44689300195E+03 -0.28055890316E+02  0.27414101348E+03  0.55903290014E+03  0.19200000000E+03 0.  0.
   -5000001    1    1    2    0    0  0.44689300195E+03  0.28055890316E+02  0.41737829670E+03  0.64153653889E+03  0.19200000000E+03 0.  0.
<mgrwt>
<rscale>  0 0.98141124E+03</rscale>
<asrwt>0</asrwt>
<pdfrwt beam="1">  1        1 0.13514920E+00 0.98141124E+03</pdfrwt>
<pdfrwt beam="2">  1       -1 0.36360724E-01 0.98141124E+03</pdfrwt>
<totfact> 0.13763018E+02</totfact>
</mgrwt>
</event>
<event>
 4    1  0.7145298E-006  0.5408503E+03  0.7818608E-02  0.1003634E+00
         -1   -1    0    0    0  501 -0.00000000000E+00  0.00000000000E+00  0.22818646647E+03  0.22818646652E+03  0.50400000000E-02 0. -1.
          1   -1    0    0  501    0  0.00000000000E+00 -0.00000000000E+00 -0.32048244509E+03  0.32048244513E+03  0.50400000000E-02 0.  1.
    5000001    1    1    2    0    0  0.49615160890E+02  0.17769151727E+03  0.17555858320E+01  0.26627621295E+03  0.19200000000E+03 0.  0.
   -5000001    1    1    2    0    0 -0.49615160890E+02 -0.17769151727E+03 -0.94051564453E+02  0.28239269870E+03  0.19200000000E+03 0.  0.
<mgrwt>
<rscale>  0 0.54085028E+03</rscale>
<asrwt>0</asrwt>
<pdfrwt beam="1">  1        1 0.45783206E-01 0.54085028E+03</pdfrwt>
<pdfrwt beam="2">  1       -1 0.32598067E-01 0.54085028E+03</pdfrwt>
<totfact> 0.78488587E+02</totfact>
</mgrwt>
</event>
<event>
 4    1  0.7145298E-006  0.5739658E+03  0.7818608E-02  0.9960941E-01
         -1   -1    0    0    0  501 -0.00000000000E+00  0.00000000000E+00  0.25200201665E+03  0.25200201670E+03  0.50400000000E-02 0.  1.
          1   -1    0    0  501    0  0.00000000000E+00 -0.00000000000E+00 -0.32681951491E+03  0.32681951495E+03  0.50400000000E-02 0. -1.
    5000001    1    1    2    0    0  0.96407847553E+02 -0.89448371236E+02  0.13193956260E+03  0.26752108770E+03  0.19200000000E+03 0.  0.
   -5000001    1    1    2    0    0 -0.96407847553E+02  0.89448371236E+02 -0.20675706086E+03  0.31130044395E+03  0.19200000000E+03 0.  0.
<mgrwt>
<rscale>  0 0.57396577E+03</rscale>
<asrwt>0</asrwt>
<pdfrwt beam="1">  1        1 0.46688502E-01 0.57396577E+03</pdfrwt>
<pdfrwt beam="2">  1       -1 0.36000288E-01 0.57396577E+03</pdfrwt>
<totfact> 0.64203647E+02</totfact>
</mgrwt>
</event>
<event>
 4    1  0.7145298E-006  0.3972034E+03  0.7818608E-02  0.1044752E+00
          1   -1    0    0  501    0  0.00000000000E+00  0.00000000000E+00  0.90604794810E+02  0.90604794950E+02  0.50400000000E-02 0.  1.
         -1   -1    0    0    0  501 -0.00000000000E+00 -0.00000000000E+00 -0.43532617410E+03  0.43532617413E+03  0.50400000000E-02 0. -1.
    5000001    1    1    2    0    0  0.30811972946E+02 -0.39169775911E+02 -0.15945580783E+03  0.25450698158E+03  0.19200000000E+03 0.  0.
   -5000001    1    1    2    0    0 -0.30811972946E+02  0.39169775911E+02 -0.18526557146E+03  0.27142398750E+03  0.19200000000E+03 0.  0.
<mgrwt>
<rscale>  0 0.39720342E+03</rscale>
<asrwt>0</asrwt>
<pdfrwt beam="1">  1        1 0.12943542E-01 0.39720342E+03</pdfrwt>
<pdfrwt beam="2">  1       -1 0.62189452E-01 0.39720342E+03</pdfrwt>
<totfact> 0.12348665E+03</totfact>
</mgrwt>
</event>
<event>
 4    1  0.7145298E-006  0.4693112E+03  0.7818608E-02  0.1022115E+00
         -1   -1    0    0    0  501 -0.00000000000E+00  0.00000000000E+00  0.50880899610E+03  0.50880899613E+03  0.50400000000E-02 0. -1.
          1   -1    0    0  501    0  0.00000000000E+00 -0.00000000000E+00 -0.10821988062E+03  0.10821988074E+03  0.50400000000E-02 0.  1.
    5000001    1    1    2    0    0 -0.13034094333E+03 -0.44550977131E+01  0.15492811646E+03  0.27906151773E+03  0.19200000000E+03 0.  0.
   -5000001    1    1    2    0    0  0.13034094333E+03  0.44550977131E+01  0.24566099902E+03  0.33796735914E+03  0.19200000000E+03 0.  0.
<mgrwt>
<rscale>  0 0.46931119E+03</rscale>
<asrwt>0</asrwt>
<pdfrwt beam="1">  1        1 0.15459983E-01 0.46931119E+03</pdfrwt>
<pdfrwt beam="2">  1       -1 0.72687001E-01 0.46931119E+03</pdfrwt>
<totfact> 0.71289308E+02</totfact>
</mgrwt>
</event>
<event>
 4    1  0.7145298E-006  0.5536109E+03  0.7818608E-02  0.1000662E+00
          1   -1    0    0  501    0  0.00000000000E+00  0.00000000000E+00  0.12191196658E+03  0.12191196669E+03  0.50400000000E-02 0.  1.
         -1   -1    0    0    0  501 -0.00000000000E+00 -0.00000000000E+00 -0.62849666637E+03  0.62849666639E+03  0.50400000000E-02 0. -1.
    5000001    1    1    2    0    0  0.70069781629E+01  0.17987465146E+03 -0.13705823279E+03  0.29673716848E+03  0.19200000000E+03 0.  0.
   -5000001    1    1    2    0    0 -0.70069781629E+01 -0.17987465146E+03 -0.36952646700E+03  0.45367146460E+03  0.19200000000E+03 0.  0.
<mgrwt>
<rscale>  0 0.55361093E+03</rscale>
<asrwt>0</asrwt>
<pdfrwt beam="1">  1        1 0.17415996E-01 0.55361093E+03</pdfrwt>
<pdfrwt beam="2">  1       -1 0.89785236E-01 0.55361093E+03</pdfrwt>
<totfact> 0.38872438E+02</totfact>
</mgrwt>
</event>
<event>
 4    1  0.7145298E-006  0.5667563E+03  0.7818608E-02  0.9976882E-01
         -1   -1    0    0    0  501 -0.00000000000E+00  0.00000000000E+00  0.32270377812E+02  0.32270378206E+02  0.50400000000E-02 0. -1.
          1   -1    0    0  501    0  0.00000000000E+00 -0.00000000000E+00 -0.24884483284E+04  0.24884483284E+04  0.50400000000E-02 0.  1.
    5000001    1    1    2    0    0  0.14132759340E+03  0.30975655677E+02 -0.18953242883E+04  0.19105107008E+04  0.19200000000E+03 0.  0.
   -5000001    1    1    2    0    0 -0.14132759340E+03 -0.30975655677E+02 -0.56085366229E+03  0.61020800585E+03  0.19200000000E+03 0.  0.
<mgrwt>
<rscale>  0 0.56675627E+03</rscale>
<asrwt>0</asrwt>
<pdfrwt beam="1">  1        1 0.35549250E+00 0.56675627E+03</pdfrwt>
<pdfrwt beam="2">  1       -1 0.46100556E-02 0.56675627E+03</pdfrwt>
<totfact> 0.40535385E+02</totfact>
</mgrwt>
</event>
<event>
 4    1  0.7145298E-006  0.5465330E+03  0.7818608E-02  0.1002300E+00
         -1   -1    0    0    0  501 -0.00000000000E+00  0.00000000000E+00  0.15199944507E+03  0.15199944515E+03  0.50400000000E-02 0. -1.
          1   -1    0    0  501    0  0.00000000000E+00 -0.00000000000E+00 -0.49128192166E+03  0.49128192168E+03  0.50400000000E-02 0.  1.
    5000001    1    1    2    0    0 -0.16466932663E+03 -0.24852964569E+02 -0.51487207247E+02  0.25932333001E+03  0.19200000000E+03 0.  0.
   -5000001    1    1    2    0    0  0.16466932663E+03  0.24852964569E+02 -0.28779526935E+03  0.38395803682E+03  0.19200000000E+03 0.  0.
<mgrwt>
<rscale>  0 0.54653300E+03</rscale>
<asrwt>0</asrwt>
<pdfrwt beam="1">  1        1 0.70183131E-01 0.54653300E+03</pdfrwt>
<pdfrwt beam="2">  1       -1 0.21714207E-01 0.54653300E+03</pdfrwt>
<totfact> 0.89885950E+02</totfact>
</mgrwt>
</event>
<event>
 4    1  0.7145298E-006  0.4998303E+03  0.7818608E-02  0.1013823E+00
          1   -1    0    0  501    0  0.00000000000E+00  0.00000000000E+00  0.22311723218E+04  0.22311723218E+04  0.50400000000E-02 0.  1.
         -1   -1    0    0    0  501 -0.00000000000E+00 -0.00000000000E+00 -0.27993169820E+02  0.27993170274E+02  0.50400000000E-02 0. -1.
    5000001    1    1    2    0    0  0.14842378222E+03  0.43736512273E+02  0.12852476872E+04  0.13086894662E+04  0.19200000000E+03 0.  0.
   -5000001    1    1    2    0    0 -0.14842378222E+03 -0.43736512273E+02  0.91793146477E+03  0.95047602582E+03  0.19200000000E+03 0.  0.
<mgrwt>
<rscale>  0 0.49983032E+03</rscale>
<asrwt>0</asrwt>
<pdfrwt beam="1">  1        1 0.31873888E+00 0.49983032E+03</pdfrwt>
<pdfrwt beam="2">  1       -1 0.39990246E-02 0.49983032E+03</pdfrwt>
<totfact> 0.72938726E+02</totfact>
</mgrwt>
</event>
<event>
 4    1  0.7145298E-006  0.6517059E+03  0.7818608E-02  0.9803583E-01
          1   -1    0    0  501    0  0.00000000000E+00  0.00000000000E+00  0.31299500171E+03  0.31299500175E+03  0.50400000000E-02 0.  1.
         -1   -1    0    0    0  501 -0.00000000000E+00 -0.00000000000E+00 -0.33923907579E+03  0.33923907583E+03  0.50400000000E-02 0. -1.
    5000001    1    1    2    0    0 -0.59640685495E+02 -0.20889782275E+03 -0.16197329107E+03  0.33210639671E+03  0.19200000000E+03 0.  0.
   -5000001    1    1    2    0    0  0.59640685495E+02  0.20889782275E+03  0.13572921699E+03  0.32012768087E+03  0.19200000000E+03 0.  0.
<mgrwt>
<rscale>  0 0.65170587E+03</rscale>
<asrwt>0</asrwt>
<pdfrwt beam="1">  1        1 0.44713572E-01 0.65170587E+03</pdfrwt>
<pdfrwt beam="2">  1       -1 0.48462725E-01 0.65170587E+03</pdfrwt>
<totfact> 0.39373407E+02</totfact>
</mgrwt>
</event>
<event>
 4    1  0.7145298E-006  0.5162773E+03  0.7818608E-02  0.1009616E+00
          1   -1    0    0  501    0  0.00000000000E+00  0.00000000000E+00  0.25313888319E+04  0.25313888319E+04  0.50400000000E-02 0. -1.
         -1   -1    0    0    0  501 -0.00000000000E+00 -0.00000000000E+00 -0.26323711852E+02  0.26323712335E+02  0.50400000000E-02 0.  1.
    5000001    1    1    2    0    0  0.17054518002E+03 -0.26049061933E+02  0.12659534178E+04  0.12920008778E+04  0.19200000000E+03 0.  0.
   -5000001    1    1    2    0    0 -0.17054518002E+03  0.26049061933E+02  0.12391117022E+04  0.12657116664E+04  0.19200000000E+03 0.  0.
<mgrwt>
<rscale>  0 0.51627725E+03</rscale>
<asrwt>0</asrwt>
<pdfrwt beam="1">  1        1 0.36162664E+00 0.51627725E+03</pdfrwt>
<pdfrwt beam="2">  1       -1 0.37605337E-02 0.51627725E+03</pdfrwt>
<totfact> 0.52151796E+02</totfact>
</mgrwt>
</event>
<event>
 4    1  0.7145298E-006  0.7480163E+03  0.7818608E-02  0.9638468E-01
         -1   -1    0    0    0  501 -0.00000000000E+00  0.00000000000E+00  0.78371504402E+02  0.78371504564E+02  0.50400000000E-02 0. -1.
          1   -1    0    0  501    0  0.00000000000E+00 -0.00000000000E+00 -0.17848589840E+04  0.17848589840E+04  0.50400000000E-02 0.  1.
    5000001    1    1    2    0    0  0.22652170771E+03  0.22556914792E+03 -0.92477016021E+03  0.99712455279E+03  0.19200000000E+03 0.  0.
   -5000001    1    1    2    0    0 -0.22652170771E+03 -0.22556914792E+03 -0.78171731934E+03  0.86610593574E+03  0.19200000000E+03 0.  0.
<mgrwt>
<rscale>  0 0.74801627E+03</rscale>
<asrwt>0</asrwt>
<pdfrwt beam="1">  1        1 0.25497983E+00 0.74801627E+03</pdfrwt>
<pdfrwt beam="2">  1       -1 0.11195930E-01 0.74801627E+03</pdfrwt>
<totfact> 0.27447222E+02</totfact>
</mgrwt>
</event>
<event>
 4    1  0.7145298E-006  0.5701373E+03  0.7818608E-02  0.9969375E-01
          1   -1    0    0  501    0  0.00000000000E+00  0.00000000000E+00  0.35265653317E+03  0.35265653320E+03  0.50400000000E-02 0.  1.
         -1   -1    0    0    0  501 -0.00000000000E+00 -0.00000000000E+00 -0.23043422615E+03  0.23043422620E+03  0.50400000000E-02 0. -1.
    5000001    1    1    2    0    0 -0.15650096627E+03  0.94543673299E+02  0.16822404454E+03  0.31399743274E+03  0.19200000000E+03 0.  0.
   -5000001    1    1    2    0    0  0.15650096627E+03 -0.94543673299E+02 -0.46001737520E+02  0.26909332667E+03  0.19200000000E+03 0.  0.
<mgrwt>
<rscale>  0 0.57013730E+03</rscale>
<asrwt>0</asrwt>
<pdfrwt beam="1">  1        1 0.50379504E-01 0.57013730E+03</pdfrwt>
<pdfrwt beam="2">  1       -1 0.32919175E-01 0.57013730E+03</pdfrwt>
<totfact> 0.68166875E+02</totfact>
</mgrwt>
</event>
<event>
 4    1  0.7145298E-006  0.6439622E+03  0.7818608E-02  0.9818175E-01
         -1   -1    0    0    0  501 -0.00000000000E+00  0.00000000000E+00  0.73091977168E+02  0.73091977342E+02  0.50400000000E-02 0. -1.
          1   -1    0    0  501    0  0.00000000000E+00 -0.00000000000E+00 -0.14183750242E+04  0.14183750242E+04  0.50400000000E-02 0.  1.
    5000001    1    1    2    0    0  0.15614463300E+03  0.17880635448E+03 -0.43582348216E+03  0.53212683302E+03  0.19200000000E+03 0.  0.
   -5000001    1    1    2    0    0 -0.15614463300E+03 -0.17880635448E+03 -0.90945956483E+03  0.95934016849E+03  0.19200000000E+03 0.  0.
<mgrwt>
<rscale>  0 0.64396222E+03</rscale>
<asrwt>0</asrwt>
<pdfrwt beam="1">  1        1 0.20262499E+00 0.64396222E+03</pdfrwt>
<pdfrwt beam="2">  1       -1 0.10441712E-01 0.64396222E+03</pdfrwt>
<totfact> 0.52815874E+02</totfact>
</mgrwt>
</event>
<event>
 4    1  0.7145298E-006  0.4898230E+03  0.7818608E-02  0.1016470E+00
          1   -1    0    0  501    0  0.00000000000E+00  0.00000000000E+00  0.32225313118E+03  0.32225313122E+03  0.50400000000E-02 0.  1.
         -1   -1    0    0    0  501 -0.00000000000E+00 -0.00000000000E+00 -0.18613207653E+03  0.18613207660E+03  0.50400000000E-02 0. -1.
    5000001    1    1    2    0    0  0.10947792472E+02  0.15127916744E+03  0.57056686458E+02  0.25124630571E+03  0.19200000000E+03 0.  0.
   -5000001    1    1    2    0    0 -0.10947792472E+02 -0.15127916744E+03  0.79064368186E+02  0.25713890211E+03  0.19200000000E+03 0.  0.
<mgrwt>
<rscale>  0 0.48982301E+03</rscale>
<asrwt>0</asrwt>
<pdfrwt beam="1">  1        1 0.46036161E-01 0.48982301E+03</pdfrwt>
<pdfrwt beam="2">  1       -1 0.26590297E-01 0.48982301E+03</pdfrwt>
<totfact> 0.11080823E+03</totfact>
</mgrwt>
</event>
<event>
 4    1  0.7145298E-006  0.7050601E+03  0.7818608E-02  0.9708618E-01
         -1   -1    0    0    0  501 -0.00000000000E+00  0.00000000000E+00  0.28762765606E+03  0.28762765610E+03  0.50400000000E-02 0. -1.
          1   -1    0    0  501    0  0.00000000000E+00 -0.00000000000E+00 -0.43207752728E+03  0.43207752731E+03  0.50400000000E-02 0.  1.
    5000001    1    1    2    0    0  0.32986951569E+02  0.28990569722E+03 -0.23483833682E+02  0.35006991116E+03  0.19200000000E+03 0.  0.
   -5000001    1    1    2    0    0 -0.32986951569E+02 -0.28990569722E+03 -0.12096603754E+03  0.36963527225E+03  0.19200000000E+03 0.  0.
<mgrwt>
<rscale>  0 0.70506013E+03</rscale>
<asrwt>0</asrwt>
<pdfrwt beam="1">  1        1 0.61725361E-01 0.70506013E+03</pdfrwt>
<pdfrwt beam="2">  1       -1 0.41089665E-01 0.70506013E+03</pdfrwt>
<totfact> 0.35026008E+02</totfact>
</mgrwt>
</event>
<event>
 4    1  0.7145298E-006  0.5641825E+03  0.7818608E-02  0.9982635E-01
         -1   -1    0    0    0  501 -0.00000000000E+00  0.00000000000E+00  0.29155694329E+02  0.29155694765E+02  0.50400000000E-02 0. -1.
          1   -1    0    0  501    0  0.00000000000E+00 -0.00000000000E+00 -0.27293291316E+04  0.27293291316E+04  0.50400000000E-02 0.  1.
    5000001    1    1    2    0    0  0.79380602359E+02  0.18794571944E+03 -0.11889151613E+04  0.12214778484E+04  0.19200000000E+03 0.  0.
   -5000001    1    1    2    0    0 -0.79380602359E+02 -0.18794571944E+03 -0.15112582760E+04  0.15370069779E+04  0.19200000000E+03 0.  0.
<mgrwt>
<rscale>  0 0.56418255E+03</rscale>
<asrwt>0</asrwt>
<pdfrwt beam="1">  1        1 0.38990400E+00 0.56418255E+03</pdfrwt>
<pdfrwt beam="2">  1       -1 0.41651010E-02 0.56418255E+03</pdfrwt>
<totfact> 0.33426772E+02</totfact>
</mgrwt>
</event>
<event>
 4    1  0.7145298E-006  0.8894335E+03  0.7818608E-02  0.9438887E-01
         -1   -1    0    0    0  501 -0.00000000000E+00  0.00000000000E+00  0.11426406792E+04  0.11426406792E+04  0.50400000000E-02 0. -1.
          1   -1    0    0  501    0  0.00000000000E+00 -0.00000000000E+00 -0.17308414817E+03  0.17308414824E+03  0.50400000000E-02 0.  1.
    5000001    1    1    2    0    0  0.19474371180E+03 -0.25400342433E+03  0.12709075052E+03  0.39428278142E+03  0.19200000000E+03 0.  0.
   -5000001    1    1    2    0    0 -0.19474371180E+03  0.25400342433E+03  0.84246578047E+03  0.92144204599E+03  0.19200000000E+03 0.  0.
<mgrwt>
<rscale>  0 0.88943350E+03</rscale>
<asrwt>0</asrwt>
<pdfrwt beam="1">  1        1 0.24726308E-01 0.88943350E+03</pdfrwt>
<pdfrwt beam="2">  1       -1 0.16323438E+00 0.88943350E+03</pdfrwt>
<totfact> 0.55282644E+01</totfact>
</mgrwt>
</event>
<event>
 4    1  0.7145298E-006  0.4725131E+03  0.7818608E-02  0.1021213E+00
          1   -1    0    0  501    0  0.00000000000E+00  0.00000000000E+00  0.10357128774E+04  0.10357128775E+04  0.50400000000E-02 0.  1.
         -1   -1    0    0    0  501 -0.00000000000E+00 -0.00000000000E+00 -0.53892506715E+02  0.53892506950E+02  0.50400000000E-02 0. -1.
    5000001    1    1    2    0    0 -0.22355918848E+02  0.13032370294E+03  0.57929595065E+03  0.62444523627E+03  0.19200000000E+03 0.  0.
   -5000001    1    1    2    0    0  0.22355918848E+02 -0.13032370294E+03  0.40252442007E+03  0.46516014813E+03  0.19200000000E+03 0.  0.
<mgrwt>
<rscale>  0 0.47251313E+03</rscale>
<asrwt>0</asrwt>
<pdfrwt beam="1">  1        1 0.14795898E+00 0.47251313E+03</pdfrwt>
<pdfrwt beam="2">  1       -1 0.76989296E-02 0.47251313E+03</pdfrwt>
<totfact> 0.15602709E+03</totfact>
</mgrwt>
</event>
<event>
 4    1  0.7145298E-006  0.6938413E+03  0.7818608E-02  0.9727823E-01
          1   -1    0    0  501    0  0.00000000000E+00  0.00000000000E+00  0.21491282181E+04  0.21491282181E+04  0.50400000000E-02 0. -1.
         -1   -1    0    0    0  501 -0.00000000000E+00 -0.00000000000E+00 -0.56001278411E+02  0.56001278638E+02  0.50400000000E-02 0.  1.
    5000001    1    1    2    0    0  0.21988794527E+03  0.63912563699E+01  0.45115165165E+03  0.53739498455E+03  0.19200000000E+03 0.  0.
   -5000001    1    1    2    0    0 -0.21988794527E+03 -0.63912563699E+01  0.16419752880E+04  0.16677345122E+04  0.19200000000E+03 0.  0.
<mgrwt>
<rscale>  0 0.69384127E+03</rscale>
<asrwt>0</asrwt>
<pdfrwt beam="1">  1        1 0.30701834E+00 0.69384127E+03</pdfrwt>
<pdfrwt beam="2">  1       -1 0.80001820E-02 0.69384127E+03</pdfrwt>
<totfact> 0.27811949E+02</totfact>
</mgrwt>
</event>
<event>
 4    1  0.7145298E-006  0.1037998E+04  0.7818608E-02  0.9267824E-01
         -1   -1    0    0    0  501 -0.00000000000E+00  0.00000000000E+00  0.29696245433E+03  0.29696245437E+03  0.50400000000E-02 0. -1.
          1   -1    0    0  501    0  0.00000000000E+00 -0.00000000000E+00 -0.90704997006E+03  0.90704997007E+03  0.50400000000E-02 0.  1.
    5000001    1    1    2    0    0  0.35345722731E+03  0.16058447131E+02  0.74923692854E+02  0.40947215414E+03  0.19200000000E+03 0.  0.
   -5000001    1    1    2    0    0 -0.35345722731E+03 -0.16058447131E+02 -0.68501120858E+03  0.79454027031E+03  0.19200000000E+03 0.  0.
<mgrwt>
<rscale>  0 0.10379977E+04</rscale>
<asrwt>0</asrwt>
<pdfrwt beam="1">  1        1 0.12957857E+00 0.10379977E+04</pdfrwt>
<pdfrwt beam="2">  1       -1 0.42423208E-01 0.10379977E+04</pdfrwt>
<totfact> 0.11108899E+02</totfact>
</mgrwt>
</event>
<event>
 4    1  0.7145298E-006  0.4752275E+03  0.7818608E-02  0.1020455E+00
          1   -1    0    0  501    0  0.00000000000E+00  0.00000000000E+00  0.12228768836E+04  0.12228768836E+04  0.50400000000E-02 0.  1.
         -1   -1    0    0    0  501 -0.00000000000E+00 -0.00000000000E+00 -0.46170058105E+02  0.46170058380E+02  0.50400000000E-02 0. -1.
    5000001    1    1    2    0    0  0.52468487223E+02 -0.12664691854E+03  0.51263864565E+03  0.56431796458E+03  0.19200000000E+03 0.  0.
   -5000001    1    1    2    0    0 -0.52468487223E+02  0.12664691854E+03  0.66406817984E+03  0.70472897741E+03  0.19200000000E+03 0.  0.
<mgrwt>
<rscale>  0 0.47522751E+03</rscale>
<asrwt>0</asrwt>
<pdfrwt beam="1">  1        1 0.17469670E+00 0.47522751E+03</pdfrwt>
<pdfrwt beam="2">  1       -1 0.65957224E-02 0.47522751E+03</pdfrwt>
<totfact> 0.14670041E+03</totfact>
</mgrwt>
</event>
<event>
 4    1  0.7145298E-006  0.4711149E+03  0.7818608E-02  0.1021606E+00
          1   -1    0    0  501    0  0.00000000000E+00  0.00000000000E+00  0.58391877667E+03  0.58391877669E+03  0.50400000000E-02 0. -1.
         -1   -1    0    0    0  501 -0.00000000000E+00 -0.00000000000E+00 -0.95025727434E+02  0.95025727567E+02  0.50400000000E-02 0.  1.
    5000001    1    1    2    0    0 -0.11264565754E+02 -0.13561766891E+03  0.25916201230E+03  0.35006855212E+03  0.19200000000E+03 0.  0.
   -5000001    1    1    2    0    0  0.11264565754E+02  0.13561766891E+03  0.22973103694E+03  0.32887595214E+03  0.19200000000E+03 0.  0.
<mgrwt>
<rscale>  0 0.47111488E+03</rscale>
<asrwt>0</asrwt>
<pdfrwt beam="1">  1        1 0.83416971E-01 0.47111488E+03</pdfrwt>
<pdfrwt beam="2">  1       -1 0.13575103E-01 0.47111488E+03</pdfrwt>
<totfact> 0.15306304E+03</totfact>
</mgrwt>
</event>
<event>
 4    1  0.7145298E-006  0.5991333E+03  0.7818608E-02  0.9907206E-01
         -1   -1    0    0    0  501 -0.00000000000E+00  0.00000000000E+00  0.12470465167E+03  0.12470465177E+03  0.50400000000E-02 0.  1.
          1   -1    0    0  501    0  0.00000000000E+00 -0.00000000000E+00 -0.71962170002E+03  0.71962170004E+03  0.50400000000E-02 0. -1.
    5000001    1    1    2    0    0  0.40231979050E+02 -0.21536248549E+03 -0.39586954458E+03  0.49150412880E+03  0.19200000000E+03 0.  0.
   -5000001    1    1    2    0    0 -0.40231979050E+02  0.21536248549E+03 -0.19904750377E+03  0.35282222301E+03  0.19200000000E+03 0.  0.
<mgrwt>
<rscale>  0 0.59913329E+03</rscale>
<asrwt>0</asrwt>
<pdfrwt beam="1">  1        1 0.10280310E+00 0.59913329E+03</pdfrwt>
<pdfrwt beam="2">  1       -1 0.17814951E-01 0.59913329E+03</pdfrwt>
<totfact> 0.73028855E+02</totfact>
</mgrwt>
</event>
<event>
 4    1  0.7145298E-006  0.6995736E+03  0.7818608E-02  0.9717962E-01
          1   -1    0    0  501    0  0.00000000000E+00  0.00000000000E+00  0.13350242979E+04  0.13350242979E+04  0.50400000000E-02 0.  1.
         -1   -1    0    0    0  501 -0.00000000000E+00 -0.00000000000E+00 -0.91646882873E+02  0.91646883012E+02  0.50400000000E-02 0. -1.
    5000001    1    1    2    0    0 -0.30310951785E+02 -0.29078182014E+03  0.62931782760E+03  0.71998454765E+03  0.19200000000E+03 0.  0.
   -5000001    1    1    2    0    0  0.30310951785E+02  0.29078182014E+03  0.61405958740E+03  0.70668663324E+03  0.19200000000E+03 0.  0.
<mgrwt>
<rscale>  0 0.69957363E+03</rscale>
<asrwt>0</asrwt>
<pdfrwt beam="1">  1        1 0.19071777E+00 0.69957363E+03</pdfrwt>
<pdfrwt beam="2">  1       -1 0.13092411E-01 0.69957363E+03</pdfrwt>
<totfact> 0.41638425E+02</totfact>
</mgrwt>
</event>
<event>
 4    1  0.7145298E-006  0.8761912E+03  0.7818608E-02  0.9455843E-01
          1   -1    0    0  501    0  0.00000000000E+00  0.00000000000E+00  0.10918820681E+03  0.10918820693E+03  0.50400000000E-02 0.  1.
         -1   -1    0    0    0  501 -0.00000000000E+00 -0.00000000000E+00 -0.17577698478E+04  0.17577698478E+04  0.50400000000E-02 0. -1.
    5000001    1    1    2    0    0 -0.22084205098E+03 -0.54571631130E+02 -0.13940802774E+03  0.32870636228E+03  0.19200000000E+03 0.  0.
   -5000001    1    1    2    0    0  0.22084205098E+03  0.54571631130E+02 -0.15091736133E+04  0.15382516925E+04  0.19200000000E+03 0.  0.
<mgrwt>
<rscale>  0 0.87619116E+03</rscale>
<asrwt>0</asrwt>
<pdfrwt beam="1">  1        1 0.15598316E-01 0.87619116E+03</pdfrwt>
<pdfrwt beam="2">  1       -1 0.25110996E+00 0.87619116E+03</pdfrwt>
<totfact> 0.25599762E+01</totfact>
</mgrwt>
</event>
<event>
 4    1  0.7145298E-006  0.5337726E+03  0.7818608E-02  0.1005321E+00
          1   -1    0    0  501    0  0.00000000000E+00  0.00000000000E+00  0.72288005680E+03  0.72288005682E+03  0.50400000000E-02 0. -1.
         -1   -1    0    0    0  501 -0.00000000000E+00 -0.00000000000E+00 -0.98534063584E+02  0.98534063713E+02  0.50400000000E-02 0.  1.
    5000001    1    1    2    0    0  0.14213733231E+03 -0.11269091742E+03  0.25333115118E+03  0.36598215293E+03  0.19200000000E+03 0.  0.
   -5000001    1    1    2    0    0 -0.14213733231E+03  0.11269091742E+03  0.37101484203E+03  0.45543196760E+03  0.19200000000E+03 0.  0.
<mgrwt>
<rscale>  0 0.53377265E+03</rscale>
<asrwt>0</asrwt>
<pdfrwt beam="1">  1        1 0.10326858E+00 0.53377265E+03</pdfrwt>
<pdfrwt beam="2">  1       -1 0.14076294E-01 0.53377265E+03</pdfrwt>
<totfact> 0.10650245E+03</totfact>
</mgrwt>
</event>
<event>
 4    1  0.7145298E-006  0.9670818E+03  0.7818608E-02  0.9345404E-01
          1   -1    0    0  501    0  0.00000000000E+00  0.00000000000E+00  0.12958289093E+04  0.12958289093E+04  0.50400000000E-02 0.  1.
         -1   -1    0    0    0  501 -0.00000000000E+00 -0.00000000000E+00 -0.18043416643E+03  0.18043416650E+03  0.50400000000E-02 0. -1.
    5000001    1    1    2    0    0 -0.37927098725E+03  0.17795818977E+03  0.78117498202E+03  0.90698067875E+03  0.19200000000E+03 0.  0.
   -5000001    1    1    2    0    0  0.37927098725E+03 -0.17795818977E+03  0.33421976089E+03  0.56928239710E+03  0.19200000000E+03 0.  0.
<mgrwt>
<rscale>  0 0.96708181E+03</rscale>
<asrwt>0</asrwt>
<pdfrwt beam="1">  1        1 0.18511842E+00 0.96708181E+03</pdfrwt>
<pdfrwt beam="2">  1       -1 0.25776309E-01 0.96708181E+03</pdfrwt>
<totfact> 0.14156834E+02</totfact>
</mgrwt>
</event>
<event>
 4    1  0.7145298E-006  0.4959358E+03  0.7818608E-02  0.1014845E+00
         -1   -1    0    0    0  501 -0.00000000000E+00  0.00000000000E+00  0.16963882047E+03  0.16963882054E+03  0.50400000000E-02 0. -1.
          1   -1    0    0  501    0  0.00000000000E+00 -0.00000000000E+00 -0.36246470704E+03  0.36246470707E+03  0.50400000000E-02 0.  1.
    5000001    1    1    2    0    0  0.82713968028E+02 -0.12724012468E+03 -0.53597387043E+02  0.25053608469E+03  0.19200000000E+03 0.  0.
   -5000001    1    1    2    0    0 -0.82713968028E+02  0.12724012468E+03 -0.13922849952E+03  0.28156744292E+03  0.19200000000E+03 0.  0.
<mgrwt>
<rscale>  0 0.49593582E+03</rscale>
<asrwt>0</asrwt>
<pdfrwt beam="1">  1        1 0.51780672E-01 0.49593582E+03</pdfrwt>
<pdfrwt beam="2">  1       -1 0.24234117E-01 0.49593582E+03</pdfrwt>
<totfact> 0.11145317E+03</totfact>
</mgrwt>
</event>
<event>
 4    1  0.7145298E-006  0.6270969E+03  0.7818608E-02  0.9850730E-01
         -1   -1    0    0    0  501 -0.00000000000E+00  0.00000000000E+00  0.18331100391E+03  0.18331100398E+03  0.50400000000E-02 0. -1.
          1   -1    0    0  501    0  0.00000000000E+00 -0.00000000000E+00 -0.53631607601E+03  0.53631607603E+03  0.50400000000E-02 0.  1.
    5000001    1    1    2    0    0  0.20744458180E+03  0.13443831168E+03 -0.19771595534E+03  0.37021954725E+03  0.19200000000E+03 0.  0.
   -5000001    1    1    2    0    0 -0.20744458180E+03 -0.13443831168E+03 -0.15528911676E+03  0.34940753276E+03  0.19200000000E+03 0.  0.
<mgrwt>
<rscale>  0 0.62709693E+03</rscale>
<asrwt>0</asrwt>
<pdfrwt beam="1">  1        1 0.76616582E-01 0.62709693E+03</pdfrwt>
<pdfrwt beam="2">  1       -1 0.26187286E-01 0.62709693E+03</pdfrwt>
<totfact> 0.58097620E+02</totfact>
</mgrwt>
</event>
<event>
 4    1  0.7145298E-006  0.6057609E+03  0.7818608E-02  0.9893526E-01
         -1   -1    0    0    0  501 -0.00000000000E+00  0.00000000000E+00  0.77058547044E+02  0.77058547209E+02  0.50400000000E-02 0. -1.
          1   -1    0    0  501    0  0.00000000000E+00 -0.00000000000E+00 -0.11904788735E+04  0.11904788735E+04  0.50400000000E-02 0.  1.
    5000001    1    1    2    0    0 -0.12856753421E+03 -0.13536484893E+03 -0.85277320137E+03  0.89383409320E+03  0.19200000000E+03 0.  0.
   -5000001    1    1    2    0    0  0.12856753421E+03  0.13536484893E+03 -0.26064712504E+03  0.37370332748E+03  0.19200000000E+03 0.  0.
<mgrwt>
<rscale>  0 0.60576092E+03</rscale>
<asrwt>0</asrwt>
<pdfrwt beam="1">  1        1 0.17006840E+00 0.60576092E+03</pdfrwt>
<pdfrwt beam="2">  1       -1 0.11008365E-01 0.60576092E+03</pdfrwt>
<totfact> 0.69074354E+02</totfact>
</mgrwt>
</event>
<event>
 4    1  0.7145298E-006  0.4117248E+03  0.7818608E-02  0.1039794E+00
         -1   -1    0    0    0  501 -0.00000000000E+00  0.00000000000E+00  0.14119453820E+03  0.14119453829E+03  0.50400000000E-02 0.  1.
          1   -1    0    0  501    0  0.00000000000E+00 -0.00000000000E+00 -0.30014848480E+03  0.30014848484E+03  0.50400000000E-02 0. -1.
    5000001    1    1    2    0    0  0.13454788097E+02  0.52488298354E+02 -0.25036990545E+02  0.20106442670E+03  0.19200000000E+03 0.  0.
   -5000001    1    1    2    0    0 -0.13454788097E+02 -0.52488298354E+02 -0.13391695606E+03  0.24027859644E+03  0.19200000000E+03 0.  0.
<mgrwt>
<rscale>  0 0.41172480E+03</rscale>
<asrwt>0</asrwt>
<pdfrwt beam="1">  1        1 0.42878355E-01 0.41172480E+03</pdfrwt>
<pdfrwt beam="2">  1       -1 0.20170648E-01 0.41172480E+03</pdfrwt>
<totfact> 0.19244063E+03</totfact>
</mgrwt>
</event>
<event>
 4    1  0.7145298E-006  0.6488192E+03  0.7818608E-02  0.9808997E-01
          1   -1    0    0  501    0  0.00000000000E+00  0.00000000000E+00  0.91318119256E+03  0.91318119257E+03  0.50400000000E-02 0.  1.
         -1   -1    0    0    0  501 -0.00000000000E+00 -0.00000000000E+00 -0.11524719878E+03  0.11524719889E+03  0.50400000000E-02 0. -1.
    5000001    1    1    2    0    0 -0.16197371252E+03 -0.10591768122E+03  0.12022977594E+03  0.29794838104E+03  0.19200000000E+03 0.  0.
   -5000001    1    1    2    0    0  0.16197371252E+03  0.10591768122E+03  0.67770421785E+03  0.73048001042E+03  0.19200000000E+03 0.  0.
<mgrwt>
<rscale>  0 0.64881916E+03</rscale>
<asrwt>0</asrwt>
<pdfrwt beam="1">  1        1 0.13045445E+00 0.64881916E+03</pdfrwt>
<pdfrwt beam="2">  1       -1 0.16463886E-01 0.64881916E+03</pdfrwt>
<totfact> 0.57365777E+02</totfact>
</mgrwt>
</event>
<event>
 4    1  0.7145298E-006  0.5956006E+03  0.7818608E-02  0.9914576E-01
          1   -1    0    0  501    0  0.00000000000E+00  0.00000000000E+00  0.21012202514E+04  0.21012202514E+04  0.50400000000E-02 0.  1.
         -1   -1    0    0    0  501 -0.00000000000E+00 -0.00000000000E+00 -0.42206438862E+02  0.42206439163E+02  0.50400000000E-02 0. -1.
    5000001    1    1    2    0    0  0.15972966922E+03 -0.10368893272E+03  0.14783590793E+04  0.15028887282E+04  0.19200000000E+03 0.  0.
   -5000001    1    1    2    0    0 -0.15972966922E+03  0.10368893272E+03  0.58065473318E+03  0.64053796232E+03  0.19200000000E+03 0.  0.
<mgrwt>
<rscale>  0 0.59560062E+03</rscale>
<asrwt>0</asrwt>
<pdfrwt beam="1">  1        1 0.30017431E+00 0.59560062E+03</pdfrwt>
<pdfrwt beam="2">  1       -1 0.60294916E-02 0.59560062E+03</pdfrwt>
<totfact> 0.46531959E+02</totfact>
</mgrwt>
</event>
<event>
 4    1  0.7145298E-006  0.4097296E+03  0.7818608E-02  0.1040462E+00
         -1   -1    0    0    0  501 -0.00000000000E+00  0.00000000000E+00  0.16973735669E+03  0.16973735676E+03  0.50400000000E-02 0. -1.
          1   -1    0    0  501    0  0.00000000000E+00 -0.00000000000E+00 -0.24726191203E+03  0.24726191208E+03  0.50400000000E-02 0.  1.
    5000001    1    1    2    0    0  0.69836272007E+02  0.11506938017E+02 -0.28786900669E+02  0.20664510679E+03  0.19200000000E+03 0.  0.
   -5000001    1    1    2    0    0 -0.69836272007E+02 -0.11506938017E+02 -0.48737654671E+02  0.21035416205E+03  0.19200000000E+03 0.  0.
<mgrwt>
<rscale>  0 0.40972959E+03</rscale>
<asrwt>0</asrwt>
<pdfrwt beam="1">  1        1 0.35323130E-01 0.40972959E+03</pdfrwt>
<pdfrwt beam="2">  1       -1 0.24248194E-01 0.40972959E+03</pdfrwt>
<totfact> 0.18139886E+03</totfact>
</mgrwt>
</event>
<event>
 4    1  0.7145298E-006  0.7608058E+03  0.7818608E-02  0.9618549E-01
          1   -1    0    0  501    0  0.00000000000E+00  0.00000000000E+00  0.81445170464E+03  0.81445170465E+03  0.50400000000E-02 0.  1.
         -1   -1    0    0    0  501 -0.00000000000E+00 -0.00000000000E+00 -0.17767333824E+03  0.17767333831E+03  0.50400000000E-02 0. -1.
    5000001    1    1    2    0    0 -0.19720530930E+03  0.17084095308E+03  0.58344838578E+02  0.32915753896E+03  0.19200000000E+03 0.  0.
   -5000001    1    1    2    0    0  0.19720530930E+03 -0.17084095308E+03  0.57843352782E+03  0.66296750401E+03  0.19200000000E+03 0.  0.
<mgrwt>
<rscale>  0 0.76080577E+03</rscale>
<asrwt>0</asrwt>
<pdfrwt beam="1">  1        1 0.11635024E+00 0.76080577E+03</pdfrwt>
<pdfrwt beam="2">  1       -1 0.25381906E-01 0.76080577E+03</pdfrwt>
<totfact> 0.33273607E+02</totfact>
</mgrwt>
</event>
<event>
 4    1  0.7145298E-006  0.7025790E+03  0.7818608E-02  0.9712832E-01
          1   -1    0    0  501    0  0.00000000000E+00  0.00000000000E+00  0.18504402327E+03  0.18504402334E+03  0.50400000000E-02 0. -1.
         -1   -1    0    0    0  501 -0.00000000000E+00 -0.00000000000E+00 -0.66689160450E+03  0.66689160452E+03  0.50400000000E-02 0.  1.
    5000001    1    1    2    0    0  0.10747319242E+03  0.26590450638E+03 -0.32029580085E+03  0.47085995120E+03  0.19200000000E+03 0.  0.
   -5000001    1    1    2    0    0 -0.10747319242E+03 -0.26590450638E+03 -0.16155178038E+03  0.38107567666E+03  0.19200000000E+03 0.  0.
<mgrwt>
<rscale>  0 0.70257898E+03</rscale>
<asrwt>0</asrwt>
<pdfrwt beam="1">  1        1 0.26434861E-01 0.70257898E+03</pdfrwt>
<pdfrwt beam="2">  1       -1 0.95270228E-01 0.70257898E+03</pdfrwt>
<totfact> 0.19582979E+02</totfact>
</mgrwt>
</event>
<event>
 4    1  0.7145298E-006  0.7095681E+03  0.7818608E-02  0.9701008E-01
         -1   -1    0    0    0  501 -0.00000000000E+00  0.00000000000E+00  0.13312375813E+03  0.13312375822E+03  0.50400000000E-02 0. -1.
          1   -1    0    0  501    0  0.00000000000E+00 -0.00000000000E+00 -0.94552404004E+03  0.94552404005E+03  0.50400000000E-02 0.  1.
    5000001    1    1    2    0    0  0.27007298496E+02 -0.18359119208E+03 -0.51081973595E+02  0.27186115575E+03  0.19200000000E+03 0.  0.
   -5000001    1    1    2    0    0 -0.27007298496E+02  0.18359119208E+03 -0.76131830831E+03  0.80678664252E+03  0.19200000000E+03 0.  0.
<mgrwt>
<rscale>  0 0.70956808E+03</rscale>
<asrwt>0</asrwt>
<pdfrwt beam="1">  1        1 0.13507486E+00 0.70956808E+03</pdfrwt>
<pdfrwt beam="2">  1       -1 0.19017680E-01 0.70956808E+03</pdfrwt>
<totfact> 0.42625152E+02</totfact>
</mgrwt>
</event>
<event>
 4    1  0.7145298E-006  0.1426754E+04  0.7818608E-02  0.8934677E-01
         -1   -1    0    0    0  501 -0.00000000000E+00  0.00000000000E+00  0.30061398012E+03  0.30061398016E+03  0.50400000000E-02 0. -1.
          1   -1    0    0  501    0  0.00000000000E+00 -0.00000000000E+00 -0.16928909353E+04  0.16928909353E+04  0.50400000000E-02 0.  1.
    5000001    1    1    2    0    0 -0.14066326184E+03 -0.67213894300E+03 -0.72693372045E+03  0.10182600581E+04  0.19200000000E+03 0.  0.
   -5000001    1    1    2    0    0  0.14066326184E+03  0.67213894300E+03 -0.66534323477E+03  0.97524485745E+03  0.19200000000E+03 0.  0.
<mgrwt>
<rscale>  0 0.14267539E+04</rscale>
<asrwt>0</asrwt>
<pdfrwt beam="1">  1        1 0.24184156E+00 0.14267539E+04</pdfrwt>
<pdfrwt beam="2">  1       -1 0.42944855E-01 0.14267539E+04</pdfrwt>
<totfact> 0.30365351E+01</totfact>
</mgrwt>
</event>
<event>
 4    1  0.7145298E-006  0.7986179E+03  0.7818608E-02  0.9562020E-01
         -1   -1    0    0    0  501 -0.00000000000E+00  0.00000000000E+00  0.27488031166E+03  0.27488031171E+03  0.50400000000E-02 0. -1.
          1   -1    0    0  501    0  0.00000000000E+00 -0.00000000000E+00 -0.58006203757E+03  0.58006203759E+03  0.50400000000E-02 0.  1.
    5000001    1    1    2    0    0  0.15022133091E+03 -0.19789561327E+03 -0.41667613798E+03  0.52173951928E+03  0.19200000000E+03 0.  0.
   -5000001    1    1    2    0    0 -0.15022133091E+03  0.19789561327E+03  0.11149441207E+03  0.33320283003E+03  0.19200000000E+03 0.  0.
<mgrwt>
<rscale>  0 0.79861789E+03</rscale>
<asrwt>0</asrwt>
<pdfrwt beam="1">  1        1 0.82866005E-01 0.79861789E+03</pdfrwt>
<pdfrwt beam="2">  1       -1 0.39268616E-01 0.79861789E+03</pdfrwt>
<totfact> 0.25409032E+02</totfact>
</mgrwt>
</event>
<event>
 4    1  0.7145298E-006  0.8602471E+03  0.7818608E-02  0.9476686E-01
          1   -1    0    0  501    0  0.00000000000E+00  0.00000000000E+00  0.79072933177E+03  0.79072933179E+03  0.50400000000E-02 0. -1.
         -1   -1    0    0    0  501 -0.00000000000E+00 -0.00000000000E+00 -0.23396913806E+03  0.23396913811E+03  0.50400000000E-02 0.  1.
    5000001    1    1    2    0    0 -0.20741490727E+03 -0.26182186222E+03  0.50617242566E+03  0.63611803605E+03  0.19200000000E+03 0.  0.
   -5000001    1    1    2    0    0  0.20741490727E+03  0.26182186222E+03  0.50587768052E+02  0.38858043385E+03  0.19200000000E+03 0.  0.
<mgrwt>
<rscale>  0 0.86024708E+03</rscale>
<asrwt>0</asrwt>
<pdfrwt beam="1">  1        1 0.11296133E+00 0.86024708E+03</pdfrwt>
<pdfrwt beam="2">  1       -1 0.33424162E-01 0.86024708E+03</pdfrwt>
<totfact> 0.21480219E+02</totfact>
</mgrwt>
</event>
<event>
 4    1  0.7145298E-006  0.5220656E+03  0.7818608E-02  0.1008175E+00
          1   -1    0    0  501    0  0.00000000000E+00  0.00000000000E+00  0.40597291971E+03  0.40597291974E+03  0.50400000000E-02 0.  1.
         -1   -1    0    0    0  501 -0.00000000000E+00 -0.00000000000E+00 -0.16783906419E+03  0.16783906427E+03  0.50400000000E-02 0. -1.
    5000001    1    1    2    0    0 -0.15940365791E+02 -0.15504095685E+03  0.21090959317E+03  0.32502099940E+03  0.19200000000E+03 0.  0.
   -5000001    1    1    2    0    0  0.15940365791E+02  0.15504095685E+03  0.27224262347E+02  0.24879098461E+03  0.19200000000E+03 0.  0.
<mgrwt>
<rscale>  0 0.52206557E+03</rscale>
<asrwt>0</asrwt>
<pdfrwt beam="1">  1        1 0.57996131E-01 0.52206557E+03</pdfrwt>
<pdfrwt beam="2">  1       -1 0.23977009E-01 0.52206557E+03</pdfrwt>
<totfact> 0.97940610E+02</totfact>
</mgrwt>
</event>
<event>
 4    1  0.7145298E-006  0.7386304E+03  0.7818608E-02  0.9653358E-01
          1   -1    0    0  501    0  0.00000000000E+00  0.00000000000E+00  0.47925632996E+03  0.47925632999E+03  0.50400000000E-02 0.  1.
         -1   -1    0    0    0  501 -0.00000000000E+00 -0.00000000000E+00 -0.28459449803E+03  0.28459449807E+03  0.50400000000E-02 0. -1.
    5000001    1    1    2    0    0  0.17817237343E+03 -0.22448220796E+03 -0.39051026264E+02  0.34716946726E+03  0.19200000000E+03 0.  0.
   -5000001    1    1    2    0    0 -0.17817237343E+03  0.22448220796E+03  0.23371285820E+03  0.41668136079E+03  0.19200000000E+03 0.  0.
<mgrwt>
<rscale>  0 0.73863039E+03</rscale>
<asrwt>0</asrwt>
<pdfrwt beam="1">  1        1 0.68465189E-01 0.73863039E+03</pdfrwt>
<pdfrwt beam="2">  1       -1 0.40656357E-01 0.73863039E+03</pdfrwt>
<totfact> 0.31061078E+02</totfact>
</mgrwt>
</event>
<event>
 4    1  0.7145298E-006  0.8258049E+03  0.7818608E-02  0.9523399E-01
          1   -1    0    0  501    0  0.00000000000E+00  0.00000000000E+00  0.14114979656E+04  0.14114979656E+04  0.50400000000E-02 0.  1.
         -1   -1    0    0    0  501 -0.00000000000E+00 -0.00000000000E+00 -0.12078547287E+03  0.12078547297E+03  0.50400000000E-02 0. -1.
    5000001    1    1    2    0    0  0.11998784265E+03  0.31855810198E+03  0.89255005957E+03  0.97436438541E+03  0.19200000000E+03 0.  0.
   -5000001    1    1    2    0    0 -0.11998784265E+03 -0.31855810198E+03  0.39816243318E+03  0.55791905319E+03  0.19200000000E+03 0.  0.
<mgrwt>
<rscale>  0 0.82580494E+03</rscale>
<asrwt>0</asrwt>
<pdfrwt beam="1">  1        1 0.20164256E+00 0.82580494E+03</pdfrwt>
<pdfrwt beam="2">  1       -1 0.17255068E-01 0.82580494E+03</pdfrwt>
<totfact> 0.23478341E+02</totfact>
</mgrwt>
</event>
<event>
 4    1  0.7145298E-006  0.9675129E+03  0.7818608E-02  0.9344912E-01
         -1   -1    0    0    0  501 -0.00000000000E+00  0.00000000000E+00  0.55656943399E+03  0.55656943402E+03  0.50400000000E-02 0. -1.
          1   -1    0    0  501    0  0.00000000000E+00 -0.00000000000E+00 -0.42046921634E+03  0.42046921637E+03  0.50400000000E-02 0.  1.
    5000001    1    1    2    0    0 -0.16680823877E+03  0.40539369444E+03  0.13936607137E+03  0.49845354634E+03  0.19200000000E+03 0.  0.
   -5000001    1    1    2    0    0  0.16680823877E+03 -0.40539369444E+03 -0.32658537159E+01  0.47858510405E+03  0.19200000000E+03 0.  0.
<mgrwt>
<rscale>  0 0.96751292E+03</rscale>
<asrwt>0</asrwt>
<pdfrwt beam="1">  1        1 0.60067030E-01 0.96751292E+03</pdfrwt>
<pdfrwt beam="2">  1       -1 0.79509920E-01 0.96751292E+03</pdfrwt>
<totfact> 0.98421846E+01</totfact>
</mgrwt>
</event>
<event>
 4    1  0.7145298E-006  0.6829767E+03  0.7818608E-02  0.9746795E-01
          1   -1    0    0  501    0  0.00000000000E+00  0.00000000000E+00  0.61636884448E+03  0.61636884450E+03  0.50400000000E-02 0.  1.
         -1   -1    0    0    0  501 -0.00000000000E+00 -0.00000000000E+00 -0.18919562462E+03  0.18919562469E+03  0.50400000000E-02 0. -1.
    5000001    1    1    2    0    0 -0.23418545990E+03  0.14312748282E+03  0.13515286743E+03  0.36119053634E+03  0.19200000000E+03 0.  0.
   -5000001    1    1    2    0    0  0.23418545990E+03 -0.14312748282E+03  0.29202035242E+03  0.44437393285E+03  0.19200000000E+03 0.  0.
<mgrwt>
<rscale>  0 0.68297669E+03</rscale>
<asrwt>0</asrwt>
<pdfrwt beam="1">  1        1 0.88052693E-01 0.68297669E+03</pdfrwt>
<pdfrwt beam="2">  1       -1 0.27027946E-01 0.68297669E+03</pdfrwt>
<totfact> 0.45281988E+02</totfact>
</mgrwt>
</event>
<event>
 4    1  0.7145298E-006  0.4388068E+03  0.7818608E-02  0.1031114E+00
         -1   -1    0    0    0  501 -0.00000000000E+00  0.00000000000E+00  0.14027238957E+04  0.14027238957E+04  0.50400000000E-02 0.  1.
          1   -1    0    0  501    0  0.00000000000E+00 -0.00000000000E+00 -0.34317404356E+02  0.34317404726E+02  0.50400000000E-02 0. -1.
    5000001    1    1    2    0    0  0.95889229411E+02  0.16480821120E+02  0.82343326527E+03  0.85110087777E+03  0.19200000000E+03 0.  0.
   -5000001    1    1    2    0    0 -0.95889229411E+02 -0.16480821120E+02  0.54497322611E+03  0.58594042270E+03  0.19200000000E+03 0.  0.
<mgrwt>
<rscale>  0 0.43880676E+03</rscale>
<asrwt>0</asrwt>
<pdfrwt beam="1">  1        1 0.49024846E-02 0.43880676E+03</pdfrwt>
<pdfrwt beam="2">  1       -1 0.20038920E+00 0.43880676E+03</pdfrwt>
<totfact> 0.28225398E+02</totfact>
</mgrwt>
</event>
<event>
 4    1  0.7145298E-006  0.4649576E+03  0.7818608E-02  0.1023353E+00
          1   -1    0    0  501    0  0.00000000000E+00  0.00000000000E+00  0.17468824139E+04  0.17468824139E+04  0.50400000000E-02 0. -1.
         -1   -1    0    0    0  501 -0.00000000000E+00 -0.00000000000E+00 -0.30938772453E+02  0.30938772863E+02  0.50400000000E-02 0.  1.
    5000001    1    1    2    0    0  0.91605367002E+02 -0.54262866780E+02  0.56561124030E+03  0.60672570172E+03  0.19200000000E+03 0.  0.
   -5000001    1    1    2    0    0 -0.91605367002E+02  0.54262866780E+02  0.11503324012E+04  0.11710954851E+04  0.19200000000E+03 0.  0.
<mgrwt>
<rscale>  0 0.46495762E+03</rscale>
<asrwt>0</asrwt>
<pdfrwt beam="1">  1        1 0.24955470E+00 0.46495762E+03</pdfrwt>
<pdfrwt beam="2">  1       -1 0.44198234E-02 0.46495762E+03</pdfrwt>
<totfact> 0.12472205E+03</totfact>
</mgrwt>
</event>
<event>
 4    1  0.7145298E-006  0.4982975E+03  0.7818608E-02  0.1014224E+00
         -1   -1    0    0    0  501 -0.00000000000E+00  0.00000000000E+00  0.36829956786E+02  0.36829957131E+02  0.50400000000E-02 0.  1.
          1   -1    0    0  501    0  0.00000000000E+00 -0.00000000000E+00 -0.16854511196E+04  0.16854511196E+04  0.50400000000E-02 0. -1.
    5000001    1    1    2    0    0 -0.57698525448E+02  0.14692055265E+03 -0.76481311837E+03  0.80418771108E+03  0.19200000000E+03 0.  0.
   -5000001    1    1    2    0    0  0.57698525448E+02 -0.14692055265E+03 -0.88380804440E+03  0.91809336561E+03  0.19200000000E+03 0.  0.
<mgrwt>
<rscale>  0 0.49829747E+03</rscale>
<asrwt>0</asrwt>
<pdfrwt beam="1">  1        1 0.24077868E+00 0.49829747E+03</pdfrwt>
<pdfrwt beam="2">  1       -1 0.52614235E-02 0.49829747E+03</pdfrwt>
<totfact> 0.10431855E+03</totfact>
</mgrwt>
</event>
<event>
 4    1  0.7145298E-006  0.7059712E+03  0.7818608E-02  0.9707075E-01
         -1   -1    0    0    0  501 -0.00000000000E+00  0.00000000000E+00  0.16159222876E+03  0.16159222883E+03  0.50400000000E-02 0. -1.
          1   -1    0    0  501    0  0.00000000000E+00 -0.00000000000E+00 -0.77106949777E+03  0.77106949779E+03  0.50400000000E-02 0.  1.
    5000001    1    1    2    0    0  0.43677912910E+02  0.28416903454E+03 -0.39885319762E+03  0.52783299775E+03  0.19200000000E+03 0.  0.
   -5000001    1    1    2    0    0 -0.43677912910E+02 -0.28416903454E+03 -0.21062407139E+03  0.40482872887E+03  0.19200000000E+03 0.  0.
<mgrwt>
<rscale>  0 0.70597121E+03</rscale>
<asrwt>0</asrwt>
<pdfrwt beam="1">  1        1 0.11015278E+00 0.70597121E+03</pdfrwt>
<pdfrwt beam="2">  1       -1 0.23084605E-01 0.70597121E+03</pdfrwt>
<totfact> 0.42623974E+02</totfact>
</mgrwt>
</event>
<event>
 4    1  0.7145298E-006  0.4229380E+03  0.7818608E-02  0.1036114E+00
          1   -1    0    0  501    0  0.00000000000E+00  0.00000000000E+00  0.84366721886E+02  0.84366722037E+02  0.50400000000E-02 0.  1.
         -1   -1    0    0    0  501 -0.00000000000E+00 -0.00000000000E+00 -0.53005666936E+03  0.53005666939E+03  0.50400000000E-02 0. -1.
    5000001    1    1    2    0    0 -0.48674662289E+02  0.66391559753E+02 -0.17514514227E+03  0.27261123017E+03  0.19200000000E+03 0.  0.
   -5000001    1    1    2    0    0  0.48674662289E+02 -0.66391559753E+02 -0.27054480521E+03  0.34181216125E+03  0.19200000000E+03 0.  0.
<mgrwt>
<rscale>  0 0.42293803E+03</rscale>
<asrwt>0</asrwt>
<pdfrwt beam="1">  1        1 0.12052389E-01 0.42293803E+03</pdfrwt>
<pdfrwt beam="2">  1       -1 0.75722380E-01 0.42293803E+03</pdfrwt>
<totfact> 0.91514369E+02</totfact>
</mgrwt>
</event>
<event>
 4    1  0.7145298E-006  0.4509731E+03  0.7818608E-02  0.1027432E+00
          1   -1    0    0  501    0  0.00000000000E+00  0.00000000000E+00  0.18199854087E+04  0.18199854087E+04  0.50400000000E-02 0.  1.
         -1   -1    0    0    0  501 -0.00000000000E+00 -0.00000000000E+00 -0.27936583670E+02  0.27936584125E+02  0.50400000000E-02 0. -1.
    5000001    1    1    2    0    0 -0.88124852941E+02  0.78828737149E+02  0.89412190229E+03  0.92211600987E+03  0.19200000000E+03 0.  0.
   -5000001    1    1    2    0    0  0.88124852941E+02 -0.78828737149E+02  0.89792692278E+03  0.92580598300E+03  0.19200000000E+03 0.  0.
<mgrwt>
<rscale>  0 0.45097306E+03</rscale>
<asrwt>0</asrwt>
<pdfrwt beam="1">  1        1 0.25999795E+00 0.45097306E+03</pdfrwt>
<pdfrwt beam="2">  1       -1 0.39909401E-02 0.45097306E+03</pdfrwt>
<totfact> 0.13123866E+03</totfact>
</mgrwt>
</event>
<event>
 4    1  0.7145298E-006  0.5670261E+03  0.7818608E-02  0.9976281E-01
          1   -1    0    0  501    0  0.00000000000E+00  0.00000000000E+00  0.54083359665E+03  0.54083359667E+03  0.50400000000E-02 0.  1.
         -1   -1    0    0    0  501 -0.00000000000E+00 -0.00000000000E+00 -0.14862177742E+03  0.14862177750E+03  0.50400000000E-02 0. -1.
    5000001    1    1    2    0    0  0.85365821625E+02  0.57142713686E+02  0.41686404611E+03  0.47031079742E+03  0.19200000000E+03 0.  0.
   -5000001    1    1    2    0    0 -0.85365821625E+02 -0.57142713686E+02 -0.24652226887E+02  0.21914457675E+03  0.19200000000E+03 0.  0.
<mgrwt>
<rscale>  0 0.56702610E+03</rscale>
<asrwt>0</asrwt>
<pdfrwt beam="1">  1        1 0.77261945E-01 0.56702610E+03</pdfrwt>
<pdfrwt beam="2">  1       -1 0.21231682E-01 0.56702610E+03</pdfrwt>
<totfact> 0.81928399E+02</totfact>
</mgrwt>
</event>
<event>
 4    1  0.7145298E-006  0.4798151E+03  0.7818608E-02  0.1019186E+00
         -1   -1    0    0    0  501 -0.00000000000E+00  0.00000000000E+00  0.35078891095E+02  0.35078891457E+02  0.50400000000E-02 0. -1.
          1   -1    0    0  501    0  0.00000000000E+00 -0.00000000000E+00 -0.16407485978E+04  0.16407485978E+04  0.50400000000E-02 0.  1.
    5000001    1    1    2    0    0 -0.49795159042E+02  0.11870159840E+03 -0.10270733196E+04  0.10527645659E+04  0.19200000000E+03 0.  0.
   -5000001    1    1    2    0    0  0.49795159042E+02 -0.11870159840E+03 -0.57859638704E+03  0.62306292333E+03  0.19200000000E+03 0.  0.
<mgrwt>
<rscale>  0 0.47981514E+03</rscale>
<asrwt>0</asrwt>
<pdfrwt beam="1">  1        1 0.23439261E+00 0.47981514E+03</pdfrwt>
<pdfrwt beam="2">  1       -1 0.50112712E-02 0.47981514E+03</pdfrwt>
<totfact> 0.11992578E+03</totfact>
</mgrwt>
</event>
<event>
 4    1  0.7145298E-006  0.4793082E+03  0.7818608E-02  0.1019325E+00
          1   -1    0    0  501    0  0.00000000000E+00  0.00000000000E+00  0.30322766847E+04  0.30322766847E+04  0.50400000000E-02 0.  1.
         -1   -1    0    0    0  501 -0.00000000000E+00 -0.00000000000E+00 -0.18940909355E+02  0.18940910025E+02  0.50400000000E-02 0. -1.
    5000001    1    1    2    0    0  0.48018125120E+02 -0.13513992543E+03  0.15145653466E+04  0.15334082069E+04  0.19200000000E+03 0.  0.
   -5000001    1    1    2    0    0 -0.48018125120E+02  0.13513992543E+03  0.14987704288E+04  0.15178093879E+04  0.19200000000E+03 0.  0.
<mgrwt>
<rscale>  0 0.47930816E+03</rscale>
<asrwt>0</asrwt>
<pdfrwt beam="1">  1        1 0.43318214E+00 0.47930816E+03</pdfrwt>
<pdfrwt beam="2">  1       -1 0.27058458E-02 0.47930816E+03</pdfrwt>
<totfact> 0.41389289E+02</totfact>
</mgrwt>
</event>
<event>
 4    1  0.7145298E-006  0.4765815E+03  0.7818608E-02  0.1020079E+00
         -1   -1    0    0    0  501 -0.00000000000E+00  0.00000000000E+00  0.37484253015E+02  0.37484253354E+02  0.50400000000E-02 0. -1.
          1   -1    0    0  501    0  0.00000000000E+00 -0.00000000000E+00 -0.15148358264E+04  0.15148358264E+04  0.50400000000E-02 0.  1.
    5000001    1    1    2    0    0 -0.10938155368E+03 -0.59956274010E+02 -0.52361662355E+03  0.57148704932E+03  0.19200000000E+03 0.  0.
   -5000001    1    1    2    0    0  0.10938155368E+03  0.59956274010E+02 -0.95373494983E+03  0.98083303044E+03  0.19200000000E+03 0.  0.
<mgrwt>
<rscale>  0 0.47658153E+03</rscale>
<asrwt>0</asrwt>
<pdfrwt beam="1">  1        1 0.21640508E+00 0.47658153E+03</pdfrwt>
<pdfrwt beam="2">  1       -1 0.53548942E-02 0.47658153E+03</pdfrwt>
<totfact> 0.13014956E+03</totfact>
</mgrwt>
</event>
<event>
 4    1  0.7145298E-006  0.4635590E+03  0.7818608E-02  0.1023754E+00
         -1   -1    0    0    0  501 -0.00000000000E+00  0.00000000000E+00  0.24195602713E+02  0.24195603238E+02  0.50400000000E-02 0.  1.
          1   -1    0    0  501    0  0.00000000000E+00 -0.00000000000E+00 -0.22203103290E+04  0.22203103290E+04  0.50400000000E-02 0. -1.
    5000001    1    1    2    0    0 -0.91361217211E+02 -0.82493357050E+02 -0.89808511591E+03  0.92659209007E+03  0.19200000000E+03 0.  0.
   -5000001    1    1    2    0    0  0.91361217211E+02  0.82493357050E+02 -0.12980296104E+04  0.13179138421E+04  0.19200000000E+03 0.  0.
<mgrwt>
<rscale>  0 0.46355905E+03</rscale>
<asrwt>0</asrwt>
<pdfrwt beam="1">  1        1 0.31718706E+00 0.46355905E+03</pdfrwt>
<pdfrwt beam="2">  1       -1 0.34565161E-02 0.46355905E+03</pdfrwt>
<totfact> 0.92519872E+02</totfact>
</mgrwt>
</event>
<event>
 4    1  0.7145298E-006  0.4710493E+03  0.7818608E-02  0.1021624E+00
         -1   -1    0    0    0  501 -0.00000000000E+00  0.00000000000E+00  0.15377113767E+03  0.15377113775E+03  0.50400000000E-02 0. -1.
          1   -1    0    0  501    0  0.00000000000E+00 -0.00000000000E+00 -0.36074292874E+03  0.36074292878E+03  0.50400000000E-02 0.  1.
    5000001    1    1    2    0    0  0.86107694525E+02 -0.10159584680E+03 -0.71238889254E+02  0.24428514176E+03  0.19200000000E+03 0.  0.
   -5000001    1    1    2    0    0 -0.86107694525E+02  0.10159584680E+03 -0.13573290182E+03  0.27022892477E+03  0.19200000000E+03 0.  0.
<mgrwt>
<rscale>  0 0.47104926E+03</rscale>
<asrwt>0</asrwt>
<pdfrwt beam="1">  1        1 0.51534704E-01 0.47104926E+03</pdfrwt>
<pdfrwt beam="2">  1       -1 0.21967305E-01 0.47104926E+03</pdfrwt>
<totfact> 0.13217284E+03</totfact>
</mgrwt>
</event>
<event>
 4    1  0.7145298E-006  0.4186101E+03  0.7818608E-02  0.1037520E+00
          1   -1    0    0  501    0  0.00000000000E+00  0.00000000000E+00  0.26362142926E+03  0.26362142931E+03  0.50400000000E-02 0.  1.
         -1   -1    0    0    0  501 -0.00000000000E+00 -0.00000000000E+00 -0.16618000521E+03  0.16618000529E+03  0.50400000000E-02 0. -1.
    5000001    1    1    2    0    0  0.56316083268E+02  0.54918891520E+02  0.76970365963E+02  0.22130527133E+03  0.19200000000E+03 0.  0.
   -5000001    1    1    2    0    0 -0.56316083268E+02 -0.54918891520E+02  0.20471058084E+02  0.20849616327E+03  0.19200000000E+03 0.  0.
<mgrwt>
<rscale>  0 0.41861013E+03</rscale>
<asrwt>0</asrwt>
<pdfrwt beam="1">  1        1 0.37660204E-01 0.41861013E+03</pdfrwt>
<pdfrwt beam="2">  1       -1 0.23740001E-01 0.41861013E+03</pdfrwt>
<totfact> 0.17325679E+03</totfact>
</mgrwt>
</event>
<event>
 4    1  0.7145298E-006  0.7194038E+03  0.7818608E-02  0.9684613E-01
         -1   -1    0    0    0  501 -0.00000000000E+00  0.00000000000E+00  0.89821826266E+02  0.89821826407E+02  0.50400000000E-02 0. -1.
          1   -1    0    0  501    0  0.00000000000E+00 -0.00000000000E+00 -0.14404680035E+04  0.14404680035E+04  0.50400000000E-02 0.  1.
    5000001    1    1    2    0    0 -0.13546967953E+02  0.30374950506E+03 -0.65700171157E+03  0.74897431943E+03  0.19200000000E+03 0.  0.
   -5000001    1    1    2    0    0  0.13546967953E+02 -0.30374950506E+03 -0.69364446564E+03  0.78131551046E+03  0.19200000000E+03 0.  0.
<mgrwt>
<rscale>  0 0.71940383E+03</rscale>
<asrwt>0</asrwt>
<pdfrwt beam="1">  1        1 0.20578113E+00 0.71940383E+03</pdfrwt>
<pdfrwt beam="2">  1       -1 0.12831690E-01 0.71940383E+03</pdfrwt>
<totfact> 0.36622672E+02</totfact>
</mgrwt>
</event>
<event>
 4    1  0.7145298E-006  0.4027699E+03  0.7818608E-02  0.1042825E+00
         -1   -1    0    0    0  501 -0.00000000000E+00  0.00000000000E+00  0.26416250639E+03  0.26416250644E+03  0.50400000000E-02 0. -1.
          1   -1    0    0  501    0  0.00000000000E+00 -0.00000000000E+00 -0.15352633384E+03  0.15352633393E+03  0.50400000000E-02 0.  1.
    5000001    1    1    2    0    0 -0.24721254041E+02 -0.53303946255E+02  0.39270735490E+02  0.20459384584E+03  0.19200000000E+03 0.  0.
   -5000001    1    1    2    0    0  0.24721254041E+02  0.53303946255E+02  0.71365437055E+02  0.21309499453E+03  0.19200000000E+03 0.  0.
<mgrwt>
<rscale>  0 0.40276992E+03</rscale>
<asrwt>0</asrwt>
<pdfrwt beam="1">  1        1 0.21932334E-01 0.40276992E+03</pdfrwt>
<pdfrwt beam="2">  1       -1 0.37737501E-01 0.40276992E+03</pdfrwt>
<totfact> 0.15603811E+03</totfact>
</mgrwt>
</event>
<event>
 4    1  0.7145298E-006  0.7352640E+03  0.7818608E-02  0.9658757E-01
         -1   -1    0    0    0  501 -0.00000000000E+00  0.00000000000E+00  0.95884402071E+03  0.95884402072E+03  0.50400000000E-02 0. -1.
          1   -1    0    0  501    0  0.00000000000E+00 -0.00000000000E+00 -0.14095440368E+03  0.14095440377E+03  0.50400000000E-02 0.  1.
    5000001    1    1    2    0    0 -0.23334245648E+03  0.20935168330E+03  0.40366530989E+03  0.54597299540E+03  0.19200000000E+03 0.  0.
   -5000001    1    1    2    0    0  0.23334245648E+03 -0.20935168330E+03  0.41422430713E+03  0.55382542910E+03  0.19200000000E+03 0.  0.
<mgrwt>
<rscale>  0 0.73526400E+03</rscale>
<asrwt>0</asrwt>
<pdfrwt beam="1">  1        1 0.20136344E-01 0.73526400E+03</pdfrwt>
<pdfrwt beam="2">  1       -1 0.13697772E+00 0.73526400E+03</pdfrwt>
<totfact> 0.11720761E+02</totfact>
</mgrwt>
</event>
<event>
 4    1  0.7145298E-006  0.4657940E+03  0.7818608E-02  0.1023114E+00
          1   -1    0    0  501    0  0.00000000000E+00  0.00000000000E+00  0.89457271018E+03  0.89457271019E+03  0.50400000000E-02 0.  1.
         -1   -1    0    0    0  501 -0.00000000000E+00 -0.00000000000E+00 -0.60633423462E+02  0.60633423671E+02  0.50400000000E-02 0. -1.
    5000001    1    1    2    0    0  0.81722814988E+02 -0.10061328655E+03  0.46615896804E+03  0.52054763030E+03  0.19200000000E+03 0.  0.
   -5000001    1    1    2    0    0 -0.81722814988E+02  0.10061328655E+03  0.36778031867E+03  0.43465850356E+03  0.19200000000E+03 0.  0.
<mgrwt>
<rscale>  0 0.46579397E+03</rscale>
<asrwt>0</asrwt>
<pdfrwt beam="1">  1        1 0.12779609E+00 0.46579397E+03</pdfrwt>
<pdfrwt beam="2">  1       -1 0.86619181E-02 0.46579397E+03</pdfrwt>
<totfact> 0.16566066E+03</totfact>
</mgrwt>
</event>
<event>
 4    1  0.7145298E-006  0.4418482E+03  0.7818608E-02  0.1030181E+00
         -1   -1    0    0    0  501 -0.00000000000E+00  0.00000000000E+00  0.65830110165E+02  0.65830110358E+02  0.50400000000E-02 0. -1.
          1   -1    0    0  501    0  0.00000000000E+00 -0.00000000000E+00 -0.74141555201E+03  0.74141555203E+03  0.50400000000E-02 0.  1.
    5000001    1    1    2    0    0  0.10265267821E+03  0.79252555238E+01 -0.27083750377E+03  0.34758788164E+03  0.19200000000E+03 0.  0.
   -5000001    1    1    2    0    0 -0.10265267821E+03 -0.79252555238E+01 -0.40474793808E+03  0.45965778074E+03  0.19200000000E+03 0.  0.
<mgrwt>
<rscale>  0 0.44184824E+03</rscale>
<asrwt>0</asrwt>
<pdfrwt beam="1">  1        1 0.10591650E+00 0.44184824E+03</pdfrwt>
<pdfrwt beam="2">  1       -1 0.94043019E-02 0.44184824E+03</pdfrwt>
<totfact> 0.19439797E+03</totfact>
</mgrwt>
</event>
<event>
 4    1  0.7145298E-006  0.4418623E+03  0.7818608E-02  0.1030177E+00
          1   -1    0    0  501    0  0.00000000000E+00  0.00000000000E+00  0.23178357539E+03  0.23178357545E+03  0.50400000000E-02 0.  1.
         -1   -1    0    0    0  501 -0.00000000000E+00 -0.00000000000E+00 -0.21058685721E+03  0.21058685727E+03  0.50400000000E-02 0. -1.
    5000001    1    1    2    0    0  0.78547807847E+02 -0.75072508277E+02  0.22483620136E+02  0.22175471312E+03  0.19200000000E+03 0.  0.
   -5000001    1    1    2    0    0 -0.78547807847E+02  0.75072508277E+02 -0.12869019502E+01  0.22061571960E+03  0.19200000000E+03 0.  0.
<mgrwt>
<rscale>  0 0.44186231E+03</rscale>
<asrwt>0</asrwt>
<pdfrwt beam="1">  1        1 0.33111939E-01 0.44186231E+03</pdfrwt>
<pdfrwt beam="2">  1       -1 0.30083837E-01 0.44186231E+03</pdfrwt>
<totfact> 0.13663207E+03</totfact>
</mgrwt>
</event>
<event>
 4    1  0.7145298E-006  0.4816814E+03  0.7818608E-02  0.1018674E+00
          1   -1    0    0  501    0  0.00000000000E+00  0.00000000000E+00  0.10995631656E+04  0.10995631656E+04  0.50400000000E-02 0.  1.
         -1   -1    0    0    0  501 -0.00000000000E+00 -0.00000000000E+00 -0.52752089014E+02  0.52752089255E+02  0.50400000000E-02 0. -1.
    5000001    1    1    2    0    0  0.89037253962E+01  0.10779499987E+03  0.75585329258E+03  0.78732282974E+03  0.19200000000E+03 0.  0.
   -5000001    1    1    2    0    0 -0.89037253962E+01 -0.10779499987E+03  0.29095778398E+03  0.36499242510E+03  0.19200000000E+03 0.  0.
<mgrwt>
<rscale>  0 0.48168145E+03</rscale>
<asrwt>0</asrwt>
<pdfrwt beam="1">  1        1 0.15708046E+00 0.48168145E+03</pdfrwt>
<pdfrwt beam="2">  1       -1 0.75360126E-02 0.48168145E+03</pdfrwt>
<totfact> 0.14521809E+03</totfact>
</mgrwt>
</event>
<event>
 4    1  0.7145298E-006  0.9252137E+03  0.7818608E-02  0.9394601E-01
          1   -1    0    0  501    0  0.00000000000E+00  0.00000000000E+00  0.57017236128E+03  0.57017236131E+03  0.50400000000E-02 0.  1.
         -1   -1    0    0    0  501 -0.00000000000E+00 -0.00000000000E+00 -0.37533406664E+03  0.37533406667E+03  0.50400000000E-02 0. -1.
    5000001    1    1    2    0    0  0.24410132625E+03 -0.21573055579E+03 -0.17491397306E+03  0.41663416585E+03  0.19200000000E+03 0.  0.
   -5000001    1    1    2    0    0 -0.24410132625E+03  0.21573055579E+03  0.36975226770E+03  0.52887226213E+03  0.19200000000E+03 0.  0.
<mgrwt>
<rscale>  0 0.92521373E+03</rscale>
<asrwt>0</asrwt>
<pdfrwt beam="1">  1        1 0.81453195E-01 0.92521373E+03</pdfrwt>
<pdfrwt beam="2">  1       -1 0.53619152E-01 0.92521373E+03</pdfrwt>
<totfact> 0.14455774E+02</totfact>
</mgrwt>
</event>
<event>
 4    1  0.7145298E-006  0.5514309E+03  0.7818608E-02  0.1001163E+00
          1   -1    0    0  501    0  0.00000000000E+00  0.00000000000E+00  0.25593021748E+04  0.25593021748E+04  0.50400000000E-02 0.  1.
         -1   -1    0    0    0  501 -0.00000000000E+00 -0.00000000000E+00 -0.29703020350E+02  0.29703020778E+02  0.50400000000E-02 0. -1.
    5000001    1    1    2    0    0  0.10991259174E+02  0.18387300334E+03  0.16041758628E+04  0.16260917218E+04  0.19200000000E+03 0.  0.
   -5000001    1    1    2    0    0 -0.10991259174E+02 -0.18387300334E+03  0.92542329166E+03  0.96291347373E+03  0.19200000000E+03 0.  0.
<mgrwt>
<rscale>  0 0.55143088E+03</rscale>
<asrwt>0</asrwt>
<pdfrwt beam="1">  1        1 0.36561439E+00 0.55143088E+03</pdfrwt>
<pdfrwt beam="2">  1       -1 0.42432910E-02 0.55143088E+03</pdfrwt>
<totfact> 0.41596976E+02</totfact>
</mgrwt>
</event>
<event>
 4    1  0.7145298E-006  0.1040261E+04  0.7818608E-02  0.9265457E-01
          1   -1    0    0  501    0  0.00000000000E+00  0.00000000000E+00  0.46531963695E+03  0.46531963698E+03  0.50400000000E-02 0.  1.
         -1   -1    0    0    0  501 -0.00000000000E+00 -0.00000000000E+00 -0.58139738523E+03  0.58139738526E+03  0.50400000000E-02 0. -1.
    5000001    1    1    2    0    0 -0.29488029782E+03  0.33695180036E+03  0.12524739465E+03  0.50303261890E+03  0.19200000000E+03 0.  0.
   -5000001    1    1    2    0    0  0.29488029782E+03 -0.33695180036E+03 -0.24132514294E+03  0.54368440333E+03  0.19200000000E+03 0.  0.
<mgrwt>
<rscale>  0 0.10402608E+04</rscale>
<asrwt>0</asrwt>
<pdfrwt beam="1">  1        1 0.66474234E-01 0.10402608E+04</pdfrwt>
<pdfrwt beam="2">  1       -1 0.83056770E-01 0.10402608E+04</pdfrwt>
<totfact> 0.77960316E+01</totfact>
</mgrwt>
</event>
<event>
 4    1  0.7145298E-006  0.4970503E+03  0.7818608E-02  0.1014552E+00
          1   -1    0    0  501    0  0.00000000000E+00  0.00000000000E+00  0.17444474621E+03  0.17444474629E+03  0.50400000000E-02 0. -1.
         -1   -1    0    0    0  501 -0.00000000000E+00 -0.00000000000E+00 -0.35406479478E+03  0.35406479482E+03  0.50400000000E-02 0.  1.
    5000001    1    1    2    0    0 -0.84159626185E+02  0.12862197025E+03 -0.51853490195E+02  0.25135480571E+03  0.19200000000E+03 0.  0.
   -5000001    1    1    2    0    0  0.84159626185E+02 -0.12862197025E+03 -0.12776655837E+03  0.27715473539E+03  0.19200000000E+03 0.  0.
<mgrwt>
<rscale>  0 0.49705027E+03</rscale>
<asrwt>0</asrwt>
<pdfrwt beam="1">  1        1 0.24920678E-01 0.49705027E+03</pdfrwt>
<pdfrwt beam="2">  1       -1 0.50580684E-01 0.49705027E+03</pdfrwt>
<totfact> 0.77455950E+02</totfact>
</mgrwt>
</event>
<event>
 4    1  0.7145298E-006  0.2071211E+04  0.7818608E-02  0.8574032E-01
          1   -1    0    0  501    0  0.00000000000E+00  0.00000000000E+00  0.11680220696E+04  0.11680220696E+04  0.50400000000E-02 0.  1.
         -1   -1    0    0    0  501 -0.00000000000E+00 -0.00000000000E+00 -0.91820082868E+03  0.91820082870E+03  0.50400000000E-02 0. -1.
    5000001    1    1    2    0    0  0.20569339988E+03  0.96174704969E+03  0.38823932595E+03  0.10746445629E+04  0.19200000000E+03 0.  0.
   -5000001    1    1    2    0    0 -0.20569339988E+03 -0.96174704969E+03 -0.13841808507E+03  0.10115783354E+04  0.19200000000E+03 0.  0.
<mgrwt>
<rscale>  0 0.20712111E+04</rscale>
<asrwt>0</asrwt>
<pdfrwt beam="1">  1        1 0.16686029E+00 0.20712111E+04</pdfrwt>
<pdfrwt beam="2">  1       -1 0.13117155E+00 0.20712111E+04</pdfrwt>
<totfact> 0.59820053E+00</totfact>
</mgrwt>
</event>
<event>
 4    1  0.7145298E-006  0.6068939E+03  0.7818608E-02  0.9891206E-01
         -1   -1    0    0    0  501 -0.00000000000E+00  0.00000000000E+00  0.77601288503E+02  0.77601288666E+02  0.50400000000E-02 0. -1.
          1   -1    0    0  501    0  0.00000000000E+00 -0.00000000000E+00 -0.11865787223E+04  0.11865787223E+04  0.50400000000E-02 0.  1.
    5000001    1    1    2    0    0 -0.22567339199E+03 -0.45312874710E+02 -0.65295035529E+03  0.71846357106E+03  0.19200000000E+03 0.  0.
   -5000001    1    1    2    0    0  0.22567339199E+03  0.45312874710E+02 -0.45602707854E+03  0.54571643995E+03  0.19200000000E+03 0.  0.
<mgrwt>
<rscale>  0 0.60689386E+03</rscale>
<asrwt>0</asrwt>
<pdfrwt beam="1">  1        1 0.16951124E+00 0.60689386E+03</pdfrwt>
<pdfrwt beam="2">  1       -1 0.11085899E-01 0.60689386E+03</pdfrwt>
<totfact> 0.68729147E+02</totfact>
</mgrwt>
</event>
<event>
 4    1  0.7145298E-006  0.5725280E+03  0.7818608E-02  0.9964100E-01
          1   -1    0    0  501    0  0.00000000000E+00  0.00000000000E+00  0.79416472545E+03  0.79416472546E+03  0.50400000000E-02 0.  1.
         -1   -1    0    0    0  501 -0.00000000000E+00 -0.00000000000E+00 -0.10318650442E+03  0.10318650455E+03  0.50400000000E-02 0. -1.
    5000001    1    1    2    0    0  0.19989161796E+03 -0.60867484987E+02  0.40458403812E+03  0.49417987976E+03  0.19200000000E+03 0.  0.
   -5000001    1    1    2    0    0 -0.19989161796E+03  0.60867484987E+02  0.28639418291E+03  0.40317135025E+03  0.19200000000E+03 0.  0.
<mgrwt>
<rscale>  0 0.57252802E+03</rscale>
<asrwt>0</asrwt>
<pdfrwt beam="1">  1        1 0.11345211E+00 0.57252802E+03</pdfrwt>
<pdfrwt beam="2">  1       -1 0.14740928E-01 0.57252802E+03</pdfrwt>
<totfact> 0.85784723E+02</totfact>
</mgrwt>
</event>
<event>
 4    1  0.7145298E-006  0.5179282E+03  0.7818608E-02  0.1009202E+00
          1   -1    0    0  501    0  0.00000000000E+00  0.00000000000E+00  0.41695373987E+03  0.41695373990E+03  0.50400000000E-02 0.  1.
         -1   -1    0    0    0  501 -0.00000000000E+00 -0.00000000000E+00 -0.16083898568E+03  0.16083898576E+03  0.50400000000E-02 0. -1.
    5000001    1    1    2    0    0  0.13620028979E+03 -0.77455351031E+02  0.21190129986E+03  0.32606136113E+03  0.19200000000E+03 0.  0.
   -5000001    1    1    2    0    0 -0.13620028979E+03  0.77455351031E+02  0.44213454338E+02  0.25173136453E+03  0.19200000000E+03 0.  0.
<mgrwt>
<rscale>  0 0.51792824E+03</rscale>
<asrwt>0</asrwt>
<pdfrwt beam="1">  1        1 0.59564819E-01 0.51792824E+03</pdfrwt>
<pdfrwt beam="2">  1       -1 0.22976998E-01 0.51792824E+03</pdfrwt>
<totfact> 0.10160963E+03</totfact>
</mgrwt>
</event>
<event>
 4    1  0.7145298E-006  0.4613657E+03  0.7818608E-02  0.1024386E+00
          1   -1    0    0  501    0  0.00000000000E+00  0.00000000000E+00  0.76939938275E+03  0.76939938277E+03  0.50400000000E-02 0. -1.
         -1   -1    0    0    0  501 -0.00000000000E+00 -0.00000000000E+00 -0.69163804054E+02  0.69163804238E+02  0.50400000000E-02 0.  1.
    5000001    1    1    2    0    0 -0.41280657443E+02 -0.12095496210E+03  0.35747673559E+03  0.42542662355E+03  0.19200000000E+03 0.  0.
   -5000001    1    1    2    0    0  0.41280657443E+02  0.12095496210E+03  0.34275884311E+03  0.41313656346E+03  0.19200000000E+03 0.  0.
<mgrwt>
<rscale>  0 0.46136575E+03</rscale>
<asrwt>0</asrwt>
<pdfrwt beam="1">  1        1 0.10991420E+00 0.46136575E+03</pdfrwt>
<pdfrwt beam="2">  1       -1 0.98805435E-02 0.46136575E+03</pdfrwt>
<totfact> 0.17029712E+03</totfact>
</mgrwt>
</event>
<event>
 4    1  0.7145298E-006  0.4935792E+03  0.7818608E-02  0.1015469E+00
          1   -1    0    0  501    0  0.00000000000E+00  0.00000000000E+00  0.11761765878E+04  0.11761765878E+04  0.50400000000E-02 0.  1.
         -1   -1    0    0    0  501 -0.00000000000E+00 -0.00000000000E+00 -0.51782290917E+02  0.51782291162E+02  0.50400000000E-02 0. -1.
    5000001    1    1    2    0    0  0.93117723176E+02  0.11517046318E+03  0.67636748296E+03  0.71852078464E+03  0.19200000000E+03 0.  0.
   -5000001    1    1    2    0    0 -0.93117723176E+02 -0.11517046318E+03  0.44802681391E+03  0.50943809432E+03  0.19200000000E+03 0.  0.
<mgrwt>
<rscale>  0 0.49357925E+03</rscale>
<asrwt>0</asrwt>
<pdfrwt beam="1">  1        1 0.16802521E+00 0.49357925E+03</pdfrwt>
<pdfrwt beam="2">  1       -1 0.73974707E-02 0.49357925E+03</pdfrwt>
<totfact> 0.13218152E+03</totfact>
</mgrwt>
</event>
<event>
 4    1  0.7145298E-006  0.4616125E+03  0.7818608E-02  0.1024315E+00
          1   -1    0    0  501    0  0.00000000000E+00  0.00000000000E+00  0.84771784599E+03  0.84771784600E+03  0.50400000000E-02 0.  1.
         -1   -1    0    0    0  501 -0.00000000000E+00 -0.00000000000E+00 -0.62841093616E+02  0.62841093819E+02  0.50400000000E-02 0. -1.
    5000001    1    1    2    0    0 -0.10572039071E+03 -0.72287252895E+02  0.38791063850E+03  0.45137668460E+03  0.19200000000E+03 0.  0.
   -5000001    1    1    2    0    0  0.10572039071E+03  0.72287252895E+02  0.39696611387E+03  0.45918225522E+03  0.19200000000E+03 0.  0.
<mgrwt>
<rscale>  0 0.46161246E+03</rscale>
<asrwt>0</asrwt>
<pdfrwt beam="1">  1        1 0.12110255E+00 0.46161246E+03</pdfrwt>
<pdfrwt beam="2">  1       -1 0.89772989E-02 0.46161246E+03</pdfrwt>
<totfact> 0.17057893E+03</totfact>
</mgrwt>
</event>
<event>
 4    1  0.7145298E-006  0.1079994E+04  0.7818608E-02  0.9224914E-01
         -1   -1    0    0    0  501 -0.00000000000E+00  0.00000000000E+00  0.35845102685E+03  0.35845102688E+03  0.50400000000E-02 0. -1.
          1   -1    0    0  501    0  0.00000000000E+00 -0.00000000000E+00 -0.81349071451E+03  0.81349071452E+03  0.50400000000E-02 0.  1.
    5000001    1    1    2    0    0  0.27869903316E+03  0.32788225304E+03 -0.51370142692E+03  0.69708900361E+03  0.19200000000E+03 0.  0.
   -5000001    1    1    2    0    0 -0.27869903316E+03 -0.32788225304E+03  0.58661739255E+02  0.47485273780E+03  0.19200000000E+03 0.  0.
<mgrwt>
<rscale>  0 0.10799937E+04</rscale>
<asrwt>0</asrwt>
<pdfrwt beam="1">  1        1 0.11621296E+00 0.10799937E+04</pdfrwt>
<pdfrwt beam="2">  1       -1 0.51207290E-01 0.10799937E+04</pdfrwt>
<totfact> 0.92693304E+01</totfact>
</mgrwt>
</event>
<event>
 4    1  0.7145298E-006  0.5151941E+03  0.7818608E-02  0.1009887E+00
         -1   -1    0    0    0  501 -0.00000000000E+00  0.00000000000E+00  0.73825816407E+02  0.73825816579E+02  0.50400000000E-02 0. -1.
          1   -1    0    0  501    0  0.00000000000E+00 -0.00000000000E+00 -0.89882164686E+03  0.89882164687E+03  0.50400000000E-02 0.  1.
    5000001    1    1    2    0    0 -0.16639005094E+02  0.15859278443E+03 -0.29214789973E+03  0.38424331234E+03  0.19200000000E+03 0.  0.
   -5000001    1    1    2    0    0  0.16639005094E+02 -0.15859278443E+03 -0.53284793073E+03  0.58840415111E+03  0.19200000000E+03 0.  0.
<mgrwt>
<rscale>  0 0.51519411E+03</rscale>
<asrwt>0</asrwt>
<pdfrwt beam="1">  1        1 0.12840309E+00 0.51519411E+03</pdfrwt>
<pdfrwt beam="2">  1       -1 0.10546546E-01 0.51519411E+03</pdfrwt>
<totfact> 0.12070372E+03</totfact>
</mgrwt>
</event>
<event>
 4    1  0.7145298E-006  0.5350489E+03  0.7818608E-02  0.1005015E+00
         -1   -1    0    0    0  501 -0.00000000000E+00  0.00000000000E+00  0.47922110609E+02  0.47922110874E+02  0.50400000000E-02 0. -1.
          1   -1    0    0  501    0  0.00000000000E+00 -0.00000000000E+00 -0.14934513467E+04  0.14934513467E+04  0.50400000000E-02 0.  1.
    5000001    1    1    2    0    0  0.16102330081E+03  0.21942301599E+02 -0.98514558422E+03  0.10167525707E+04  0.19200000000E+03 0.  0.
   -5000001    1    1    2    0    0 -0.16102330081E+03 -0.21942301599E+02 -0.46038365190E+03  0.52462088687E+03  0.19200000000E+03 0.  0.
<mgrwt>
<rscale>  0 0.53504894E+03</rscale>
<asrwt>0</asrwt>
<pdfrwt beam="1">  1        1 0.21335016E+00 0.53504894E+03</pdfrwt>
<pdfrwt beam="2">  1       -1 0.68460168E-02 0.53504894E+03</pdfrwt>
<totfact> 0.91891350E+02</totfact>
</mgrwt>
</event>
<event>
 4    1  0.7145298E-006  0.8526776E+03  0.7818608E-02  0.9486750E-01
          1   -1    0    0  501    0  0.00000000000E+00  0.00000000000E+00  0.38897013729E+03  0.38897013732E+03  0.50400000000E-02 0. -1.
         -1   -1    0    0    0  501 -0.00000000000E+00 -0.00000000000E+00 -0.46729749647E+03  0.46729749650E+03  0.50400000000E-02 0.  1.
    5000001    1    1    2    0    0  0.22610520021E+03 -0.20803486747E+03 -0.26482898310E+03  0.44877662365E+03  0.19200000000E+03 0.  0.
   -5000001    1    1    2    0    0 -0.22610520021E+03  0.20803486747E+03  0.18650162392E+03  0.40749101017E+03  0.19200000000E+03 0.  0.
<mgrwt>
<rscale>  0 0.85267760E+03</rscale>
<asrwt>0</asrwt>
<pdfrwt beam="1">  1        1 0.55567162E-01 0.85267760E+03</pdfrwt>
<pdfrwt beam="2">  1       -1 0.66756785E-01 0.85267760E+03</pdfrwt>
<totfact> 0.15771182E+02</totfact>
</mgrwt>
</event>
<event>
 4    1  0.7145298E-006  0.4903974E+03  0.7818608E-02  0.1016316E+00
          1   -1    0    0  501    0  0.00000000000E+00  0.00000000000E+00  0.55887889233E+03  0.55887889235E+03  0.50400000000E-02 0.  1.
         -1   -1    0    0    0  501 -0.00000000000E+00 -0.00000000000E+00 -0.10757678128E+03  0.10757678139E+03  0.50400000000E-02 0. -1.
    5000001    1    1    2    0    0  0.11262872760E+03  0.36464532851E+02  0.35631066900E+03  0.42170627845E+03  0.19200000000E+03 0.  0.
   -5000001    1    1    2    0    0 -0.11262872760E+03 -0.36464532851E+02  0.94991442053E+02  0.24474939530E+03  0.19200000000E+03 0.  0.
<mgrwt>
<rscale>  0 0.49039736E+03</rscale>
<asrwt>0</asrwt>
<pdfrwt beam="1">  1        1 0.79839840E-01 0.49039736E+03</pdfrwt>
<pdfrwt beam="2">  1       -1 0.15368112E-01 0.49039736E+03</pdfrwt>
<totfact> 0.13318751E+03</totfact>
</mgrwt>
</event>
<event>
 4    1  0.7145298E-006  0.8549660E+03  0.7818608E-02  0.9483696E-01
          1   -1    0    0  501    0  0.00000000000E+00  0.00000000000E+00  0.40915113860E+03  0.40915113864E+03  0.50400000000E-02 0.  1.
         -1   -1    0    0    0  501 -0.00000000000E+00 -0.00000000000E+00 -0.44663622502E+03  0.44663622505E+03  0.50400000000E-02 0. -1.
    5000001    1    1    2    0    0 -0.18616502910E+03  0.21021573553E+03  0.24040702182E+03  0.41654244642E+03  0.19200000000E+03 0.  0.
   -5000001    1    1    2    0    0  0.18616502910E+03 -0.21021573553E+03 -0.27789210824E+03  0.43924491727E+03  0.19200000000E+03 0.  0.
<mgrwt>
<rscale>  0 0.85496601E+03</rscale>
<asrwt>0</asrwt>
<pdfrwt beam="1">  1        1 0.58450163E-01 0.85496601E+03</pdfrwt>
<pdfrwt beam="2">  1       -1 0.63805175E-01 0.85496601E+03</pdfrwt>
<totfact> 0.16158887E+02</totfact>
</mgrwt>
</event>
<event>
 4    1  0.7145298E-006  0.5655996E+03  0.7818608E-02  0.9979464E-01
         -1   -1    0    0    0  501 -0.00000000000E+00  0.00000000000E+00  0.17295918541E+03  0.17295918549E+03  0.50400000000E-02 0. -1.
          1   -1    0    0  501    0  0.00000000000E+00 -0.00000000000E+00 -0.46239653814E+03  0.46239653817E+03  0.50400000000E-02 0.  1.
    5000001    1    1    2    0    0 -0.37253872235E+02 -0.88522672044E+02 -0.35150811061E+03  0.41188113126E+03  0.19200000000E+03 0.  0.
   -5000001    1    1    2    0    0  0.37253872235E+02  0.88522672044E+02  0.62070757881E+02  0.22347459240E+03  0.19200000000E+03 0.  0.
<mgrwt>
<rscale>  0 0.56559961E+03</rscale>
<asrwt>0</asrwt>
<pdfrwt beam="1">  1        1 0.66056648E-01 0.56559961E+03</pdfrwt>
<pdfrwt beam="2">  1       -1 0.24708455E-01 0.56559961E+03</pdfrwt>
<totfact> 0.78408703E+02</totfact>
</mgrwt>
</event>
<event>
 4    1  0.7145298E-006  0.5877900E+03  0.7818608E-02  0.9931067E-01
          1   -1    0    0  501    0  0.00000000000E+00  0.00000000000E+00  0.18698572547E+04  0.18698572547E+04  0.50400000000E-02 0. -1.
         -1   -1    0    0    0  501 -0.00000000000E+00 -0.00000000000E+00 -0.46192972043E+02  0.46192972318E+02  0.50400000000E-02 0.  1.
    5000001    1    1    2    0    0  0.21708951704E+03 -0.42903199320E+02  0.83596169376E+03  0.88581290144E+03  0.19200000000E+03 0.  0.
   -5000001    1    1    2    0    0 -0.21708951704E+03  0.42903199320E+02  0.98770258889E+03  0.10302373256E+04  0.19200000000E+03 0.  0.
<mgrwt>
<rscale>  0 0.58778998E+03</rscale>
<asrwt>0</asrwt>
<pdfrwt beam="1">  1        1 0.26712248E+00 0.58778998E+03</pdfrwt>
<pdfrwt beam="2">  1       -1 0.65989956E-02 0.58778998E+03</pdfrwt>
<totfact> 0.56291887E+02</totfact>
</mgrwt>
</event>
<event>
 4    1  0.7145298E-006  0.6127497E+03  0.7818608E-02  0.9879302E-01
         -1   -1    0    0    0  501 -0.00000000000E+00  0.00000000000E+00  0.76911065153E+03  0.76911065155E+03  0.50400000000E-02 0. -1.
          1   -1    0    0  501    0  0.00000000000E+00 -0.00000000000E+00 -0.12204428110E+03  0.12204428121E+03  0.50400000000E-02 0.  1.
    5000001    1    1    2    0    0  0.22775493226E+03 -0.16878594867E+02  0.42475830883E+03  0.51907688935E+03  0.19200000000E+03 0.  0.
   -5000001    1    1    2    0    0 -0.22775493226E+03  0.16878594867E+02  0.22230806160E+03  0.37207804341E+03  0.19200000000E+03 0.  0.
<mgrwt>
<rscale>  0 0.61274973E+03</rscale>
<asrwt>0</asrwt>
<pdfrwt beam="1">  1        1 0.17434897E-01 0.61274973E+03</pdfrwt>
<pdfrwt beam="2">  1       -1 0.10987295E+00 0.61274973E+03</pdfrwt>
<totfact> 0.24523589E+02</totfact>
</mgrwt>
</event>
<event>
 4    1  0.7145298E-006  0.8475082E+03  0.7818608E-02  0.9493688E-01
          1   -1    0    0  501    0  0.00000000000E+00  0.00000000000E+00  0.23100867866E+04  0.23100867866E+04  0.50400000000E-02 0.  1.
         -1   -1    0    0    0  501 -0.00000000000E+00 -0.00000000000E+00 -0.77731940561E+02  0.77731940724E+02  0.50400000000E-02 0. -1.
    5000001    1    1    2    0    0 -0.53255288974E+02  0.23110281214E+03  0.19446197721E+04  0.19684142586E+04  0.19200000000E+03 0.  0.
   -5000001    1    1    2    0    0  0.53255288974E+02 -0.23110281214E+03  0.28773507395E+03  0.41940446869E+03  0.19200000000E+03 0.  0.
<mgrwt>
<rscale>  0 0.84750818E+03</rscale>
<asrwt>0</asrwt>
<pdfrwt beam="1">  1        1 0.33001236E+00 0.84750818E+03</pdfrwt>
<pdfrwt beam="2">  1       -1 0.11104564E-01 0.84750818E+03</pdfrwt>
<totfact> 0.12990453E+02</totfact>
</mgrwt>
</event>
<event>
 4    1  0.7145298E-006  0.5446038E+03  0.7818608E-02  0.1002751E+00
         -1   -1    0    0    0  501 -0.00000000000E+00  0.00000000000E+00  0.99293476660E+02  0.99293476788E+02  0.50400000000E-02 0. -1.
          1   -1    0    0  501    0  0.00000000000E+00 -0.00000000000E+00 -0.74675921789E+03  0.74675921790E+03  0.50400000000E-02 0.  1.
    5000001    1    1    2    0    0  0.10138821490E+03 -0.14223378287E+03 -0.19586866855E+03  0.32517465219E+03  0.19200000000E+03 0.  0.
   -5000001    1    1    2    0    0 -0.10138821490E+03  0.14223378287E+03 -0.45159707267E+03  0.52087804250E+03  0.19200000000E+03 0.  0.
<mgrwt>
<rscale>  0 0.54460378E+03</rscale>
<asrwt>0</asrwt>
<pdfrwt beam="1">  1        1 0.10667989E+00 0.54460378E+03</pdfrwt>
<pdfrwt beam="2">  1       -1 0.14184783E-01 0.54460378E+03</pdfrwt>
<totfact> 0.10022472E+03</totfact>
</mgrwt>
</event>
<event>
 4    1  0.7145298E-006  0.4788176E+03  0.7818608E-02  0.1019461E+00
         -1   -1    0    0    0  501 -0.00000000000E+00  0.00000000000E+00  0.51109914029E+03  0.51109914031E+03  0.50400000000E-02 0. -1.
          1   -1    0    0  501    0  0.00000000000E+00 -0.00000000000E+00 -0.11214376385E+03  0.11214376397E+03  0.50400000000E-02 0.  1.
    5000001    1    1    2    0    0 -0.10512579418E+03 -0.57561727443E+02  0.30103641851E+03  0.37663206228E+03  0.19200000000E+03 0.  0.
   -5000001    1    1    2    0    0  0.10512579418E+03  0.57561727443E+02  0.97918957920E+02  0.24661084199E+03  0.19200000000E+03 0.  0.
<mgrwt>
<rscale>  0 0.47881763E+03</rscale>
<asrwt>0</asrwt>
<pdfrwt beam="1">  1        1 0.16020538E-01 0.47881763E+03</pdfrwt>
<pdfrwt beam="2">  1       -1 0.73014163E-01 0.47881763E+03</pdfrwt>
<totfact> 0.67360851E+02</totfact>
</mgrwt>
</event>
<event>
 4    1  0.7145298E-006  0.1077053E+04  0.7818608E-02  0.9227851E-01
         -1   -1    0    0    0  501 -0.00000000000E+00  0.00000000000E+00  0.51906158087E+03  0.51906158090E+03  0.50400000000E-02 0. -1.
          1   -1    0    0  501    0  0.00000000000E+00 -0.00000000000E+00 -0.55872146533E+03  0.55872146535E+03  0.50400000000E-02 0.  1.
    5000001    1    1    2    0    0 -0.39724140515E+03 -0.13319937438E+03  0.25893387061E+03  0.52863366961E+03  0.19200000000E+03 0.  0.
   -5000001    1    1    2    0    0  0.39724140515E+03  0.13319937438E+03 -0.29859375506E+03  0.54914937664E+03  0.19200000000E+03 0.  0.
<mgrwt>
<rscale>  0 0.10770531E+04</rscale>
<asrwt>0</asrwt>
<pdfrwt beam="1">  1        1 0.79817352E-01 0.10770531E+04</pdfrwt>
<pdfrwt beam="2">  1       -1 0.74151655E-01 0.10770531E+04</pdfrwt>
<totfact> 0.77021260E+01</totfact>
</mgrwt>
</event>
<event>
 4    1  0.7145298E-006  0.4513943E+03  0.7818608E-02  0.1027307E+00
          1   -1    0    0  501    0  0.00000000000E+00  0.00000000000E+00  0.51783280058E+02  0.51783280303E+02  0.50400000000E-02 0.  1.
         -1   -1    0    0    0  501 -0.00000000000E+00 -0.00000000000E+00 -0.98370002271E+03  0.98370002273E+03  0.50400000000E-02 0. -1.
    5000001    1    1    2    0    0 -0.87636002448E+02 -0.12527139570E+02 -0.28477548208E+03  0.35468024099E+03  0.19200000000E+03 0.  0.
   -5000001    1    1    2    0    0  0.87636002448E+02  0.12527139570E+02 -0.64714126057E+03  0.68080306204E+03  0.19200000000E+03 0.  0.
<mgrwt>
<rscale>  0 0.45139435E+03</rscale>
<asrwt>0</asrwt>
<pdfrwt beam="1">  1        1 0.73976121E-02 0.45139435E+03</pdfrwt>
<pdfrwt beam="2">  1       -1 0.14052856E+00 0.45139435E+03</pdfrwt>
<totfact> 0.43246970E+02</totfact>
</mgrwt>
</event>
<event>
 4    1  0.7145298E-006  0.6136601E+03  0.7818608E-02  0.9877464E-01
          1   -1    0    0  501    0  0.00000000000E+00  0.00000000000E+00  0.15544923030E+04  0.15544923030E+04  0.50400000000E-02 0.  1.
         -1   -1    0    0    0  501 -0.00000000000E+00 -0.00000000000E+00 -0.60562970303E+02  0.60562970513E+02  0.50400000000E-02 0. -1.
    5000001    1    1    2    0    0 -0.20050846121E+03  0.62519725777E+02  0.44495240140E+03  0.52816569241E+03  0.19200000000E+03 0.  0.
   -5000001    1    1    2    0    0  0.20050846121E+03 -0.62519725777E+02  0.10489769313E+04  0.10868895811E+04  0.19200000000E+03 0.  0.
<mgrwt>
<rscale>  0 0.61366007E+03</rscale>
<asrwt>0</asrwt>
<pdfrwt beam="1">  1        1 0.22207036E+00 0.61366007E+03</pdfrwt>
<pdfrwt beam="2">  1       -1 0.86518519E-02 0.61366007E+03</pdfrwt>
<totfact> 0.58138118E+02</totfact>
</mgrwt>
</event>
<event>
 4    1  0.7145298E-006  0.8915312E+03  0.7818608E-02  0.9436230E-01
          1   -1    0    0  501    0  0.00000000000E+00  0.00000000000E+00  0.18451482980E+04  0.18451482981E+04  0.50400000000E-02 0. -1.
         -1   -1    0    0    0  501 -0.00000000000E+00 -0.00000000000E+00 -0.10769159622E+03  0.10769159633E+03  0.50400000000E-02 0.  1.
    5000001    1    1    2    0    0  0.17637119396E+03 -0.20742507524E+03  0.15174481347E+04  0.15535909376E+04  0.19200000000E+03 0.  0.
   -5000001    1    1    2    0    0 -0.17637119396E+03  0.20742507524E+03  0.22000856718E+03  0.39924895683E+03  0.19200000000E+03 0.  0.
<mgrwt>
<rscale>  0 0.89153119E+03</rscale>
<asrwt>0</asrwt>
<pdfrwt beam="1">  1        1 0.26359261E+00 0.89153119E+03</pdfrwt>
<pdfrwt beam="2">  1       -1 0.15384514E-01 0.89153119E+03</pdfrwt>
<totfact> 0.14910080E+02</totfact>
</mgrwt>
</event>
<event>
 4    1  0.7145298E-006  0.4145377E+03  0.7818608E-02  0.1038859E+00
         -1   -1    0    0    0  501 -0.00000000000E+00  0.00000000000E+00  0.41182754822E+02  0.41182755130E+02  0.50400000000E-02 0. -1.
          1   -1    0    0  501    0  0.00000000000E+00 -0.00000000000E+00 -0.10431644550E+04  0.10431644550E+04  0.50400000000E-02 0.  1.
    5000001    1    1    2    0    0 -0.10598012091E+02  0.44384157286E+02 -0.33526159380E+03  0.38903291321E+03  0.19200000000E+03 0.  0.
   -5000001    1    1    2    0    0  0.10598012091E+02 -0.44384157286E+02 -0.66672010637E+03  0.69531429694E+03  0.19200000000E+03 0.  0.
<mgrwt>
<rscale>  0 0.41453775E+03</rscale>
<asrwt>0</asrwt>
<pdfrwt beam="1">  1        1 0.14902348E+00 0.41453775E+03</pdfrwt>
<pdfrwt beam="2">  1       -1 0.58832514E-02 0.41453775E+03</pdfrwt>
<totfact> 0.23307509E+03</totfact>
</mgrwt>
</event>
<event>
 4    1  0.7145298E-006  0.4459169E+03  0.7818608E-02  0.1028947E+00
         -1   -1    0    0    0  501 -0.00000000000E+00  0.00000000000E+00  0.13212861504E+03  0.13212861514E+03  0.50400000000E-02 0. -1.
          1   -1    0    0  501    0  0.00000000000E+00 -0.00000000000E+00 -0.37622782955E+03  0.37622782959E+03  0.50400000000E-02 0.  1.
    5000001    1    1    2    0    0  0.42733168464E+02  0.33024994544E+02 -0.23565063028E+03  0.30872640558E+03  0.19200000000E+03 0.  0.
   -5000001    1    1    2    0    0 -0.42733168464E+02 -0.33024994544E+02 -0.84485842289E+01  0.19963003914E+03  0.19200000000E+03 0.  0.
<mgrwt>
<rscale>  0 0.44591686E+03</rscale>
<asrwt>0</asrwt>
<pdfrwt beam="1">  1        1 0.53746832E-01 0.44591686E+03</pdfrwt>
<pdfrwt beam="2">  1       -1 0.18875517E-01 0.44591686E+03</pdfrwt>
<totfact> 0.16081231E+03</totfact>
</mgrwt>
</event>
<event>
 4    1  0.7145298E-006  0.5306746E+03  0.7818608E-02  0.1006069E+00
          1   -1    0    0  501    0  0.00000000000E+00  0.00000000000E+00  0.68379779597E+03  0.68379779599E+03  0.50400000000E-02 0.  1.
         -1   -1    0    0    0  501 -0.00000000000E+00 -0.00000000000E+00 -0.10296008752E+03  0.10296008765E+03  0.50400000000E-02 0. -1.
    5000001    1    1    2    0    0 -0.17156465766E+03  0.11457864946E+01  0.19544070548E+03  0.32325966953E+03  0.19200000000E+03 0.  0.
   -5000001    1    1    2    0    0  0.17156465766E+03 -0.11457864946E+01  0.38539700297E+03  0.46349821411E+03  0.19200000000E+03 0.  0.
<mgrwt>
<rscale>  0 0.53067459E+03</rscale>
<asrwt>0</asrwt>
<pdfrwt beam="1">  1        1 0.97685401E-01 0.53067459E+03</pdfrwt>
<pdfrwt beam="2">  1       -1 0.14708584E-01 0.53067459E+03</pdfrwt>
<totfact> 0.10762640E+03</totfact>
</mgrwt>
</event>
<event>
 4    1  0.7145298E-006  0.4434257E+03  0.7818608E-02  0.1029701E+00
          1   -1    0    0  501    0  0.00000000000E+00  0.00000000000E+00  0.67205601418E+02  0.67205601607E+02  0.50400000000E-02 0.  1.
         -1   -1    0    0    0  501 -0.00000000000E+00 -0.00000000000E+00 -0.73143576544E+03  0.73143576545E+03  0.50400000000E-02 0. -1.
    5000001    1    1    2    0    0 -0.10894052680E+03  0.79437270166E+01 -0.29787390133E+03  0.37084228759E+03  0.19200000000E+03 0.  0.
   -5000001    1    1    2    0    0  0.10894052680E+03 -0.79437270166E+01 -0.36635626269E+03  0.42779907947E+03  0.19200000000E+03 0.  0.
<mgrwt>
<rscale>  0 0.44342567E+03</rscale>
<asrwt>0</asrwt>
<pdfrwt beam="1">  1        1 0.96008007E-02 0.44342567E+03</pdfrwt>
<pdfrwt beam="2">  1       -1 0.10449082E+00 0.44342567E+03</pdfrwt>
<totfact> 0.61954378E+02</totfact>
</mgrwt>
</event>
<event>
 4    1  0.7145298E-006  0.5298627E+03  0.7818608E-02  0.1006265E+00
          1   -1    0    0  501    0  0.00000000000E+00  0.00000000000E+00  0.24085453954E+04  0.24085453954E+04  0.50400000000E-02 0.  1.
         -1   -1    0    0    0  501 -0.00000000000E+00 -0.00000000000E+00 -0.29141502935E+02  0.29141503371E+02  0.50400000000E-02 0. -1.
    5000001    1    1    2    0    0  0.72286145876E+02  0.16205680119E+03  0.99252235272E+03  0.10263782511E+04  0.19200000000E+03 0.  0.
   -5000001    1    1    2    0    0 -0.72286145876E+02 -0.16205680119E+03  0.13868815397E+04  0.14113086476E+04  0.19200000000E+03 0.  0.
<mgrwt>
<rscale>  0 0.52986275E+03</rscale>
<asrwt>0</asrwt>
<pdfrwt beam="1">  1        1 0.34407796E+00 0.52986275E+03</pdfrwt>
<pdfrwt beam="2">  1       -1 0.41630714E-02 0.52986275E+03</pdfrwt>
<totfact> 0.53227593E+02</totfact>
</mgrwt>
</event>
<event>
 4    1  0.7145298E-006  0.5960767E+03  0.7818608E-02  0.9913579E-01
          1   -1    0    0  501    0  0.00000000000E+00  0.00000000000E+00  0.14612628248E+04  0.14612628249E+04  0.50400000000E-02 0.  1.
         -1   -1    0    0    0  501 -0.00000000000E+00 -0.00000000000E+00 -0.60787728472E+02  0.60787728681E+02  0.50400000000E-02 0. -1.
    5000001    1    1    2    0    0 -0.12534780155E+03  0.19035356345E+03  0.71054586360E+03  0.77051020418E+03  0.19200000000E+03 0.  0.
   -5000001    1    1    2    0    0  0.12534780155E+03 -0.19035356345E+03  0.68992923278E+03  0.75154034935E+03  0.19200000000E+03 0.  0.
<mgrwt>
<rscale>  0 0.59607667E+03</rscale>
<asrwt>0</asrwt>
<pdfrwt beam="1">  1        1 0.20875183E+00 0.59607667E+03</pdfrwt>
<pdfrwt beam="2">  1       -1 0.86839614E-02 0.59607667E+03</pdfrwt>
<totfact> 0.66387699E+02</totfact>
</mgrwt>
</event>
<event>
 4    1  0.7145298E-006  0.7918146E+03  0.7818608E-02  0.9571941E-01
         -1   -1    0    0    0  501 -0.00000000000E+00  0.00000000000E+00  0.85926994900E+02  0.85926995047E+02  0.50400000000E-02 0. -1.
          1   -1    0    0  501    0  0.00000000000E+00 -0.00000000000E+00 -0.18241369139E+04  0.18241369139E+04  0.50400000000E-02 0.  1.
    5000001    1    1    2    0    0 -0.26190013026E+03  0.22589844430E+03 -0.90776276240E+03  0.99021160273E+03  0.19200000000E+03 0.  0.
   -5000001    1    1    2    0    0  0.26190013026E+03 -0.22589844430E+03 -0.83044715658E+03  0.91985230621E+03  0.19200000000E+03 0.  0.
<mgrwt>
<rscale>  0 0.79181463E+03</rscale>
<asrwt>0</asrwt>
<pdfrwt beam="1">  1        1 0.26059096E+00 0.79181463E+03</pdfrwt>
<pdfrwt beam="2">  1       -1 0.12275286E-01 0.79181463E+03</pdfrwt>
<totfact> 0.22315469E+02</totfact>
</mgrwt>
</event>
<event>
 4    1  0.7145298E-006  0.6746715E+03  0.7818608E-02  0.9761555E-01
         -1   -1    0    0    0  501 -0.00000000000E+00  0.00000000000E+00  0.19429555367E+03  0.19429555374E+03  0.50400000000E-02 0.  1.
          1   -1    0    0  501    0  0.00000000000E+00 -0.00000000000E+00 -0.58568195578E+03  0.58568195580E+03  0.50400000000E-02 0. -1.
    5000001    1    1    2    0    0  0.17704946572E+03  0.15613011555E+03 -0.27331854685E+02  0.30550639367E+03  0.19200000000E+03 0.  0.
   -5000001    1    1    2    0    0 -0.17704946572E+03 -0.15613011555E+03 -0.36405454742E+03  0.47447111587E+03  0.19200000000E+03 0.  0.
<mgrwt>
<rscale>  0 0.67467148E+03</rscale>
<asrwt>0</asrwt>
<pdfrwt beam="1">  1        1 0.83668850E-01 0.67467148E+03</pdfrwt>
<pdfrwt beam="2">  1       -1 0.27756508E-01 0.67467148E+03</pdfrwt>
<totfact> 0.46490941E+02</totfact>
</mgrwt>
</event>
<event>
 4    1  0.7145298E-006  0.6926825E+03  0.7818608E-02  0.9729828E-01
          1   -1    0    0  501    0  0.00000000000E+00  0.00000000000E+00  0.13834390099E+04  0.13834390099E+04  0.50400000000E-02 0.  1.
         -1   -1    0    0    0  501 -0.00000000000E+00 -0.00000000000E+00 -0.86705865162E+02  0.86705865309E+02  0.50400000000E-02 0. -1.
    5000001    1    1    2    0    0 -0.21846311942E+03 -0.10465849032E+03  0.31677873514E+03  0.44259722229E+03  0.19200000000E+03 0.  0.
   -5000001    1    1    2    0    0  0.21846311942E+03  0.10465849032E+03  0.97995440957E+03  0.10275476529E+04  0.19200000000E+03 0.  0.
<mgrwt>
<rscale>  0 0.69268254E+03</rscale>
<asrwt>0</asrwt>
<pdfrwt beam="1">  1        1 0.19763414E+00 0.69268254E+03</pdfrwt>
<pdfrwt beam="2">  1       -1 0.12386552E-01 0.69268254E+03</pdfrwt>
<totfact> 0.42297761E+02</totfact>
</mgrwt>
</event>
<event>
 4    1  0.7145298E-006  0.6762956E+03  0.7818608E-02  0.9758651E-01
          1   -1    0    0  501    0  0.00000000000E+00  0.00000000000E+00  0.75309550813E+03  0.75309550814E+03  0.50400000000E-02 0.  1.
         -1   -1    0    0    0  501 -0.00000000000E+00 -0.00000000000E+00 -0.15183190252E+03  0.15183190260E+03  0.50400000000E-02 0. -1.
    5000001    1    1    2    0    0 -0.20310205911E+03  0.10892579423E+03  0.50949276749E+03  0.59123781610E+03  0.19200000000E+03 0.  0.
   -5000001    1    1    2    0    0  0.20310205911E+03 -0.10892579423E+03  0.91770838114E+02  0.31368959465E+03  0.19200000000E+03 0.  0.
<mgrwt>
<rscale>  0 0.67629557E+03</rscale>
<asrwt>0</asrwt>
<pdfrwt beam="1">  1        1 0.10758507E+00 0.67629557E+03</pdfrwt>
<pdfrwt beam="2">  1       -1 0.21690272E-01 0.67629557E+03</pdfrwt>
<totfact> 0.49109861E+02</totfact>
</mgrwt>
</event>
<event>
 4    1  0.7145298E-006  0.8567687E+03  0.7818608E-02  0.9481297E-01
          1   -1    0    0  501    0  0.00000000000E+00  0.00000000000E+00  0.16226199349E+03  0.16226199356E+03  0.50400000000E-02 0. -1.
         -1   -1    0    0    0  501 -0.00000000000E+00 -0.00000000000E+00 -0.11309681793E+04  0.11309681793E+04  0.50400000000E-02 0.  1.
    5000001    1    1    2    0    0 -0.16766585414E+03  0.27320605547E+03 -0.16810818404E+03  0.40972887246E+03  0.19200000000E+03 0.  0.
   -5000001    1    1    2    0    0  0.16766585414E+03 -0.27320605547E+03 -0.80059800179E+03  0.88350130043E+03  0.19200000000E+03 0.  0.
<mgrwt>
<rscale>  0 0.85676870E+03</rscale>
<asrwt>0</asrwt>
<pdfrwt beam="1">  1        1 0.23180285E-01 0.85676870E+03</pdfrwt>
<pdfrwt beam="2">  1       -1 0.16156688E+00 0.85676870E+03</pdfrwt>
<totfact> 0.62071301E+01</totfact>
</mgrwt>
</event>
<event>
 4    1  0.7145298E-006  0.5322831E+03  0.7818608E-02  0.1005680E+00
          1   -1    0    0  501    0  0.00000000000E+00  0.00000000000E+00  0.18352532686E+03  0.18352532693E+03  0.50400000000E-02 0. -1.
         -1   -1    0    0    0  501 -0.00000000000E+00 -0.00000000000E+00 -0.38594852523E+03  0.38594852526E+03  0.50400000000E-02 0.  1.
    5000001    1    1    2    0    0 -0.11040063411E+03  0.18384864072E+02 -0.25787006829E+03  0.34042220163E+03  0.19200000000E+03 0.  0.
   -5000001    1    1    2    0    0  0.11040063411E+03 -0.18384864072E+02  0.55446869923E+02  0.22905165056E+03  0.19200000000E+03 0.  0.
<mgrwt>
<rscale>  0 0.53228312E+03</rscale>
<asrwt>0</asrwt>
<pdfrwt beam="1">  1        1 0.26217904E-01 0.53228312E+03</pdfrwt>
<pdfrwt beam="2">  1       -1 0.55135503E-01 0.53228312E+03</pdfrwt>
<totfact> 0.61535019E+02</totfact>
</mgrwt>
</event>
<event>
 4    1  0.7145298E-006  0.5841439E+03  0.7818608E-02  0.9938860E-01
          1   -1    0    0  501    0  0.00000000000E+00  0.00000000000E+00  0.14331957768E+03  0.14331957777E+03  0.50400000000E-02 0.  1.
         -1   -1    0    0    0  501 -0.00000000000E+00 -0.00000000000E+00 -0.59521542399E+03  0.59521542402E+03  0.50400000000E-02 0. -1.
    5000001    1    1    2    0    0  0.15853027825E+03  0.57617560661E+01 -0.33055787773E+02  0.25124038700E+03  0.19200000000E+03 0.  0.
   -5000001    1    1    2    0    0 -0.15853027825E+03 -0.57617560661E+01 -0.41884005854E+03  0.48729461478E+03  0.19200000000E+03 0.  0.
<mgrwt>
<rscale>  0 0.58414390E+03</rscale>
<asrwt>0</asrwt>
<pdfrwt beam="1">  1        1 0.20474226E-01 0.58414390E+03</pdfrwt>
<pdfrwt beam="2">  1       -1 0.85030773E-01 0.58414390E+03</pdfrwt>
<totfact> 0.35282752E+02</totfact>
</mgrwt>
</event>
<event>
 4    1  0.7145298E-006  0.4673325E+03  0.7818608E-02  0.1022676E+00
          1   -1    0    0  501    0  0.00000000000E+00  0.00000000000E+00  0.58009078926E+02  0.58009079145E+02  0.50400000000E-02 0.  1.
         -1   -1    0    0    0  501 -0.00000000000E+00 -0.00000000000E+00 -0.94123044960E+03  0.94123044962E+03  0.50400000000E-02 0. -1.
    5000001    1    1    2    0    0 -0.10569289866E+03 -0.49538753356E+02 -0.30451978000E+03  0.37844599789E+03  0.19200000000E+03 0.  0.
   -5000001    1    1    2    0    0  0.10569289866E+03  0.49538753356E+02 -0.57870159068E+03  0.62079353087E+03  0.19200000000E+03 0.  0.
<mgrwt>
<rscale>  0 0.46733248E+03</rscale>
<asrwt>0</asrwt>
<pdfrwt beam="1">  1        1 0.82870119E-02 0.46733248E+03</pdfrwt>
<pdfrwt beam="2">  1       -1 0.13446148E+00 0.46733248E+03</pdfrwt>
<totfact> 0.41356143E+02</totfact>
</mgrwt>
</event>
<event>
 4    1  0.7145298E-006  0.6441779E+03  0.7818608E-02  0.9817766E-01
         -1   -1    0    0    0  501 -0.00000000000E+00  0.00000000000E+00  0.10829470548E+03  0.10829470559E+03  0.50400000000E-02 0. -1.
          1   -1    0    0  501    0  0.00000000000E+00 -0.00000000000E+00 -0.95795361007E+03  0.95795361008E+03  0.50400000000E-02 0.  1.
    5000001    1    1    2    0    0 -0.49534414808E+01 -0.13637622852E+03 -0.78842661378E+03  0.82286301266E+03  0.19200000000E+03 0.  0.
   -5000001    1    1    2    0    0  0.49534414808E+01  0.13637622852E+03 -0.61232290813E+02  0.24338530302E+03  0.19200000000E+03 0.  0.
<mgrwt>
<rscale>  0 0.64417794E+03</rscale>
<asrwt>0</asrwt>
<pdfrwt beam="1">  1        1 0.13685051E+00 0.64417794E+03</pdfrwt>
<pdfrwt beam="2">  1       -1 0.15470673E-01 0.64417794E+03</pdfrwt>
<totfact> 0.58678377E+02</totfact>
</mgrwt>
</event>
<event>
 4    1  0.7145298E-006  0.5238162E+03  0.7818608E-02  0.1007743E+00
         -1   -1    0    0    0  501 -0.00000000000E+00  0.00000000000E+00  0.38837066869E+02  0.38837067196E+02  0.50400000000E-02 0. -1.
          1   -1    0    0  501    0  0.00000000000E+00 -0.00000000000E+00 -0.17662467944E+04  0.17662467944E+04  0.50400000000E-02 0.  1.
    5000001    1    1    2    0    0 -0.44893835548E+02  0.13001720910E+03 -0.12537595410E+04  0.12758122580E+04  0.19200000000E+03 0.  0.
   -5000001    1    1    2    0    0  0.44893835548E+02 -0.13001720910E+03 -0.47365018655E+03  0.52927160358E+03  0.19200000000E+03 0.  0.
<mgrwt>
<rscale>  0 0.52381617E+03</rscale>
<asrwt>0</asrwt>
<pdfrwt beam="1">  1        1 0.25232092E+00 0.52381617E+03</pdfrwt>
<pdfrwt beam="2">  1       -1 0.55481536E-02 0.52381617E+03</pdfrwt>
<totfact> 0.85560682E+02</totfact>
</mgrwt>
</event>
<event>
 4    1  0.7145298E-006  0.2107254E+04  0.7818608E-02  0.8558054E-01
          1   -1    0    0  501    0  0.00000000000E+00  0.00000000000E+00  0.24764642535E+04  0.24764642535E+04  0.50400000000E-02 0. -1.
         -1   -1    0    0    0  501 -0.00000000000E+00 -0.00000000000E+00 -0.44827231324E+03  0.44827231327E+03  0.50400000000E-02 0.  1.
    5000001    1    1    2    0    0  0.20613757517E+03 -0.88834840525E+03  0.33187052300E+03  0.98927126363E+03  0.19200000000E+03 0.  0.
   -5000001    1    1    2    0    0 -0.20613757517E+03  0.88834840525E+03  0.16963214172E+04  0.19354653031E+04  0.19200000000E+03 0.  0.
<mgrwt>
<rscale>  0 0.21072545E+04</rscale>
<asrwt>0</asrwt>
<pdfrwt beam="1">  1        1 0.35378060E+00 0.21072545E+04</pdfrwt>
<pdfrwt beam="2">  1       -1 0.64038903E-01 0.21072545E+04</pdfrwt>
<totfact> 0.42493179E+00</totfact>
</mgrwt>
</event>
<event>
 4    1  0.7145298E-006  0.6838208E+03  0.7818608E-02  0.9745308E-01
          1   -1    0    0  501    0  0.00000000000E+00  0.00000000000E+00  0.13171478644E+04  0.13171478644E+04  0.50400000000E-02 0.  1.
         -1   -1    0    0    0  501 -0.00000000000E+00 -0.00000000000E+00 -0.88754441071E+02  0.88754441214E+02  0.50400000000E-02 0. -1.
    5000001    1    1    2    0    0  0.19956038347E+03 -0.13895015460E+03  0.31691986314E+03  0.44320840669E+03  0.19200000000E+03 0.  0.
   -5000001    1    1    2    0    0 -0.19956038347E+03  0.13895015460E+03  0.91147356020E+03  0.96269389894E+03  0.19200000000E+03 0.  0.
<mgrwt>
<rscale>  0 0.68382080E+03</rscale>
<asrwt>0</asrwt>
<pdfrwt beam="1">  1        1 0.18816397E+00 0.68382080E+03</pdfrwt>
<pdfrwt beam="2">  1       -1 0.12679206E-01 0.68382080E+03</pdfrwt>
<totfact> 0.45095298E+02</totfact>
</mgrwt>
</event>
<event>
 4    1  0.7145298E-006  0.4017717E+03  0.7818608E-02  0.1043168E+00
          1   -1    0    0  501    0  0.00000000000E+00  0.00000000000E+00  0.98738970993E+03  0.98738970994E+03  0.50400000000E-02 0.  1.
         -1   -1    0    0    0  501 -0.00000000000E+00 -0.00000000000E+00 -0.40870508081E+02  0.40870508392E+02  0.50400000000E-02 0. -1.
    5000001    1    1    2    0    0  0.96599466754E+00  0.58980034637E+02  0.46456483811E+03  0.50612653205E+03  0.19200000000E+03 0.  0.
   -5000001    1    1    2    0    0 -0.96599466754E+00 -0.58980034637E+02  0.48195436374E+03  0.52213368629E+03  0.19200000000E+03 0.  0.
<mgrwt>
<rscale>  0 0.40177167E+03</rscale>
<asrwt>0</asrwt>
<pdfrwt beam="1">  1        1 0.14105567E+00 0.40177167E+03</pdfrwt>
<pdfrwt beam="2">  1       -1 0.58386443E-02 0.40177167E+03</pdfrwt>
<totfact> 0.25877463E+03</totfact>
</mgrwt>
</event>
<event>
 4    1  0.7145298E-006  0.6115192E+03  0.7818608E-02  0.9881792E-01
          1   -1    0    0  501    0  0.00000000000E+00  0.00000000000E+00  0.31000954512E+04  0.31000954512E+04  0.50400000000E-02 0.  1.
         -1   -1    0    0    0  501 -0.00000000000E+00 -0.00000000000E+00 -0.30156787657E+02  0.30156788078E+02  0.50400000000E-02 0. -1.
    5000001    1    1    2    0    0  0.19895245417E+03 -0.75893677691E+02  0.99124170810E+03  0.10318750182E+04  0.19200000000E+03 0.  0.
   -5000001    1    1    2    0    0 -0.19895245417E+03  0.75893677691E+02  0.20786969554E+04  0.20983772210E+04  0.19200000000E+03 0.  0.
<mgrwt>
<rscale>  0 0.61151916E+03</rscale>
<asrwt>0</asrwt>
<pdfrwt beam="1">  1        1 0.44287085E+00 0.61151916E+03</pdfrwt>
<pdfrwt beam="2">  1       -1 0.43081119E-02 0.61151916E+03</pdfrwt>
<totfact> 0.18266592E+02</totfact>
</mgrwt>
</event>
<event>
 4    1  0.7145298E-006  0.1110618E+04  0.7818608E-02  0.9194904E-01
          1   -1    0    0  501    0  0.00000000000E+00  0.00000000000E+00  0.10844675241E+04  0.10844675241E+04  0.50400000000E-02 0.  1.
         -1   -1    0    0    0  501 -0.00000000000E+00 -0.00000000000E+00 -0.28434961356E+03  0.28434961361E+03  0.50400000000E-02 0. -1.
    5000001    1    1    2    0    0 -0.11144627762E+03 -0.42387204504E+03  0.74738329887E+03  0.88743088677E+03  0.19200000000E+03 0.  0.
   -5000001    1    1    2    0    0  0.11144627762E+03  0.42387204504E+03  0.52734611692E+02  0.48138625098E+03  0.19200000000E+03 0.  0.
<mgrwt>
<rscale>  0 0.11106177E+04</rscale>
<asrwt>0</asrwt>
<pdfrwt beam="1">  1        1 0.15492393E+00 0.11106177E+04</pdfrwt>
<pdfrwt beam="2">  1       -1 0.40621373E-01 0.11106177E+04</pdfrwt>
<totfact> 0.88053135E+01</totfact>
</mgrwt>
</event>
<event>
 4    1  0.7145298E-006  0.4807972E+03  0.7818608E-02  0.1018916E+00
         -1   -1    0    0    0  501 -0.00000000000E+00  0.00000000000E+00  0.13869709430E+03  0.13869709439E+03  0.50400000000E-02 0. -1.
          1   -1    0    0  501    0  0.00000000000E+00 -0.00000000000E+00 -0.41667402185E+03  0.41667402188E+03  0.50400000000E-02 0.  1.
    5000001    1    1    2    0    0  0.37749373107E+02  0.12724328869E+03 -0.20546077195E+03  0.31095658619E+03  0.19200000000E+03 0.  0.
   -5000001    1    1    2    0    0 -0.37749373107E+02 -0.12724328869E+03 -0.72516155602E+02  0.24441453007E+03  0.19200000000E+03 0.  0.
<mgrwt>
<rscale>  0 0.48079716E+03</rscale>
<asrwt>0</asrwt>
<pdfrwt beam="1">  1        1 0.59524860E-01 0.48079716E+03</pdfrwt>
<pdfrwt beam="2">  1       -1 0.19813871E-01 0.48079716E+03</pdfrwt>
<totfact> 0.13010796E+03</totfact>
</mgrwt>
</event>
<event>
 4    1  0.7145298E-006  0.4324465E+03  0.7818608E-02  0.1033090E+00
          1   -1    0    0  501    0  0.00000000000E+00  0.00000000000E+00  0.55976101399E+03  0.55976101402E+03  0.50400000000E-02 0. -1.
         -1   -1    0    0    0  501 -0.00000000000E+00 -0.00000000000E+00 -0.83522237692E+02  0.83522237844E+02  0.50400000000E-02 0.  1.
    5000001    1    1    2    0    0  0.76338564913E+02 -0.40756871976E+02  0.16524804197E+03  0.26769313492E+03  0.19200000000E+03 0.  0.
   -5000001    1    1    2    0    0 -0.76338564913E+02  0.40756871976E+02  0.31099073433E+03  0.37559011694E+03  0.19200000000E+03 0.  0.
<mgrwt>
<rscale>  0 0.43244649E+03</rscale>
<asrwt>0</asrwt>
<pdfrwt beam="1">  1        1 0.79965859E-01 0.43244649E+03</pdfrwt>
<pdfrwt beam="2">  1       -1 0.11931748E-01 0.43244649E+03</pdfrwt>
<totfact> 0.19906390E+03</totfact>
</mgrwt>
</event>
<event>
 4    1  0.7145298E-006  0.1253089E+04  0.7818608E-02  0.9067616E-01
         -1   -1    0    0    0  501 -0.00000000000E+00  0.00000000000E+00  0.29376837359E+03  0.29376837363E+03  0.50400000000E-02 0. -1.
          1   -1    0    0  501    0  0.00000000000E+00 -0.00000000000E+00 -0.13362837213E+04  0.13362837213E+04  0.50400000000E-02 0.  1.
    5000001    1    1    2    0    0 -0.20405029848E+03 -0.55932462918E+03 -0.56656924979E+03  0.84400549757E+03  0.19200000000E+03 0.  0.
   -5000001    1    1    2    0    0  0.20405029848E+03  0.55932462918E+03 -0.47594609793E+03  0.78604659738E+03  0.19200000000E+03 0.  0.
<mgrwt>
<rscale>  0 0.12530888E+04</rscale>
<asrwt>0</asrwt>
<pdfrwt beam="1">  1        1 0.19089767E+00 0.12530888E+04</pdfrwt>
<pdfrwt beam="2">  1       -1 0.41966911E-01 0.12530888E+04</pdfrwt>
<totfact> 0.54872556E+01</totfact>
</mgrwt>
</event>
<event>
 4    1  0.7145298E-006  0.4500455E+03  0.7818608E-02  0.1027708E+00
         -1   -1    0    0    0  501 -0.00000000000E+00  0.00000000000E+00  0.28395870941E+02  0.28395871388E+02  0.50400000000E-02 0.  1.
          1   -1    0    0  501    0  0.00000000000E+00 -0.00000000000E+00 -0.17831899188E+04  0.17831899188E+04  0.50400000000E-02 0. -1.
    5000001    1    1    2    0    0  0.52943225368E+02  0.99401410819E+02 -0.10101481560E+04  0.10343823870E+04  0.19200000000E+03 0.  0.
   -5000001    1    1    2    0    0 -0.52943225368E+02 -0.99401410819E+02 -0.74464589186E+03  0.77720340314E+03  0.19200000000E+03 0.  0.
<mgrwt>
<rscale>  0 0.45004547E+03</rscale>
<asrwt>0</asrwt>
<pdfrwt beam="1">  1        1 0.25474135E+00 0.45004547E+03</pdfrwt>
<pdfrwt beam="2">  1       -1 0.40565541E-02 0.45004547E+03</pdfrwt>
<totfact> 0.13492552E+03</totfact>
</mgrwt>
</event>
<event>
 4    1  0.7145298E-006  0.6604054E+03  0.7818608E-02  0.9787448E-01
         -1   -1    0    0    0  501 -0.00000000000E+00  0.00000000000E+00  0.67523007962E+02  0.67523008150E+02  0.50400000000E-02 0. -1.
          1   -1    0    0  501    0  0.00000000000E+00 -0.00000000000E+00 -0.16147654788E+04  0.16147654788E+04  0.50400000000E-02 0.  1.
    5000001    1    1    2    0    0 -0.25032357657E+03  0.83053127778E+02 -0.90376370670E+03  0.96083950406E+03  0.19200000000E+03 0.  0.
   -5000001    1    1    2    0    0  0.25032357657E+03 -0.83053127778E+02 -0.64347876412E+03  0.72144898288E+03  0.19200000000E+03 0.  0.
<mgrwt>
<rscale>  0 0.66040540E+03</rscale>
<asrwt>0</asrwt>
<pdfrwt beam="1">  1        1 0.23068076E+00 0.66040540E+03</pdfrwt>
<pdfrwt beam="2">  1       -1 0.96461450E-02 0.66040540E+03</pdfrwt>
<totfact> 0.44743768E+02</totfact>
</mgrwt>
</event>
<event>
 4    1  0.7145298E-006  0.4745882E+03  0.7818608E-02  0.1020633E+00
          1   -1    0    0  501    0  0.00000000000E+00  0.00000000000E+00  0.57498386025E+03  0.57498386027E+03  0.50400000000E-02 0.  1.
         -1   -1    0    0    0  501 -0.00000000000E+00 -0.00000000000E+00 -0.97930542473E+02  0.97930542603E+02  0.50400000000E-02 0. -1.
    5000001    1    1    2    0    0  0.90438529692E+02 -0.99208569511E+02  0.18503975884E+03  0.29853840669E+03  0.19200000000E+03 0.  0.
   -5000001    1    1    2    0    0 -0.90438529692E+02  0.99208569511E+02  0.29201355893E+03  0.37437599618E+03  0.19200000000E+03 0.  0.
<mgrwt>
<rscale>  0 0.47458816E+03</rscale>
<asrwt>0</asrwt>
<pdfrwt beam="1">  1        1 0.82140551E-01 0.47458816E+03</pdfrwt>
<pdfrwt beam="2">  1       -1 0.13990078E-01 0.47458816E+03</pdfrwt>
<totfact> 0.14899411E+03</totfact>
</mgrwt>
</event>
<event>
 4    1  0.7145298E-006  0.6986087E+03  0.7818608E-02  0.9719614E-01
         -1   -1    0    0    0  501 -0.00000000000E+00  0.00000000000E+00  0.79488108290E+02  0.79488108449E+02  0.50400000000E-02 0.  1.
          1   -1    0    0  501    0  0.00000000000E+00 -0.00000000000E+00 -0.15349911281E+04  0.15349911282E+04  0.50400000000E-02 0. -1.
    5000001    1    1    2    0    0 -0.23858801479E+03 -0.71638372971E+02 -0.37656249453E+03  0.49063184728E+03  0.19200000000E+03 0.  0.
   -5000001    1    1    2    0    0  0.23858801479E+03  0.71638372971E+02 -0.10789405253E+04  0.11238473893E+04  0.19200000000E+03 0.  0.
<mgrwt>
<rscale>  0 0.69860873E+03</rscale>
<asrwt>0</asrwt>
<pdfrwt beam="1">  1        1 0.21928443E+00 0.69860873E+03</pdfrwt>
<pdfrwt beam="2">  1       -1 0.11355445E-01 0.69860873E+03</pdfrwt>
<totfact> 0.38744225E+02</totfact>
</mgrwt>
</event>
<event>
 4    1  0.7145298E-006  0.7782646E+03  0.7818608E-02  0.9592022E-01
         -1   -1    0    0    0  501 -0.00000000000E+00  0.00000000000E+00  0.43380499487E+03  0.43380499490E+03  0.50400000000E-02 0. -1.
          1   -1    0    0  501    0  0.00000000000E+00 -0.00000000000E+00 -0.34905994889E+03  0.34905994893E+03  0.50400000000E-02 0.  1.
    5000001    1    1    2    0    0  0.32336208750E+03  0.58360598366E+02 -0.39292029014E+02  0.38259229294E+03  0.19200000000E+03 0.  0.
   -5000001    1    1    2    0    0 -0.32336208750E+03 -0.58360598366E+02  0.12403707499E+03  0.40027265088E+03  0.19200000000E+03 0.  0.
<mgrwt>
<rscale>  0 0.77826461E+03</rscale>
<asrwt>0</asrwt>
<pdfrwt beam="1">  1        1 0.49865707E-01 0.77826461E+03</pdfrwt>
<pdfrwt beam="2">  1       -1 0.61972143E-01 0.77826461E+03</pdfrwt>
<totfact> 0.21167930E+02</totfact>
</mgrwt>
</event>
<event>
 4    1  0.7145298E-006  0.5169260E+03  0.7818608E-02  0.1009453E+00
          1   -1    0    0  501    0  0.00000000000E+00  0.00000000000E+00  0.53542035100E+02  0.53542035337E+02  0.50400000000E-02 0.  1.
         -1   -1    0    0    0  501 -0.00000000000E+00 -0.00000000000E+00 -0.12476763622E+04  0.12476763622E+04  0.50400000000E-02 0. -1.
    5000001    1    1    2    0    0 -0.10510982236E+03 -0.97914145652E+02 -0.83987000767E+03  0.87343052640E+03  0.19200000000E+03 0.  0.
   -5000001    1    1    2    0    0  0.10510982236E+03  0.97914145652E+02 -0.35426431943E+03  0.42778787115E+03  0.19200000000E+03 0.  0.
<mgrwt>
<rscale>  0 0.51692604E+03</rscale>
<asrwt>0</asrwt>
<pdfrwt beam="1">  1        1 0.76488630E-02 0.51692604E+03</pdfrwt>
<pdfrwt beam="2">  1       -1 0.17823946E+00 0.51692604E+03</pdfrwt>
<totfact> 0.21487331E+02</totfact>
</mgrwt>
</event>
<event>
 4    1  0.7145298E-006  0.7111859E+03  0.7818608E-02  0.9698292E-01
         -1   -1    0    0    0  501 -0.00000000000E+00  0.00000000000E+00  0.62430171225E+02  0.62430171428E+02  0.50400000000E-02 0. -1.
          1   -1    0    0  501    0  0.00000000000E+00 -0.00000000000E+00 -0.20254043095E+04  0.20254043095E+04  0.50400000000E-02 0.  1.
    5000001    1    1    2    0    0  0.78563391697E+02 -0.28860972360E+03 -0.10129086135E+04  0.10734596585E+04  0.19200000000E+03 0.  0.
   -5000001    1    1    2    0    0 -0.78563391697E+02  0.28860972360E+03 -0.95006552474E+03  0.10143748224E+04  0.19200000000E+03 0.  0.
<mgrwt>
<rscale>  0 0.71118588E+03</rscale>
<asrwt>0</asrwt>
<pdfrwt beam="1">  1        1 0.28934343E+00 0.71118588E+03</pdfrwt>
<pdfrwt beam="2">  1       -1 0.89185972E-02 0.71118588E+03</pdfrwt>
<totfact> 0.27943359E+02</totfact>
</mgrwt>
</event>
<event>
 4    1  0.7145298E-006  0.6040716E+03  0.7818608E-02  0.9896995E-01
          1   -1    0    0  501    0  0.00000000000E+00  0.00000000000E+00  0.20801790477E+04  0.20801790478E+04  0.50400000000E-02 0.  1.
         -1   -1    0    0    0  501 -0.00000000000E+00 -0.00000000000E+00 -0.43854704778E+02  0.43854705067E+02  0.50400000000E-02 0. -1.
    5000001    1    1    2    0    0  0.17153903797E+03 -0.13294573377E+03  0.13177912787E+04  0.13492731613E+04  0.19200000000E+03 0.  0.
   -5000001    1    1    2    0    0 -0.17153903797E+03  0.13294573377E+03  0.71853306431E+03  0.77476059153E+03  0.19200000000E+03 0.  0.
<mgrwt>
<rscale>  0 0.60407165E+03</rscale>
<asrwt>0</asrwt>
<pdfrwt beam="1">  1        1 0.29716847E+00 0.60407165E+03</pdfrwt>
<pdfrwt beam="2">  1       -1 0.62649570E-02 0.60407165E+03</pdfrwt>
<totfact> 0.45166239E+02</totfact>
</mgrwt>
</event>
<event>
 4    1  0.7145298E-006  0.1114648E+04  0.7818608E-02  0.9191032E-01
         -1   -1    0    0    0  501 -0.00000000000E+00  0.00000000000E+00  0.25212116420E+03  0.25212116425E+03  0.50400000000E-02 0. -1.
          1   -1    0    0  501    0  0.00000000000E+00 -0.00000000000E+00 -0.12319865031E+04  0.12319865031E+04  0.50400000000E-02 0.  1.
    5000001    1    1    2    0    0 -0.39839114094E+03  0.25143317159E+03 -0.79300189222E+03  0.94215186781E+03  0.19200000000E+03 0.  0.
   -5000001    1    1    2    0    0  0.39839114094E+03 -0.25143317159E+03 -0.18686344667E+03  0.54195579954E+03  0.19200000000E+03 0.  0.
<mgrwt>
<rscale>  0 0.11146477E+04</rscale>
<asrwt>0</asrwt>
<pdfrwt beam="1">  1        1 0.17599807E+00 0.11146477E+04</pdfrwt>
<pdfrwt beam="2">  1       -1 0.36017310E-01 0.11146477E+04</pdfrwt>
<totfact> 0.86163835E+01</totfact>
</mgrwt>
</event>
<event>
 4    1  0.7145298E-006  0.6204140E+03  0.7818608E-02  0.9863936E-01
          1   -1    0    0  501    0  0.00000000000E+00  0.00000000000E+00  0.27758966339E+04  0.27758966339E+04  0.50400000000E-02 0.  1.
         -1   -1    0    0    0  501 -0.00000000000E+00 -0.00000000000E+00 -0.34665690286E+02  0.34665690652E+02  0.50400000000E-02 0. -1.
    5000001    1    1    2    0    0 -0.68409182147E+02 -0.20815976044E+03  0.88790417457E+03  0.93447746109E+03  0.19200000000E+03 0.  0.
   -5000001    1    1    2    0    0  0.68409182147E+02  0.20815976044E+03  0.18533267691E+04  0.18760848635E+04  0.19200000000E+03 0.  0.
<mgrwt>
<rscale>  0 0.62041397E+03</rscale>
<asrwt>0</asrwt>
<pdfrwt beam="1">  1        1 0.39655671E+00 0.62041397E+03</pdfrwt>
<pdfrwt beam="2">  1       -1 0.49522409E-02 0.62041397E+03</pdfrwt>
<totfact> 0.23853787E+02</totfact>
</mgrwt>
</event>
<event>
 4    1  0.7145298E-006  0.8645986E+03  0.7818608E-02  0.9470950E-01
         -1   -1    0    0    0  501 -0.00000000000E+00  0.00000000000E+00  0.48797184743E+02  0.48797185003E+02  0.50400000000E-02 0. -1.
          1   -1    0    0  501    0  0.00000000000E+00 -0.00000000000E+00 -0.38297845661E+04  0.38297845661E+04  0.50400000000E-02 0.  1.
    5000001    1    1    2    0    0  0.30424119074E+03  0.54303367776E+02 -0.84315987597E+03  0.91831047818E+03  0.19200000000E+03 0.  0.
   -5000001    1    1    2    0    0 -0.30424119074E+03 -0.54303367776E+02 -0.29378275054E+04  0.29602712729E+04  0.19200000000E+03 0.  0.
<mgrwt>
<rscale>  0 0.86459865E+03</rscale>
<asrwt>0</asrwt>
<pdfrwt beam="1">  1        1 0.54711189E+00 0.86459865E+03</pdfrwt>
<pdfrwt beam="2">  1       -1 0.69710288E-02 0.86459865E+03</pdfrwt>
<totfact> 0.26590658E+01</totfact>
</mgrwt>
</event>
<event>
 4    1  0.7145298E-006  0.4910712E+03  0.7818608E-02  0.1016136E+00
         -1   -1    0    0    0  501 -0.00000000000E+00  0.00000000000E+00  0.63757685150E+02  0.63757685349E+02  0.50400000000E-02 0. -1.
          1   -1    0    0  501    0  0.00000000000E+00 -0.00000000000E+00 -0.94557580298E+03  0.94557580299E+03  0.50400000000E-02 0.  1.
    5000001    1    1    2    0    0 -0.11231130222E+03  0.43018685419E+02 -0.24636095477E+03  0.33469711074E+03  0.19200000000E+03 0.  0.
   -5000001    1    1    2    0    0  0.11231130222E+03 -0.43018685419E+02 -0.63545716306E+03  0.67463637761E+03  0.19200000000E+03 0.  0.
<mgrwt>
<rscale>  0 0.49107117E+03</rscale>
<asrwt>0</asrwt>
<pdfrwt beam="1">  1        1 0.13508225E+00 0.49107117E+03</pdfrwt>
<pdfrwt beam="2">  1       -1 0.91082414E-02 0.49107117E+03</pdfrwt>
<totfact> 0.13997776E+03</totfact>
</mgrwt>
</event>
<event>
 4    1  0.7145298E-006  0.1322445E+04  0.7818608E-02  0.9011953E-01
          1   -1    0    0  501    0  0.00000000000E+00  0.00000000000E+00  0.18952570140E+04  0.18952570140E+04  0.50400000000E-02 0. -1.
         -1   -1    0    0    0  501 -0.00000000000E+00 -0.00000000000E+00 -0.23068915590E+03  0.23068915596E+03  0.50400000000E-02 0.  1.
    5000001    1    1    2    0    0 -0.14949117487E+03 -0.60959340984E+03  0.96088594735E+03  0.11636655621E+04  0.19200000000E+03 0.  0.
   -5000001    1    1    2    0    0  0.14949117487E+03  0.60959340984E+03  0.70368191075E+03  0.96228060782E+03  0.19200000000E+03 0.  0.
<mgrwt>
<rscale>  0 0.13224451E+04</rscale>
<asrwt>0</asrwt>
<pdfrwt beam="1">  1        1 0.27075101E+00 0.13224451E+04</pdfrwt>
<pdfrwt beam="2">  1       -1 0.32955592E-01 0.13224451E+04</pdfrwt>
<totfact> 0.36807014E+01</totfact>
</mgrwt>
</event>
<event>
 4    1  0.7145298E-006  0.4423970E+03  0.7818608E-02  0.1030014E+00
         -1   -1    0    0    0  501 -0.00000000000E+00  0.00000000000E+00  0.81915799005E+03  0.81915799007E+03  0.50400000000E-02 0. -1.
          1   -1    0    0  501    0  0.00000000000E+00 -0.00000000000E+00 -0.59730564707E+02  0.59730564920E+02  0.50400000000E-02 0.  1.
    5000001    1    1    2    0    0 -0.81666448941E+02 -0.43961702745E+02  0.26280929206E+03  0.33842985120E+03  0.19200000000E+03 0.  0.
   -5000001    1    1    2    0    0  0.81666448941E+02  0.43961702745E+02  0.49661813329E+03  0.54045870379E+03  0.19200000000E+03 0.  0.
<mgrwt>
<rscale>  0 0.44239697E+03</rscale>
<asrwt>0</asrwt>
<pdfrwt beam="1">  1        1 0.85329385E-02 0.44239697E+03</pdfrwt>
<pdfrwt beam="2">  1       -1 0.11702256E+00 0.44239697E+03</pdfrwt>
<totfact> 0.55904395E+02</totfact>
</mgrwt>
</event>
<event>
 4    1  0.7145298E-006  0.5148547E+03  0.7818608E-02  0.1009973E+00
          1   -1    0    0  501    0  0.00000000000E+00  0.00000000000E+00  0.13966150333E+04  0.13966150333E+04  0.50400000000E-02 0. -1.
         -1   -1    0    0    0  501 -0.00000000000E+00 -0.00000000000E+00 -0.47449613565E+02  0.47449613832E+02  0.50400000000E-02 0.  1.
    5000001    1    1    2    0    0  0.12918615168E+03  0.20816897033E+02  0.36373745037E+03  0.43161480256E+03  0.19200000000E+03 0.  0.
   -5000001    1    1    2    0    0 -0.12918615168E+03 -0.20816897033E+02  0.98542796938E+03  0.10124498446E+04  0.19200000000E+03 0.  0.
<mgrwt>
<rscale>  0 0.51485471E+03</rscale>
<asrwt>0</asrwt>
<pdfrwt beam="1">  1        1 0.19951640E+00 0.51485471E+03</pdfrwt>
<pdfrwt beam="2">  1       -1 0.67785174E-02 0.51485471E+03</pdfrwt>
<totfact> 0.10781726E+03</totfact>
</mgrwt>
</event>
<event>
 4    1  0.7145298E-006  0.1355577E+04  0.7818608E-02  0.8986617E-01
         -1   -1    0    0    0  501 -0.00000000000E+00  0.00000000000E+00  0.52119556606E+03  0.52119556609E+03  0.50400000000E-02 0. -1.
          1   -1    0    0  501    0  0.00000000000E+00 -0.00000000000E+00 -0.88143015036E+03  0.88143015037E+03  0.50400000000E-02 0.  1.
    5000001    1    1    2    0    0  0.50215864826E+02 -0.64639616140E+03 -0.22847096381E+03  0.71373147041E+03  0.19200000000E+03 0.  0.
   -5000001    1    1    2    0    0 -0.50215864826E+02  0.64639616140E+03 -0.13176362049E+03  0.68889424605E+03  0.19200000000E+03 0.  0.
<mgrwt>
<rscale>  0 0.13555773E+04</rscale>
<asrwt>0</asrwt>
<pdfrwt beam="1">  1        1 0.12591859E+00 0.13555773E+04</pdfrwt>
<pdfrwt beam="2">  1       -1 0.74456509E-01 0.13555773E+04</pdfrwt>
<totfact> 0.37929564E+01</totfact>
</mgrwt>
</event>
<event>
 4    1  0.7145298E-006  0.4787988E+03  0.7818608E-02  0.1019466E+00
         -1   -1    0    0    0  501 -0.00000000000E+00  0.00000000000E+00  0.25276791314E+02  0.25276791816E+02  0.50400000000E-02 0. -1.
          1   -1    0    0  501    0  0.00000000000E+00 -0.00000000000E+00 -0.22673790933E+04  0.22673790933E+04  0.50400000000E-02 0.  1.
    5000001    1    1    2    0    0 -0.10870986880E+02 -0.13411393711E+03 -0.88925634537E+03  0.91964426506E+03  0.19200000000E+03 0.  0.
   -5000001    1    1    2    0    0  0.10870986880E+02  0.13411393711E+03 -0.13528459566E+04  0.13730116201E+04  0.19200000000E+03 0.  0.
<mgrwt>
<rscale>  0 0.47879878E+03</rscale>
<asrwt>0</asrwt>
<pdfrwt beam="1">  1        1 0.32391117E+00 0.47879878E+03</pdfrwt>
<pdfrwt beam="2">  1       -1 0.36109717E-02 0.47879878E+03</pdfrwt>
<totfact> 0.80964648E+02</totfact>
</mgrwt>
</event>
<event>
 4    1  0.7145298E-006  0.7007190E+03  0.7818608E-02  0.9716003E-01
          1   -1    0    0  501    0  0.00000000000E+00  0.00000000000E+00  0.47023902145E+03  0.47023902148E+03  0.50400000000E-02 0.  1.
         -1   -1    0    0    0  501 -0.00000000000E+00 -0.00000000000E+00 -0.26104121092E+03  0.26104121097E+03  0.50400000000E-02 0. -1.
    5000001    1    1    2    0    0  0.20338922209E+03  0.17936991804E+03  0.22056233506E+03  0.39881384982E+03  0.19200000000E+03 0.  0.
   -5000001    1    1    2    0    0 -0.20338922209E+03 -0.17936991804E+03 -0.11364524530E+02  0.33246638263E+03  0.19200000000E+03 0.  0.
<mgrwt>
<rscale>  0 0.70071896E+03</rscale>
<asrwt>0</asrwt>
<pdfrwt beam="1">  1        1 0.67177002E-01 0.70071896E+03</pdfrwt>
<pdfrwt beam="2">  1       -1 0.37291602E-01 0.70071896E+03</pdfrwt>
<totfact> 0.37304815E+02</totfact>
</mgrwt>
</event>
<event>
 4    1  0.7145298E-006  0.5790977E+03  0.7818608E-02  0.9949746E-01
          1   -1    0    0  501    0  0.00000000000E+00  0.00000000000E+00  0.39274220130E+02  0.39274220453E+02  0.50400000000E-02 0.  1.
         -1   -1    0    0    0  501 -0.00000000000E+00 -0.00000000000E+00 -0.21346963434E+04  0.21346963434E+04  0.50400000000E-02 0. -1.
    5000001    1    1    2    0    0  0.41959390620E+02  0.14595333607E+03 -0.46720621532E+03  0.52745484584E+03  0.19200000000E+03 0.  0.
   -5000001    1    1    2    0    0 -0.41959390620E+02 -0.14595333607E+03 -0.16282159080E+04  0.16465157180E+04  0.19200000000E+03 0.  0.
<mgrwt>
<rscale>  0 0.57909769E+03</rscale>
<asrwt>0</asrwt>
<pdfrwt beam="1">  1        1 0.56106043E-02 0.57909769E+03</pdfrwt>
<pdfrwt beam="2">  1       -1 0.30495655E+00 0.57909769E+03</pdfrwt>
<totfact> 0.48952666E+01</totfact>
</mgrwt>
</event>
<event>
 4    1  0.7145298E-006  0.1032440E+04  0.7818608E-02  0.9273664E-01
         -1   -1    0    0    0  501 -0.00000000000E+00  0.00000000000E+00  0.34094025016E+03  0.34094025019E+03  0.50400000000E-02 0. -1.
          1   -1    0    0  501    0  0.00000000000E+00 -0.00000000000E+00 -0.78161196531E+03  0.78161196532E+03  0.50400000000E-02 0.  1.
    5000001    1    1    2    0    0  0.16011864750E+03 -0.45064983196E+03 -0.18779495657E+03  0.54850177579E+03  0.19200000000E+03 0.  0.
   -5000001    1    1    2    0    0 -0.16011864750E+03  0.45064983196E+03 -0.25287675858E+03  0.57405043973E+03  0.19200000000E+03 0.  0.
<mgrwt>
<rscale>  0 0.10324398E+04</rscale>
<asrwt>0</asrwt>
<pdfrwt beam="1">  1        1 0.11165885E+00 0.10324398E+04</pdfrwt>
<pdfrwt beam="2">  1       -1 0.48705750E-01 0.10324398E+04</pdfrwt>
<totfact> 0.10880333E+02</totfact>
</mgrwt>
</event>
<event>
 4    1  0.7145298E-006  0.5524196E+03  0.7818608E-02  0.1000935E+00
         -1   -1    0    0    0  501 -0.00000000000E+00  0.00000000000E+00  0.26341450285E+03  0.26341450290E+03  0.50400000000E-02 0. -1.
          1   -1    0    0  501    0  0.00000000000E+00 -0.00000000000E+00 -0.28962666526E+03  0.28962666531E+03  0.50400000000E-02 0.  1.
    5000001    1    1    2    0    0 -0.16191339954E+03  0.50910587137E+02 -0.11627554364E+03  0.28141044558E+03  0.19200000000E+03 0.  0.
   -5000001    1    1    2    0    0  0.16191339954E+03 -0.50910587137E+02  0.90063381231E+02  0.27163072262E+03  0.19200000000E+03 0.  0.
<mgrwt>
<rscale>  0 0.55241964E+03</rscale>
<asrwt>0</asrwt>
<pdfrwt beam="1">  1        1 0.41375238E-01 0.55241964E+03</pdfrwt>
<pdfrwt beam="2">  1       -1 0.37630643E-01 0.55241964E+03</pdfrwt>
<totfact> 0.69323005E+02</totfact>
</mgrwt>
</event>
<event>
 4    1  0.7145298E-006  0.7293919E+03  0.7818608E-02  0.9668248E-01
          1   -1    0    0  501    0  0.00000000000E+00  0.00000000000E+00  0.74503765212E+03  0.74503765213E+03  0.50400000000E-02 0.  1.
         -1   -1    0    0    0  501 -0.00000000000E+00 -0.00000000000E+00 -0.17851866713E+03  0.17851866721E+03  0.50400000000E-02 0. -1.
    5000001    1    1    2    0    0  0.20788380949E+03 -0.83283701372E+02  0.55479166877E+03  0.62833880105E+03  0.19200000000E+03 0.  0.
   -5000001    1    1    2    0    0 -0.20788380949E+03  0.83283701372E+02  0.11727316211E+02  0.29521751829E+03  0.19200000000E+03 0.  0.
<mgrwt>
<rscale>  0 0.72939188E+03</rscale>
<asrwt>0</asrwt>
<pdfrwt beam="1">  1        1 0.10643395E+00 0.72939188E+03</pdfrwt>
<pdfrwt beam="2">  1       -1 0.25502666E-01 0.72939188E+03</pdfrwt>
<totfact> 0.37875360E+02</totfact>
</mgrwt>
</event>
<event>
 4    1  0.7145298E-006  0.5356691E+03  0.7818608E-02  0.1004866E+00
         -1   -1    0    0    0  501 -0.00000000000E+00  0.00000000000E+00  0.31396658666E+02  0.31396659071E+02  0.50400000000E-02 0. -1.
          1   -1    0    0  501    0  0.00000000000E+00 -0.00000000000E+00 -0.22848081005E+04  0.22848081005E+04  0.50400000000E-02 0.  1.
    5000001    1    1    2    0    0 -0.59825146096E+02  0.15462016347E+03 -0.75512548435E+03  0.79659584493E+03  0.19200000000E+03 0.  0.
   -5000001    1    1    2    0    0  0.59825146096E+02 -0.15462016347E+03 -0.14982859575E+04  0.15196089147E+04  0.19200000000E+03 0.  0.
<mgrwt>
<rscale>  0 0.53566908E+03</rscale>
<asrwt>0</asrwt>
<pdfrwt beam="1">  1        1 0.32640105E+00 0.53566908E+03</pdfrwt>
<pdfrwt beam="2">  1       -1 0.44852384E-02 0.53566908E+03</pdfrwt>
<totfact> 0.56650285E+02</totfact>
</mgrwt>
</event>
<event>
 4    1  0.7145298E-006  0.5287160E+03  0.7818608E-02  0.1006544E+00
          1   -1    0    0  501    0  0.00000000000E+00  0.00000000000E+00  0.13350023180E+03  0.13350023189E+03  0.50400000000E-02 0. -1.
         -1   -1    0    0    0  501 -0.00000000000E+00 -0.00000000000E+00 -0.52348331517E+03  0.52348331520E+03  0.50400000000E-02 0.  1.
    5000001    1    1    2    0    0 -0.16334249681E+02  0.17020953921E+03 -0.27141963925E+03  0.37385921886E+03  0.19200000000E+03 0.  0.
   -5000001    1    1    2    0    0  0.16334249681E+02 -0.17020953921E+03 -0.11856344412E+03  0.28312432823E+03  0.19200000000E+03 0.  0.
<mgrwt>
<rscale>  0 0.52871597E+03</rscale>
<asrwt>0</asrwt>
<pdfrwt beam="1">  1        1 0.19071462E-01 0.52871597E+03</pdfrwt>
<pdfrwt beam="2">  1       -1 0.74783330E-01 0.52871597E+03</pdfrwt>
<totfact> 0.50860293E+02</totfact>
</mgrwt>
</event>
<event>
 4    1  0.7145298E-006  0.5730437E+03  0.7818608E-02  0.9962966E-01
         -1   -1    0    0    0  501 -0.00000000000E+00  0.00000000000E+00  0.10702104163E+03  0.10702104175E+03  0.50400000000E-02 0. -1.
          1   -1    0    0  501    0  0.00000000000E+00 -0.00000000000E+00 -0.76708999041E+03  0.76708999043E+03  0.50400000000E-02 0.  1.
    5000001    1    1    2    0    0 -0.37393906404E+02  0.20936135538E+03 -0.33085378855E+03  0.43767420619E+03  0.19200000000E+03 0.  0.
   -5000001    1    1    2    0    0  0.37393906404E+02 -0.20936135538E+03 -0.32921516023E+03  0.43643682599E+03  0.19200000000E+03 0.  0.
<mgrwt>
<rscale>  0 0.57304370E+03</rscale>
<asrwt>0</asrwt>
<pdfrwt beam="1">  1        1 0.10958428E+00 0.57304370E+03</pdfrwt>
<pdfrwt beam="2">  1       -1 0.15288721E-01 0.57304370E+03</pdfrwt>
<totfact> 0.85240754E+02</totfact>
</mgrwt>
</event>
<event>
 4    1  0.7145298E-006  0.5783684E+03  0.7818608E-02  0.9951330E-01
          1   -1    0    0  501    0  0.00000000000E+00  0.00000000000E+00  0.69258513171E+03  0.69258513172E+03  0.50400000000E-02 0. -1.
         -1   -1    0    0    0  501 -0.00000000000E+00 -0.00000000000E+00 -0.12074690271E+03  0.12074690282E+03  0.50400000000E-02 0.  1.
    5000001    1    1    2    0    0 -0.21052925668E+03 -0.41032039705E+02  0.24721999254E+03  0.37945740329E+03  0.19200000000E+03 0.  0.
   -5000001    1    1    2    0    0  0.21052925668E+03  0.41032039705E+02  0.32461823645E+03  0.43387463125E+03  0.19200000000E+03 0.  0.
<mgrwt>
<rscale>  0 0.57836843E+03</rscale>
<asrwt>0</asrwt>
<pdfrwt beam="1">  1        1 0.98940729E-01 0.57836843E+03</pdfrwt>
<pdfrwt beam="2">  1       -1 0.17249558E-01 0.57836843E+03</pdfrwt>
<totfact> 0.81485252E+02</totfact>
</mgrwt>
</event>
<event>
 4    1  0.7145298E-006  0.4796733E+03  0.7818608E-02  0.1019225E+00
          1   -1    0    0  501    0  0.00000000000E+00  0.00000000000E+00  0.17896052092E+04  0.17896052092E+04  0.50400000000E-02 0.  1.
         -1   -1    0    0    0  501 -0.00000000000E+00 -0.00000000000E+00 -0.32142068719E+02  0.32142069114E+02  0.50400000000E-02 0. -1.
    5000001    1    1    2    0    0 -0.76144128655E+02  0.15478609466E+02  0.41951479088E+03  0.46786127799E+03  0.19200000000E+03 0.  0.
   -5000001    1    1    2    0    0  0.76144128655E+02 -0.15478609466E+02  0.13379483496E+04  0.13538860003E+04  0.19200000000E+03 0.  0.
<mgrwt>
<rscale>  0 0.47967328E+03</rscale>
<asrwt>0</asrwt>
<pdfrwt beam="1">  1        1 0.25565785E+00 0.47967328E+03</pdfrwt>
<pdfrwt beam="2">  1       -1 0.45917248E-02 0.47967328E+03</pdfrwt>
<totfact> 0.11067781E+03</totfact>
</mgrwt>
</event>
<event>
 4    1  0.7145298E-006  0.5530483E+03  0.7818608E-02  0.1000791E+00
         -1   -1    0    0    0  501 -0.00000000000E+00  0.00000000000E+00  0.53165345525E+02  0.53165345764E+02  0.50400000000E-02 0. -1.
          1   -1    0    0  501    0  0.00000000000E+00 -0.00000000000E+00 -0.14382603028E+04  0.14382603028E+04  0.50400000000E-02 0.  1.
    5000001    1    1    2    0    0  0.18761112162E+03 -0.39251149257E+02 -0.54825264889E+03  0.61170544602E+03  0.19200000000E+03 0.  0.
   -5000001    1    1    2    0    0 -0.18761112162E+03  0.39251149257E+02 -0.83684230834E+03  0.87972020251E+03  0.19200000000E+03 0.  0.
<mgrwt>
<rscale>  0 0.55304830E+03</rscale>
<asrwt>0</asrwt>
<pdfrwt beam="1">  1        1 0.20546573E+00 0.55304830E+03</pdfrwt>
<pdfrwt beam="2">  1       -1 0.75950503E-02 0.55304830E+03</pdfrwt>
<totfact> 0.84832062E+02</totfact>
</mgrwt>
</event>
<event>
 4    1  0.7145298E-006  0.6121517E+03  0.7818608E-02  0.9880511E-01
          1   -1    0    0  501    0  0.00000000000E+00  0.00000000000E+00  0.74690733518E+03  0.74690733520E+03  0.50400000000E-02 0.  1.
         -1   -1    0    0    0  501 -0.00000000000E+00 -0.00000000000E+00 -0.12542711418E+03  0.12542711428E+03  0.50400000000E-02 0. -1.
    5000001    1    1    2    0    0  0.18074284562E+03  0.13299646546E+03  0.42529687009E+03  0.51778128951E+03  0.19200000000E+03 0.  0.
   -5000001    1    1    2    0    0 -0.18074284562E+03 -0.13299646546E+03  0.19618335091E+03  0.35455315997E+03  0.19200000000E+03 0.  0.
<mgrwt>
<rscale>  0 0.61215172E+03</rscale>
<asrwt>0</asrwt>
<pdfrwt beam="1">  1        1 0.10670105E+00 0.61215172E+03</pdfrwt>
<pdfrwt beam="2">  1       -1 0.17918159E-01 0.61215172E+03</pdfrwt>
<totfact> 0.68417039E+02</totfact>
</mgrwt>
</event>
<event>
 4    1  0.7145298E-006  0.1021854E+04  0.7818608E-02  0.9284895E-01
         -1   -1    0    0    0  501 -0.00000000000E+00  0.00000000000E+00  0.45302460304E+03  0.45302460307E+03  0.50400000000E-02 0.  1.
          1   -1    0    0  501    0  0.00000000000E+00 -0.00000000000E+00 -0.57623039398E+03  0.57623039401E+03  0.50400000000E-02 0. -1.
    5000001    1    1    2    0    0 -0.44421497839E+03 -0.15842898473E+03 -0.19396489336E+02  0.50957522902E+03  0.19200000000E+03 0.  0.
   -5000001    1    1    2    0    0  0.44421497839E+03  0.15842898473E+03 -0.10380930161E+03  0.51967976806E+03  0.19200000000E+03 0.  0.
<mgrwt>
<rscale>  0 0.10218543E+04</rscale>
<asrwt>0</asrwt>
<pdfrwt beam="1">  1        1 0.82318627E-01 0.10218543E+04</pdfrwt>
<pdfrwt beam="2">  1       -1 0.64717801E-01 0.10218543E+04</pdfrwt>
<totfact> 0.97815854E+01</totfact>
</mgrwt>
</event>
<event>
 4    1  0.7145298E-006  0.6161500E+03  0.7818608E-02  0.9872455E-01
          1   -1    0    0  501    0  0.00000000000E+00  0.00000000000E+00  0.29032240116E+03  0.29032240120E+03  0.50400000000E-02 0. -1.
         -1   -1    0    0    0  501 -0.00000000000E+00 -0.00000000000E+00 -0.32691315885E+03  0.32691315889E+03  0.50400000000E-02 0.  1.
    5000001    1    1    2    0    0  0.11923368002E+02 -0.20081498577E+03 -0.15110870057E+03  0.31649117618E+03  0.19200000000E+03 0.  0.
   -5000001    1    1    2    0    0 -0.11923368002E+02  0.20081498577E+03  0.11451794288E+03  0.30074438391E+03  0.19200000000E+03 0.  0.
<mgrwt>
<rscale>  0 0.61615002E+03</rscale>
<asrwt>0</asrwt>
<pdfrwt beam="1">  1        1 0.41474629E-01 0.61615002E+03</pdfrwt>
<pdfrwt beam="2">  1       -1 0.46701879E-01 0.61615002E+03</pdfrwt>
<totfact> 0.46537855E+02</totfact>
</mgrwt>
</event>
<event>
 4    1  0.7145298E-006  0.6703861E+03  0.7818608E-02  0.9769261E-01
         -1   -1    0    0    0  501 -0.00000000000E+00  0.00000000000E+00  0.59044852124E+03  0.59044852126E+03  0.50400000000E-02 0. -1.
          1   -1    0    0  501    0  0.00000000000E+00 -0.00000000000E+00 -0.19028650544E+03  0.19028650551E+03  0.50400000000E-02 0.  1.
    5000001    1    1    2    0    0 -0.13600812657E+03 -0.19814668608E+03  0.45008849938E+02  0.31088601814E+03  0.19200000000E+03 0.  0.
   -5000001    1    1    2    0    0  0.13600812657E+03  0.19814668608E+03  0.35515316585E+03  0.46984900863E+03  0.19200000000E+03 0.  0.
<mgrwt>
<rscale>  0 0.67038611E+03</rscale>
<asrwt>0</asrwt>
<pdfrwt beam="1">  1        1 0.27183786E-01 0.67038611E+03</pdfrwt>
<pdfrwt beam="2">  1       -1 0.84349789E-01 0.67038611E+03</pdfrwt>
<totfact> 0.24695750E+02</totfact>
</mgrwt>
</event>
<event>
 4    1  0.7145298E-006  0.4603442E+03  0.7818608E-02  0.1024681E+00
          1   -1    0    0  501    0  0.00000000000E+00  0.00000000000E+00  0.22537956683E+04  0.22537956683E+04  0.50400000000E-02 0.  1.
         -1   -1    0    0    0  501 -0.00000000000E+00 -0.00000000000E+00 -0.23506655050E+02  0.23506655590E+02  0.50400000000E-02 0. -1.
    5000001    1    1    2    0    0 -0.10765560111E+03  0.63695348678E+02  0.12222060480E+04  0.12435024928E+04  0.19200000000E+03 0.  0.
   -5000001    1    1    2    0    0  0.10765560111E+03 -0.63695348678E+02  0.10080829652E+04  0.10337998311E+04  0.19200000000E+03 0.  0.
<mgrwt>
<rscale>  0 0.46034421E+03</rscale>
<asrwt>0</asrwt>
<pdfrwt beam="1">  1        1 0.32197076E+00 0.46034421E+03</pdfrwt>
<pdfrwt beam="2">  1       -1 0.33580942E-02 0.46034421E+03</pdfrwt>
<totfact> 0.92181853E+02</totfact>
</mgrwt>
</event>
<event>
 4    1  0.7145298E-006  0.5578376E+03  0.7818608E-02  0.9996959E-01
         -1   -1    0    0    0  501 -0.00000000000E+00  0.00000000000E+00  0.13417918305E+03  0.13417918314E+03  0.50400000000E-02 0.  1.
          1   -1    0    0  501    0  0.00000000000E+00 -0.00000000000E+00 -0.57978952880E+03  0.57978952882E+03  0.50400000000E-02 0. -1.
    5000001    1    1    2    0    0  0.11683815449E+03  0.15216542023E+02 -0.12307674696E+02  0.22560624183E+03  0.19200000000E+03 0.  0.
   -5000001    1    1    2    0    0 -0.11683815449E+03 -0.15216542023E+02 -0.43330267105E+03  0.48836247013E+03  0.19200000000E+03 0.  0.
<mgrwt>
<rscale>  0 0.55783756E+03</rscale>
<asrwt>0</asrwt>
<pdfrwt beam="1">  1        1 0.82827074E-01 0.55783756E+03</pdfrwt>
<pdfrwt beam="2">  1       -1 0.19168455E-01 0.55783756E+03</pdfrwt>
<totfact> 0.88226374E+02</totfact>
</mgrwt>
</event>
<event>
 4    1  0.7145298E-006  0.5678094E+03  0.7818608E-02  0.9974538E-01
          1   -1    0    0  501    0  0.00000000000E+00  0.00000000000E+00  0.69489371978E+03  0.69489371979E+03  0.50400000000E-02 0.  1.
         -1   -1    0    0    0  501 -0.00000000000E+00 -0.00000000000E+00 -0.11599164351E+03  0.11599164362E+03  0.50400000000E-02 0. -1.
    5000001    1    1    2    0    0 -0.31385241564E+02 -0.19774839662E+03  0.20319126360E+03  0.34386065689E+03  0.19200000000E+03 0.  0.
   -5000001    1    1    2    0    0  0.31385241564E+02  0.19774839662E+03  0.37571081266E+03  0.46702470652E+03  0.19200000000E+03 0.  0.
<mgrwt>
<rscale>  0 0.56780935E+03</rscale>
<asrwt>0</asrwt>
<pdfrwt beam="1">  1        1 0.99270528E-01 0.56780935E+03</pdfrwt>
<pdfrwt beam="2">  1       -1 0.16570235E-01 0.56780935E+03</pdfrwt>
<totfact> 0.86609448E+02</totfact>
</mgrwt>
</event>
<event>
 4    1  0.7145298E-006  0.4894946E+03  0.7818608E-02  0.1016558E+00
         -1   -1    0    0    0  501 -0.00000000000E+00  0.00000000000E+00  0.16863726497E+03  0.16863726505E+03  0.50400000000E-02 0. -1.
          1   -1    0    0  501    0  0.00000000000E+00 -0.00000000000E+00 -0.35520756151E+03  0.35520756154E+03  0.50400000000E-02 0.  1.
    5000001    1    1    2    0    0 -0.15011548318E+03 -0.11645378567E+02 -0.72784702608E+02  0.25462106367E+03  0.19200000000E+03 0.  0.
   -5000001    1    1    2    0    0  0.15011548318E+03  0.11645378567E+02 -0.11378559393E+03  0.26922376291E+03  0.19200000000E+03 0.  0.
<mgrwt>
<rscale>  0 0.48949456E+03</rscale>
<asrwt>0</asrwt>
<pdfrwt beam="1">  1        1 0.50743937E-01 0.48949456E+03</pdfrwt>
<pdfrwt beam="2">  1       -1 0.24091038E-01 0.48949456E+03</pdfrwt>
<totfact> 0.11554439E+03</totfact>
</mgrwt>
</event>
<event>
 4    1  0.7145298E-006  0.4114129E+03  0.7818608E-02  0.1039898E+00
          1   -1    0    0  501    0  0.00000000000E+00  0.00000000000E+00  0.13319515318E+04  0.13319515318E+04  0.50400000000E-02 0.  1.
         -1   -1    0    0    0  501 -0.00000000000E+00 -0.00000000000E+00 -0.31769287899E+02  0.31769288299E+02  0.50400000000E-02 0. -1.
    5000001    1    1    2    0    0  0.17827118538E+01 -0.65440896172E+02  0.53693012383E+03  0.57397181711E+03  0.19200000000E+03 0.  0.
   -5000001    1    1    2    0    0 -0.17827118538E+01  0.65440896172E+02  0.76325212007E+03  0.78974900300E+03  0.19200000000E+03 0.  0.
<mgrwt>
<rscale>  0 0.41141294E+03</rscale>
<asrwt>0</asrwt>
<pdfrwt beam="1">  1        1 0.19027880E+00 0.41141294E+03</pdfrwt>
<pdfrwt beam="2">  1       -1 0.45384695E-02 0.41141294E+03</pdfrwt>
<totfact> 0.21975193E+03</totfact>
</mgrwt>
</event>
<event>
 4    1  0.7145298E-006  0.4124404E+03  0.7818608E-02  0.1039555E+00
         -1   -1    0    0    0  501 -0.00000000000E+00  0.00000000000E+00  0.42440465291E+02  0.42440465590E+02  0.50400000000E-02 0. -1.
          1   -1    0    0  501    0  0.00000000000E+00 -0.00000000000E+00 -0.10020336641E+04  0.10020336641E+04  0.50400000000E-02 0.  1.
    5000001    1    1    2    0    0 -0.22632956719E+02  0.70314767179E+02 -0.44341791344E+03  0.48881475343E+03  0.19200000000E+03 0.  0.
   -5000001    1    1    2    0    0  0.22632956719E+02 -0.70314767179E+02 -0.51617528539E+03  0.55565937629E+03  0.19200000000E+03 0.  0.
<mgrwt>
<rscale>  0 0.41244042E+03</rscale>
<asrwt>0</asrwt>
<pdfrwt beam="1">  1        1 0.14314765E+00 0.41244042E+03</pdfrwt>
<pdfrwt beam="2">  1       -1 0.60629243E-02 0.41244042E+03</pdfrwt>
<totfact> 0.23838467E+03</totfact>
</mgrwt>
</event>
<event>
 4    1  0.7145298E-006  0.6562933E+03  0.7818608E-02  0.9795041E-01
         -1   -1    0    0    0  501 -0.00000000000E+00  0.00000000000E+00  0.47652633777E+03  0.47652633780E+03  0.50400000000E-02 0. -1.
          1   -1    0    0  501    0  0.00000000000E+00 -0.00000000000E+00 -0.22596911150E+03  0.22596911156E+03  0.50400000000E-02 0.  1.
    5000001    1    1    2    0    0 -0.25664930592E+03  0.10362760816E+02  0.19974620603E+03  0.37780788751E+03  0.19200000000E+03 0.  0.
   -5000001    1    1    2    0    0  0.25664930592E+03 -0.10362760816E+02  0.50811020236E+02  0.32468756185E+03  0.19200000000E+03 0.  0.
<mgrwt>
<rscale>  0 0.65629333E+03</rscale>
<asrwt>0</asrwt>
<pdfrwt beam="1">  1        1 0.32281302E-01 0.65629333E+03</pdfrwt>
<pdfrwt beam="2">  1       -1 0.68075191E-01 0.65629333E+03</pdfrwt>
<totfact> 0.30923830E+02</totfact>
</mgrwt>
</event>
<event>
 4    1  0.7145298E-006  0.5368935E+03  0.7818608E-02  0.1004574E+00
         -1   -1    0    0    0  501 -0.00000000000E+00  0.00000000000E+00  0.28164061840E+03  0.28164061844E+03  0.50400000000E-02 0. -1.
          1   -1    0    0  501    0  0.00000000000E+00 -0.00000000000E+00 -0.25587097929E+03  0.25587097934E+03  0.50400000000E-02 0.  1.
    5000001    1    1    2    0    0  0.91837276445E+02 -0.15787129469E+03 -0.30085797333E+02  0.26669568094E+03  0.19200000000E+03 0.  0.
   -5000001    1    1    2    0    0 -0.91837276445E+02  0.15787129469E+03  0.55855436445E+02  0.27081591684E+03  0.19200000000E+03 0.  0.
<mgrwt>
<rscale>  0 0.53689351E+03</rscale>
<asrwt>0</asrwt>
<pdfrwt beam="1">  1        1 0.36552997E-01 0.53689351E+03</pdfrwt>
<pdfrwt beam="2">  1       -1 0.40234374E-01 0.53689351E+03</pdfrwt>
<totfact> 0.72075079E+02</totfact>
</mgrwt>
</event>
<event>
 4    1  0.7145298E-006  0.9413585E+03  0.7818608E-02  0.9375309E-01
          1   -1    0    0  501    0  0.00000000000E+00  0.00000000000E+00  0.17684912291E+04  0.17684912291E+04  0.50400000000E-02 0. -1.
         -1   -1    0    0    0  501 -0.00000000000E+00 -0.00000000000E+00 -0.12527004682E+03  0.12527004692E+03  0.50400000000E-02 0.  1.
    5000001    1    1    2    0    0 -0.15608804786E+03  0.12028348627E+03  0.15898799748E+04  0.16135098172E+04  0.19200000000E+03 0.  0.
   -5000001    1    1    2    0    0  0.15608804786E+03 -0.12028348627E+03  0.53341207411E+02  0.28025145881E+03  0.19200000000E+03 0.  0.
<mgrwt>
<rscale>  0 0.94135855E+03</rscale>
<asrwt>0</asrwt>
<pdfrwt beam="1">  1        1 0.25264159E+00 0.94135855E+03</pdfrwt>
<pdfrwt beam="2">  1       -1 0.17895722E-01 0.94135855E+03</pdfrwt>
<totfact> 0.12945775E+02</totfact>
</mgrwt>
</event>
<event>
 4    1  0.7145298E-006  0.5866559E+03  0.7818608E-02  0.9933484E-01
          1   -1    0    0  501    0  0.00000000000E+00  0.00000000000E+00  0.27421425511E+03  0.27421425515E+03  0.50400000000E-02 0. -1.
         -1   -1    0    0    0  501 -0.00000000000E+00 -0.00000000000E+00 -0.31377392558E+03  0.31377392562E+03  0.50400000000E-02 0.  1.
    5000001    1    1    2    0    0  0.18667813428E+03 -0.11968874947E+03 -0.17997953087E+02  0.29387420589E+03  0.19200000000E+03 0.  0.
   -5000001    1    1    2    0    0 -0.18667813428E+03  0.11968874947E+03 -0.21561717386E+02  0.29411397489E+03  0.19200000000E+03 0.  0.
<mgrwt>
<rscale>  0 0.58665589E+03</rscale>
<asrwt>0</asrwt>
<pdfrwt beam="1">  1        1 0.39173465E-01 0.58665589E+03</pdfrwt>
<pdfrwt beam="2">  1       -1 0.44824846E-01 0.58665589E+03</pdfrwt>
<totfact> 0.54080797E+02</totfact>
</mgrwt>
</event>
<event>
 4    1  0.7145298E-006  0.5291655E+03  0.7818608E-02  0.1006435E+00
          1   -1    0    0  501    0  0.00000000000E+00  0.00000000000E+00  0.12834630572E+03  0.12834630582E+03  0.50400000000E-02 0.  1.
         -1   -1    0    0    0  501 -0.00000000000E+00 -0.00000000000E+00 -0.54543079575E+03  0.54543079577E+03  0.50400000000E-02 0. -1.
    5000001    1    1    2    0    0 -0.13119672671E+02  0.17586759643E+03 -0.15105399681E+03  0.30130192040E+03  0.19200000000E+03 0.  0.
   -5000001    1    1    2    0    0  0.13119672671E+02 -0.17586759643E+03 -0.26603049322E+03  0.37247518120E+03  0.19200000000E+03 0.  0.
<mgrwt>
<rscale>  0 0.52916549E+03</rscale>
<asrwt>0</asrwt>
<pdfrwt beam="1">  1        1 0.18335187E-01 0.52916549E+03</pdfrwt>
<pdfrwt beam="2">  1       -1 0.77918684E-01 0.52916549E+03</pdfrwt>
<totfact> 0.49188474E+02</totfact>
</mgrwt>
</event>
<event>
 4    1  0.7145298E-006  0.5984829E+03  0.7818608E-02  0.9908558E-01
          1   -1    0    0  501    0  0.00000000000E+00  0.00000000000E+00  0.68880281107E+03  0.68880281109E+03  0.50400000000E-02 0.  1.
         -1   -1    0    0    0  501 -0.00000000000E+00 -0.00000000000E+00 -0.13000158091E+03  0.13000158101E+03  0.50400000000E-02 0. -1.
    5000001    1    1    2    0    0  0.72315003085E+02 -0.19199096441E+03  0.42020182919E+03  0.50549339000E+03  0.19200000000E+03 0.  0.
   -5000001    1    1    2    0    0 -0.72315003085E+02  0.19199096441E+03  0.13859940097E+03  0.31331100209E+03  0.19200000000E+03 0.  0.
<mgrwt>
<rscale>  0 0.59848293E+03</rscale>
<asrwt>0</asrwt>
<pdfrwt beam="1">  1        1 0.98400402E-01 0.59848293E+03</pdfrwt>
<pdfrwt beam="2">  1       -1 0.18571654E-01 0.59848293E+03</pdfrwt>
<totfact> 0.72724842E+02</totfact>
</mgrwt>
</event>
<event>
 4    1  0.7145298E-006  0.5213605E+03  0.7818608E-02  0.1008349E+00
          1   -1    0    0  501    0  0.00000000000E+00  0.00000000000E+00  0.61395800142E+02  0.61395800348E+02  0.50400000000E-02 0.  1.
         -1   -1    0    0    0  501 -0.00000000000E+00 -0.00000000000E+00 -0.11068213401E+04  0.11068213401E+04  0.50400000000E-02 0. -1.
    5000001    1    1    2    0    0 -0.60895245552E+02  0.15545833050E+03 -0.39566913728E+03  0.47041852605E+03  0.19200000000E+03 0.  0.
   -5000001    1    1    2    0    0  0.60895245552E+02 -0.15545833050E+03 -0.64975640264E+03  0.69779861438E+03  0.19200000000E+03 0.  0.
<mgrwt>
<rscale>  0 0.52136046E+03</rscale>
<asrwt>0</asrwt>
<pdfrwt beam="1">  1        1 0.87708293E-02 0.52136046E+03</pdfrwt>
<pdfrwt beam="2">  1       -1 0.15811732E+00 0.52136046E+03</pdfrwt>
<totfact> 0.24928284E+02</totfact>
</mgrwt>
</event>
<event>
 4    1  0.7145298E-006  0.6905646E+03  0.7818608E-02  0.9733505E-01
          1   -1    0    0  501    0  0.00000000000E+00  0.00000000000E+00  0.74476461177E+03  0.74476461179E+03  0.50400000000E-02 0. -1.
         -1   -1    0    0    0  501 -0.00000000000E+00 -0.00000000000E+00 -0.16007723820E+03  0.16007723828E+03  0.50400000000E-02 0.  1.
    5000001    1    1    2    0    0 -0.60380119313E+02 -0.27973936684E+03  0.26436379370E+03  0.43434098078E+03  0.19200000000E+03 0.  0.
   -5000001    1    1    2    0    0  0.60380119313E+02  0.27973936684E+03  0.32032357988E+03  0.47050086928E+03  0.19200000000E+03 0.  0.
<mgrwt>
<rscale>  0 0.69056459E+03</rscale>
<asrwt>0</asrwt>
<pdfrwt beam="1">  1        1 0.10639495E+00 0.69056459E+03</pdfrwt>
<pdfrwt beam="2">  1       -1 0.22868176E-01 0.69056459E+03</pdfrwt>
<totfact> 0.45666635E+02</totfact>
</mgrwt>
</event>
<event>
 4    1  0.7145298E-006  0.5050548E+03  0.7818608E-02  0.1012468E+00
          1   -1    0    0  501    0  0.00000000000E+00  0.00000000000E+00  0.48326957879E+04  0.48326957879E+04  0.50400000000E-02 0.  1.
         -1   -1    0    0    0  501 -0.00000000000E+00 -0.00000000000E+00 -0.13195550479E+02  0.13195551441E+02  0.50400000000E-02 0. -1.
    5000001    1    1    2    0    0  0.12245109105E+03  0.10772385675E+03  0.22415306742E+04  0.22556423613E+04  0.19200000000E+03 0.  0.
   -5000001    1    1    2    0    0 -0.12245109105E+03 -0.10772385675E+03  0.25779695633E+04  0.25902489780E+04  0.19200000000E+03 0.  0.
<mgrwt>
<rscale>  0 0.50505478E+03</rscale>
<asrwt>0</asrwt>
<pdfrwt beam="1">  1        1 0.69038709E+00 0.50505478E+03</pdfrwt>
<pdfrwt beam="2">  1       -1 0.18850733E-02 0.50505478E+03</pdfrwt>
<totfact> 0.31658468E+01</totfact>
</mgrwt>
</event>
<event>
 4    1  0.7145298E-006  0.5239286E+03  0.7818608E-02  0.1007715E+00
         -1   -1    0    0    0  501 -0.00000000000E+00  0.00000000000E+00  0.45209507402E+03  0.45209507404E+03  0.50400000000E-02 0. -1.
          1   -1    0    0  501    0  0.00000000000E+00 -0.00000000000E+00 -0.15179394187E+03  0.15179394195E+03  0.50400000000E-02 0.  1.
    5000001    1    1    2    0    0  0.53478353685E+02  0.16859513515E+03  0.17532514419E+03  0.31446328895E+03  0.19200000000E+03 0.  0.
   -5000001    1    1    2    0    0 -0.53478353685E+02 -0.16859513515E+03  0.12497598796E+03  0.28942572705E+03  0.19200000000E+03 0.  0.
<mgrwt>
<rscale>  0 0.52392860E+03</rscale>
<asrwt>0</asrwt>
<pdfrwt beam="1">  1        1 0.21684849E-01 0.52392860E+03</pdfrwt>
<pdfrwt beam="2">  1       -1 0.64585011E-01 0.52392860E+03</pdfrwt>
<totfact> 0.57849184E+02</totfact>
</mgrwt>
</event>
<event>
 4    1  0.7145298E-006  0.6528296E+03  0.7818608E-02  0.9801484E-01
         -1   -1    0    0    0  501 -0.00000000000E+00  0.00000000000E+00  0.22763277841E+04  0.22763277841E+04  0.50400000000E-02 0. -1.
          1   -1    0    0  501    0  0.00000000000E+00 -0.00000000000E+00 -0.46806368381E+02  0.46806368652E+02  0.50400000000E-02 0.  1.
    5000001    1    1    2    0    0  0.55895297068E+02  0.17757639018E+03  0.17807440390E+04  0.18007140225E+04  0.19200000000E+03 0.  0.
   -5000001    1    1    2    0    0 -0.55895297068E+02 -0.17757639018E+03  0.44877737670E+03  0.52242013019E+03  0.19200000000E+03 0.  0.
<mgrwt>
<rscale>  0 0.65282965E+03</rscale>
<asrwt>0</asrwt>
<pdfrwt beam="1">  1        1 0.66866225E-02 0.65282965E+03</pdfrwt>
<pdfrwt beam="2">  1       -1 0.32518976E+00 0.65282965E+03</pdfrwt>
<totfact> 0.28173380E+01</totfact>
</mgrwt>
</event>
<event>
 4    1  0.7145298E-006  0.7853198E+03  0.7818608E-02  0.9581513E-01
          1   -1    0    0  501    0  0.00000000000E+00  0.00000000000E+00  0.18843308806E+04  0.18843308806E+04  0.50400000000E-02 0.  1.
         -1   -1    0    0    0  501 -0.00000000000E+00 -0.00000000000E+00 -0.81823106697E+02  0.81823106852E+02  0.50400000000E-02 0. -1.
    5000001    1    1    2    0    0  0.10366201726E+03 -0.25398960693E+03  0.38778731919E+03  0.51234708858E+03  0.19200000000E+03 0.  0.
   -5000001    1    1    2    0    0 -0.10366201726E+03  0.25398960693E+03  0.14147204547E+04  0.14538068989E+04  0.19200000000E+03 0.  0.
<mgrwt>
<rscale>  0 0.78531982E+03</rscale>
<asrwt>0</asrwt>
<pdfrwt beam="1">  1        1 0.26919014E+00 0.78531982E+03</pdfrwt>
<pdfrwt beam="2">  1       -1 0.11689015E-01 0.78531982E+03</pdfrwt>
<totfact> 0.22143708E+02</totfact>
</mgrwt>
</event>
<event>
 4    1  0.7145298E-006  0.4578168E+03  0.7818608E-02  0.1025416E+00
         -1   -1    0    0    0  501 -0.00000000000E+00  0.00000000000E+00  0.54220952102E+02  0.54220952336E+02  0.50400000000E-02 0.  1.
          1   -1    0    0  501    0  0.00000000000E+00 -0.00000000000E+00 -0.96639859626E+03  0.96639859627E+03  0.50400000000E-02 0. -1.
    5000001    1    1    2    0    0 -0.82278465985E+00  0.12117352572E+03 -0.52113573714E+03  0.56844538597E+03  0.19200000000E+03 0.  0.
   -5000001    1    1    2    0    0  0.82278465985E+00 -0.12117352572E+03 -0.39104190701E+03  0.45217416263E+03  0.19200000000E+03 0.  0.
<mgrwt>
<rscale>  0 0.45781678E+03</rscale>
<asrwt>0</asrwt>
<pdfrwt beam="1">  1        1 0.13805693E+00 0.45781678E+03</pdfrwt>
<pdfrwt beam="2">  1       -1 0.77458509E-02 0.45781678E+03</pdfrwt>
<totfact> 0.17377857E+03</totfact>
</mgrwt>
</event>
<event>
 4    1  0.7145298E-006  0.6854570E+03  0.7818608E-02  0.9742431E-01
          1   -1    0    0  501    0  0.00000000000E+00  0.00000000000E+00  0.42894957325E+03  0.42894957327E+03  0.50400000000E-02 0.  1.
         -1   -1    0    0    0  501 -0.00000000000E+00 -0.00000000000E+00 -0.27383827723E+03  0.27383827728E+03  0.50400000000E-02 0. -1.
    5000001    1    1    2    0    0 -0.13396545521E+03  0.11523096699E+03  0.30537611572E+03  0.40167585314E+03  0.19200000000E+03 0.  0.
   -5000001    1    1    2    0    0  0.13396545521E+03 -0.11523096699E+03 -0.15026481971E+03  0.30111199741E+03  0.19200000000E+03 0.  0.
<mgrwt>
<rscale>  0 0.68545696E+03</rscale>
<asrwt>0</asrwt>
<pdfrwt beam="1">  1        1 0.61278510E-01 0.68545696E+03</pdfrwt>
<pdfrwt beam="2">  1       -1 0.39119754E-01 0.68545696E+03</pdfrwt>
<totfact> 0.38692398E+02</totfact>
</mgrwt>
</event>
<event>
 4    1  0.7145298E-006  0.7083636E+03  0.7818608E-02  0.9703035E-01
         -1   -1    0    0    0  501 -0.00000000000E+00  0.00000000000E+00  0.11967353640E+03  0.11967353650E+03  0.50400000000E-02 0. -1.
          1   -1    0    0  501    0  0.00000000000E+00 -0.00000000000E+00 -0.10482246225E+04  0.10482246225E+04  0.50400000000E-02 0.  1.
    5000001    1    1    2    0    0  0.11512587715E+03  0.25265608737E+03 -0.28753323271E+03  0.44342803925E+03  0.19200000000E+03 0.  0.
   -5000001    1    1    2    0    0 -0.11512587715E+03 -0.25265608737E+03 -0.64101785341E+03  0.72447011979E+03  0.19200000000E+03 0.  0.
<mgrwt>
<rscale>  0 0.70836360E+03</rscale>
<asrwt>0</asrwt>
<pdfrwt beam="1">  1        1 0.14974637E+00 0.70836360E+03</pdfrwt>
<pdfrwt beam="2">  1       -1 0.17096220E-01 0.70836360E+03</pdfrwt>
<totfact> 0.42607197E+02</totfact>
</mgrwt>
</event>
<event>
 4    1  0.7145298E-006  0.6235363E+03  0.7818608E-02  0.9857744E-01
         -1   -1    0    0    0  501 -0.00000000000E+00  0.00000000000E+00  0.14545311432E+04  0.14545311432E+04  0.50400000000E-02 0. -1.
          1   -1    0    0  501    0  0.00000000000E+00 -0.00000000000E+00 -0.66825222250E+02  0.66825222440E+02  0.50400000000E-02 0.  1.
    5000001    1    1    2    0    0  0.14184543079E+03  0.19862337540E+03  0.76129251028E+03  0.82219319974E+03  0.19200000000E+03 0.  0.
   -5000001    1    1    2    0    0 -0.14184543079E+03 -0.19862337540E+03  0.62641341065E+03  0.69916316589E+03  0.19200000000E+03 0.  0.
<mgrwt>
<rscale>  0 0.62353626E+03</rscale>
<asrwt>0</asrwt>
<pdfrwt beam="1">  1        1 0.95464601E-02 0.62353626E+03</pdfrwt>
<pdfrwt beam="2">  1       -1 0.20779017E+00 0.62353626E+03</pdfrwt>
<totfact> 0.98260460E+01</totfact>
</mgrwt>
</event>
<event>
 4    1  0.7145298E-006  0.7470278E+03  0.7818608E-02  0.9640025E-01
          1   -1    0    0  501    0  0.00000000000E+00  0.00000000000E+00  0.21191208192E+04  0.21191208192E+04  0.50400000000E-02 0.  1.
         -1   -1    0    0    0  501 -0.00000000000E+00 -0.00000000000E+00 -0.65835142612E+02  0.65835142805E+02  0.50400000000E-02 0. -1.
    5000001    1    1    2    0    0  0.24031512847E+03 -0.18248180282E+02  0.16440893115E+04  0.16727157622E+04  0.19200000000E+03 0.  0.
   -5000001    1    1    2    0    0 -0.24031512847E+03  0.18248180282E+02  0.40919636505E+03  0.51224019974E+03  0.19200000000E+03 0.  0.
<mgrwt>
<rscale>  0 0.74702777E+03</rscale>
<asrwt>0</asrwt>
<pdfrwt beam="1">  1        1 0.30273153E+00 0.74702777E+03</pdfrwt>
<pdfrwt beam="2">  1       -1 0.94050210E-02 0.74702777E+03</pdfrwt>
<totfact> 0.22417668E+02</totfact>
</mgrwt>
</event>
<event>
 4    1  0.7145298E-006  0.4940849E+03  0.7818608E-02  0.1015334E+00
         -1   -1    0    0    0  501 -0.00000000000E+00  0.00000000000E+00  0.31967177542E+02  0.31967177939E+02  0.50400000000E-02 0. -1.
          1   -1    0    0  501    0  0.00000000000E+00 -0.00000000000E+00 -0.19091445763E+04  0.19091445763E+04  0.50400000000E-02 0.  1.
    5000001    1    1    2    0    0  0.48785442257E+02 -0.13447346777E+03 -0.11776536664E+04  0.12017467665E+04  0.19200000000E+03 0.  0.
   -5000001    1    1    2    0    0 -0.48785442257E+02  0.13447346777E+03 -0.69952373241E+03  0.73936498775E+03  0.19200000000E+03 0.  0.
<mgrwt>
<rscale>  0 0.49408487E+03</rscale>
<asrwt>0</asrwt>
<pdfrwt beam="1">  1        1 0.27273487E+00 0.49408487E+03</pdfrwt>
<pdfrwt beam="2">  1       -1 0.45667409E-02 0.49408487E+03</pdfrwt>
<totfact> 0.94095014E+02</totfact>
</mgrwt>
</event>
<event>
 4    1  0.7145298E-006  0.7245537E+03  0.7818608E-02  0.9676140E-01
          1   -1    0    0  501    0  0.00000000000E+00  0.00000000000E+00  0.31331338098E+03  0.31331338102E+03  0.50400000000E-02 0.  1.
         -1   -1    0    0    0  501 -0.00000000000E+00 -0.00000000000E+00 -0.41889218135E+03  0.41889218138E+03  0.50400000000E-02 0. -1.
    5000001    1    1    2    0    0  0.20959694725E+03  0.18215760145E+03  0.80007102607E+02  0.34695447617E+03  0.19200000000E+03 0.  0.
   -5000001    1    1    2    0    0 -0.20959694725E+03 -0.18215760145E+03 -0.18558590298E+03  0.38525108624E+03  0.19200000000E+03 0.  0.
<mgrwt>
<rscale>  0 0.72455373E+03</rscale>
<asrwt>0</asrwt>
<pdfrwt beam="1">  1        1 0.44759054E-01 0.72455373E+03</pdfrwt>
<pdfrwt beam="2">  1       -1 0.59841740E-01 0.72455373E+03</pdfrwt>
<totfact> 0.26158745E+02</totfact>
</mgrwt>
</event>
<event>
 4    1  0.7145298E-006  0.4985643E+03  0.7818608E-02  0.1014154E+00
         -1   -1    0    0    0  501 -0.00000000000E+00  0.00000000000E+00  0.34957373475E+02  0.34957373838E+02  0.50400000000E-02 0. -1.
          1   -1    0    0  501    0  0.00000000000E+00 -0.00000000000E+00 -0.17776388944E+04  0.17776388944E+04  0.50400000000E-02 0.  1.
    5000001    1    1    2    0    0 -0.15556014602E+03  0.26589606170E+02 -0.80125497075E+03  0.83891566581E+03  0.19200000000E+03 0.  0.
   -5000001    1    1    2    0    0  0.15556014602E+03 -0.26589606170E+02 -0.94142655018E+03  0.97368060245E+03  0.19200000000E+03 0.  0.
<mgrwt>
<rscale>  0 0.49856429E+03</rscale>
<asrwt>0</asrwt>
<pdfrwt beam="1">  1        1 0.25394836E+00 0.49856429E+03</pdfrwt>
<pdfrwt beam="2">  1       -1 0.49939117E-02 0.49856429E+03</pdfrwt>
<totfact> 0.98990813E+02</totfact>
</mgrwt>
</event>
<event>
 4    1  0.7145298E-006  0.7056656E+03  0.7818608E-02  0.9707592E-01
         -1   -1    0    0    0  501 -0.00000000000E+00  0.00000000000E+00  0.41161875722E+03  0.41161875725E+03  0.50400000000E-02 0. -1.
          1   -1    0    0  501    0  0.00000000000E+00 -0.00000000000E+00 -0.30244241972E+03  0.30244241976E+03  0.50400000000E-02 0.  1.
    5000001    1    1    2    0    0 -0.25961427269E+03  0.12860386678E+03  0.11604332363E+03  0.36642677044E+03  0.19200000000E+03 0.  0.
   -5000001    1    1    2    0    0  0.25961427269E+03 -0.12860386678E+03 -0.68669861297E+01  0.34763440657E+03  0.19200000000E+03 0.  0.
<mgrwt>
<rscale>  0 0.70566557E+03</rscale>
<asrwt>0</asrwt>
<pdfrwt beam="1">  1        1 0.43206060E-01 0.70566557E+03</pdfrwt>
<pdfrwt beam="2">  1       -1 0.58802680E-01 0.70566557E+03</pdfrwt>
<totfact> 0.28360075E+02</totfact>
</mgrwt>
</event>
<event>
 4    1  0.7145298E-006  0.4349966E+03  0.7818608E-02  0.1032293E+00
         -1   -1    0    0    0  501 -0.00000000000E+00  0.00000000000E+00  0.72336377991E+02  0.72336378167E+02  0.50400000000E-02 0. -1.
          1   -1    0    0  501    0  0.00000000000E+00 -0.00000000000E+00 -0.65396571479E+03  0.65396571481E+03  0.50400000000E-02 0.  1.
    5000001    1    1    2    0    0 -0.58584323008E+02  0.18161753978E+02 -0.15435488585E+03  0.25387280869E+03  0.19200000000E+03 0.  0.
   -5000001    1    1    2    0    0  0.58584323008E+02 -0.18161753978E+02 -0.42727445095E+03  0.47242928428E+03  0.19200000000E+03 0.  0.
<mgrwt>
<rscale>  0 0.43499660E+03</rscale>
<asrwt>0</asrwt>
<pdfrwt beam="1">  1        1 0.93423670E-01 0.43499660E+03</pdfrwt>
<pdfrwt beam="2">  1       -1 0.10333769E-01 0.43499660E+03</pdfrwt>
<totfact> 0.20113969E+03</totfact>
</mgrwt>
</event>
<event>
 4    1  0.7145298E-006  0.4504602E+03  0.7818608E-02  0.1027585E+00
         -1   -1    0    0    0  501 -0.00000000000E+00  0.00000000000E+00  0.51600153986E+02  0.51600154232E+02  0.50400000000E-02 0. -1.
          1   -1    0    0  501    0  0.00000000000E+00 -0.00000000000E+00 -0.98310958898E+03  0.98310958899E+03  0.50400000000E-02 0.  1.
    5000001    1    1    2    0    0  0.52726181501E+02 -0.10491617485E+03 -0.44557864375E+03  0.49919112746E+03  0.19200000000E+03 0.  0.
   -5000001    1    1    2    0    0 -0.52726181501E+02  0.10491617485E+03 -0.48593079124E+03  0.53551861577E+03  0.19200000000E+03 0.  0.
<mgrwt>
<rscale>  0 0.45046024E+03</rscale>
<asrwt>0</asrwt>
<pdfrwt beam="1">  1        1 0.14044422E+00 0.45046024E+03</pdfrwt>
<pdfrwt beam="2">  1       -1 0.73714512E-02 0.45046024E+03</pdfrwt>
<totfact> 0.18233480E+03</totfact>
</mgrwt>
</event>
<event>
 4    1  0.7145298E-006  0.4528832E+03  0.7818608E-02  0.1026866E+00
         -1   -1    0    0    0  501 -0.00000000000E+00  0.00000000000E+00  0.95597498638E+02  0.95597498770E+02  0.50400000000E-02 0.  1.
          1   -1    0    0  501    0  0.00000000000E+00 -0.00000000000E+00 -0.53637174037E+03  0.53637174039E+03  0.50400000000E-02 0. -1.
    5000001    1    1    2    0    0 -0.80978434063E+02 -0.11117128938E+02 -0.97694306276E+02  0.23041109960E+03  0.19200000000E+03 0.  0.
   -5000001    1    1    2    0    0  0.80978434063E+02  0.11117128938E+02 -0.34307993546E+03  0.40155813957E+03  0.19200000000E+03 0.  0.
<mgrwt>
<rscale>  0 0.45288319E+03</rscale>
<asrwt>0</asrwt>
<pdfrwt beam="1">  1        1 0.76624533E-01 0.45288319E+03</pdfrwt>
<pdfrwt beam="2">  1       -1 0.13656786E-01 0.45288319E+03</pdfrwt>
<totfact> 0.17023165E+03</totfact>
</mgrwt>
</event>
<event>
 4    1  0.7145298E-006  0.7352393E+03  0.7818608E-02  0.9658796E-01
         -1   -1    0    0    0  501 -0.00000000000E+00  0.00000000000E+00  0.12240216394E+03  0.12240216404E+03  0.50400000000E-02 0. -1.
          1   -1    0    0  501    0  0.00000000000E+00 -0.00000000000E+00 -0.11040999593E+04  0.11040999593E+04  0.50400000000E-02 0.  1.
    5000001    1    1    2    0    0  0.29965684925E+03 -0.61437629618E+02 -0.37634632933E+03  0.52160269290E+03  0.19200000000E+03 0.  0.
   -5000001    1    1    2    0    0 -0.29965684925E+03  0.61437629618E+02 -0.60535146603E+03  0.70489943045E+03  0.19200000000E+03 0.  0.
<mgrwt>
<rscale>  0 0.73523935E+03</rscale>
<asrwt>0</asrwt>
<pdfrwt beam="1">  1        1 0.15772856E+00 0.73523935E+03</pdfrwt>
<pdfrwt beam="2">  1       -1 0.17486024E-01 0.73523935E+03</pdfrwt>
<totfact> 0.37379598E+02</totfact>
</mgrwt>
</event>
<event>
 4    1  0.7145298E-006  0.7303800E+03  0.7818608E-02  0.9666644E-01
          1   -1    0    0  501    0  0.00000000000E+00  0.00000000000E+00  0.73707724223E+03  0.73707724224E+03  0.50400000000E-02 0.  1.
         -1   -1    0    0    0  501 -0.00000000000E+00 -0.00000000000E+00 -0.18093591968E+03  0.18093591975E+03  0.50400000000E-02 0. -1.
    5000001    1    1    2    0    0 -0.19297737925E+03 -0.24339695322E+03  0.27282727251E+03  0.45583008497E+03  0.19200000000E+03 0.  0.
   -5000001    1    1    2    0    0  0.19297737925E+03  0.24339695322E+03  0.28331405004E+03  0.46218307702E+03  0.19200000000E+03 0.  0.
<mgrwt>
<rscale>  0 0.73038003E+03</rscale>
<asrwt>0</asrwt>
<pdfrwt beam="1">  1        1 0.10529675E+00 0.73038003E+03</pdfrwt>
<pdfrwt beam="2">  1       -1 0.25847988E-01 0.73038003E+03</pdfrwt>
<totfact> 0.37615080E+02</totfact>
</mgrwt>
</event>
<event>
 4    1  0.7145298E-006  0.9609311E+03  0.7818608E-02  0.9352464E-01
         -1   -1    0    0    0  501 -0.00000000000E+00  0.00000000000E+00  0.15640566460E+03  0.15640566468E+03  0.50400000000E-02 0.  1.
          1   -1    0    0  501    0  0.00000000000E+00 -0.00000000000E+00 -0.14759512136E+04  0.14759512137E+04  0.50400000000E-02 0. -1.
    5000001    1    1    2    0    0 -0.90416079203E+02 -0.43016497036E+03 -0.61275273085E+03  0.77816892656E+03  0.19200000000E+03 0.  0.
   -5000001    1    1    2    0    0  0.90416079203E+02  0.43016497036E+03 -0.70679281820E+03  0.85418795178E+03  0.19200000000E+03 0.  0.
<mgrwt>
<rscale>  0 0.96093107E+03</rscale>
<asrwt>0</asrwt>
<pdfrwt beam="1">  1        1 0.21085016E+00 0.96093107E+03</pdfrwt>
<pdfrwt beam="2">  1       -1 0.22343667E-01 0.96093107E+03</pdfrwt>
<totfact> 0.13723319E+02</totfact>
</mgrwt>
</event>
<event>
 4    1  0.7145298E-006  0.5458628E+03  0.7818608E-02  0.1002456E+00
         -1   -1    0    0    0  501 -0.00000000000E+00  0.00000000000E+00  0.63150820009E+03  0.63150820011E+03  0.50400000000E-02 0. -1.
          1   -1    0    0  501    0  0.00000000000E+00 -0.00000000000E+00 -0.11795817916E+03  0.11795817927E+03  0.50400000000E-02 0.  1.
    5000001    1    1    2    0    0 -0.20271974375E+00  0.18217765574E+03  0.16530003387E+03  0.31205262464E+03  0.19200000000E+03 0.  0.
   -5000001    1    1    2    0    0  0.20271974375E+00 -0.18217765574E+03  0.34824998705E+03  0.43741375473E+03  0.19200000000E+03 0.  0.
<mgrwt>
<rscale>  0 0.54586283E+03</rscale>
<asrwt>0</asrwt>
<pdfrwt beam="1">  1        1 0.16851169E-01 0.54586283E+03</pdfrwt>
<pdfrwt beam="2">  1       -1 0.90215456E-01 0.54586283E+03</pdfrwt>
<totfact> 0.40200332E+02</totfact>
</mgrwt>
</event>
<event>
 4    1  0.7145298E-006  0.5263934E+03  0.7818608E-02  0.1007111E+00
         -1   -1    0    0    0  501 -0.00000000000E+00  0.00000000000E+00  0.20906892812E+03  0.20906892818E+03  0.50400000000E-02 0. -1.
          1   -1    0    0  501    0  0.00000000000E+00 -0.00000000000E+00 -0.33133810660E+03  0.33133810664E+03  0.50400000000E-02 0.  1.
    5000001    1    1    2    0    0 -0.12002443630E+03 -0.12266328652E+03 -0.11695446917E+03  0.28283298080E+03  0.19200000000E+03 0.  0.
   -5000001    1    1    2    0    0  0.12002443630E+03  0.12266328652E+03 -0.53147093130E+01  0.25757405402E+03  0.19200000000E+03 0.  0.
<mgrwt>
<rscale>  0 0.52639340E+03</rscale>
<asrwt>0</asrwt>
<pdfrwt beam="1">  1        1 0.47334015E-01 0.52639340E+03</pdfrwt>
<pdfrwt beam="2">  1       -1 0.29866990E-01 0.52639340E+03</pdfrwt>
<totfact> 0.87577882E+02</totfact>
</mgrwt>
</event>
<event>
 4    1  0.7145298E-006  0.6184252E+03  0.7818608E-02  0.9867900E-01
          1   -1    0    0  501    0  0.00000000000E+00  0.00000000000E+00  0.48131760942E+02  0.48131761206E+02  0.50400000000E-02 0.  1.
         -1   -1    0    0    0  501 -0.00000000000E+00 -0.00000000000E+00 -0.19864726680E+04  0.19864726680E+04  0.50400000000E-02 0. -1.
    5000001    1    1    2    0    0 -0.15263812079E+03 -0.16962686152E+03 -0.70034171602E+03  0.76119260852E+03  0.19200000000E+03 0.  0.
   -5000001    1    1    2    0    0  0.15263812079E+03  0.16962686152E+03 -0.12379991910E+04  0.12734118206E+04  0.19200000000E+03 0.  0.
<mgrwt>
<rscale>  0 0.61842519E+03</rscale>
<asrwt>0</asrwt>
<pdfrwt beam="1">  1        1 0.68759671E-02 0.61842519E+03</pdfrwt>
<pdfrwt beam="2">  1       -1 0.28378176E+00 0.61842519E+03</pdfrwt>
<totfact> 0.49965379E+01</totfact>
</mgrwt>
</event>
<event>
 4    1  0.7145298E-006  0.4956090E+03  0.7818608E-02  0.1014931E+00
         -1   -1    0    0    0  501 -0.00000000000E+00  0.00000000000E+00  0.22336961150E+02  0.22336961718E+02  0.50400000000E-02 0. -1.
          1   -1    0    0  501    0  0.00000000000E+00 -0.00000000000E+00 -0.27491234221E+04  0.27491234221E+04  0.50400000000E-02 0.  1.
    5000001    1    1    2    0    0  0.46785398449E+02 -0.14129166661E+01 -0.52734834871E+03  0.56316174473E+03  0.19200000000E+03 0.  0.
   -5000001    1    1    2    0    0 -0.46785398449E+02  0.14129166661E+01 -0.21994381123E+04  0.22082986391E+04  0.19200000000E+03 0.  0.
<mgrwt>
<rscale>  0 0.49560897E+03</rscale>
<asrwt>0</asrwt>
<pdfrwt beam="1">  1        1 0.39273170E+00 0.49560897E+03</pdfrwt>
<pdfrwt beam="2">  1       -1 0.31909962E-02 0.49560897E+03</pdfrwt>
<totfact> 0.48894677E+02</totfact>
</mgrwt>
</event>
<event>
 4    1  0.7145298E-006  0.7093513E+03  0.7818608E-02  0.9701373E-01
         -1   -1    0    0    0  501 -0.00000000000E+00  0.00000000000E+00  0.32443535946E+03  0.32443535950E+03  0.50400000000E-02 0. -1.
          1   -1    0    0  501    0  0.00000000000E+00 -0.00000000000E+00 -0.38773462203E+03  0.38773462207E+03  0.50400000000E-02 0.  1.
    5000001    1    1    2    0    0 -0.26193873985E+03 -0.73653405542E+02  0.90876671996E+02  0.34519457860E+03  0.19200000000E+03 0.  0.
   -5000001    1    1    2    0    0  0.26193873985E+03  0.73653405542E+02 -0.15417593457E+03  0.36697540297E+03  0.19200000000E+03 0.  0.
<mgrwt>
<rscale>  0 0.70935131E+03</rscale>
<asrwt>0</asrwt>
<pdfrwt beam="1">  1        1 0.55390660E-01 0.70935131E+03</pdfrwt>
<pdfrwt beam="2">  1       -1 0.46347909E-01 0.70935131E+03</pdfrwt>
<totfact> 0.32342143E+02</totfact>
</mgrwt>
</event>
<event>
 4    1  0.7145298E-006  0.8340926E+03  0.7818608E-02  0.9511940E-01
          1   -1    0    0  501    0  0.00000000000E+00  0.00000000000E+00  0.17565832055E+03  0.17565832063E+03  0.50400000000E-02 0.  1.
         -1   -1    0    0    0  501 -0.00000000000E+00 -0.00000000000E+00 -0.99014739545E+03  0.99014739546E+03  0.50400000000E-02 0. -1.
    5000001    1    1    2    0    0 -0.33972561800E+03  0.41419932297E+02 -0.60458439641E+03  0.72077416623E+03  0.19200000000E+03 0.  0.
   -5000001    1    1    2    0    0  0.33972561800E+03 -0.41419932297E+02 -0.20990467848E+03  0.44503154986E+03  0.19200000000E+03 0.  0.
<mgrwt>
<rscale>  0 0.83409263E+03</rscale>
<asrwt>0</asrwt>
<pdfrwt beam="1">  1        1 0.25094046E-01 0.83409263E+03</pdfrwt>
<pdfrwt beam="2">  1       -1 0.14144962E+00 0.83409263E+03</pdfrwt>
<totfact> 0.80215752E+01</totfact>
</mgrwt>
</event>
<event>
 4    1  0.7145298E-006  0.4506806E+03  0.7818608E-02  0.1027519E+00
         -1   -1    0    0    0  501 -0.00000000000E+00  0.00000000000E+00  0.89500889665E+02  0.89500889807E+02  0.50400000000E-02 0. -1.
          1   -1    0    0  501    0  0.00000000000E+00 -0.00000000000E+00 -0.56734907909E+03  0.56734907911E+03  0.50400000000E-02 0.  1.
    5000001    1    1    2    0    0 -0.18145808282E+02  0.93099554441E+02 -0.13672023190E+03  0.25407325559E+03  0.19200000000E+03 0.  0.
   -5000001    1    1    2    0    0  0.18145808282E+02 -0.93099554441E+02 -0.34112795752E+03  0.40277671333E+03  0.19200000000E+03 0.  0.
<mgrwt>
<rscale>  0 0.45068058E+03</rscale>
<asrwt>0</asrwt>
<pdfrwt beam="1">  1        1 0.81049866E-01 0.45068058E+03</pdfrwt>
<pdfrwt beam="2">  1       -1 0.12785842E-01 0.45068058E+03</pdfrwt>
<totfact> 0.17517977E+03</totfact>
</mgrwt>
</event>
<event>
 4    1  0.7145298E-006  0.6477978E+03  0.7818608E-02  0.9810920E-01
          1   -1    0    0  501    0  0.00000000000E+00  0.00000000000E+00  0.11231060705E+04  0.11231060705E+04  0.50400000000E-02 0.  1.
         -1   -1    0    0    0  501 -0.00000000000E+00 -0.00000000000E+00 -0.93411030739E+02  0.93411030875E+02  0.50400000000E-02 0. -1.
    5000001    1    1    2    0    0 -0.12138596170E+03  0.21423242631E+03  0.35312307657E+03  0.47137033358E+03  0.19200000000E+03 0.  0.
   -5000001    1    1    2    0    0  0.12138596170E+03 -0.21423242631E+03  0.67657196317E+03  0.74514676778E+03  0.19200000000E+03 0.  0.
<mgrwt>
<rscale>  0 0.64779779E+03</rscale>
<asrwt>0</asrwt>
<pdfrwt beam="1">  1        1 0.16044372E+00 0.64779779E+03</pdfrwt>
<pdfrwt beam="2">  1       -1 0.13344433E-01 0.64779779E+03</pdfrwt>
<totfact> 0.56481266E+02</totfact>
</mgrwt>
</event>
<event>
 4    1  0.7145298E-006  0.5228522E+03  0.7818608E-02  0.1007980E+00
         -1   -1    0    0    0  501 -0.00000000000E+00  0.00000000000E+00  0.35099085031E+03  0.35099085035E+03  0.50400000000E-02 0. -1.
          1   -1    0    0  501    0  0.00000000000E+00 -0.00000000000E+00 -0.19471618392E+03  0.19471618399E+03  0.50400000000E-02 0.  1.
    5000001    1    1    2    0    0 -0.10433592159E+03  0.13435914808E+03  0.13075152989E+03  0.28792069702E+03  0.19200000000E+03 0.  0.
   -5000001    1    1    2    0    0  0.10433592159E+03 -0.13435914808E+03  0.25523136497E+02  0.25778633731E+03  0.19200000000E+03 0.  0.
<mgrwt>
<rscale>  0 0.52285217E+03</rscale>
<asrwt>0</asrwt>
<pdfrwt beam="1">  1        1 0.27816598E-01 0.52285217E+03</pdfrwt>
<pdfrwt beam="2">  1       -1 0.50141550E-01 0.52285217E+03</pdfrwt>
<totfact> 0.68271602E+02</totfact>
</mgrwt>
</event>
<event>
 4    1  0.7145298E-006  0.6293603E+03  0.7818608E-02  0.9846298E-01
          1   -1    0    0  501    0  0.00000000000E+00  0.00000000000E+00  0.15075104269E+04  0.15075104269E+04  0.50400000000E-02 0.  1.
         -1   -1    0    0    0  501 -0.00000000000E+00 -0.00000000000E+00 -0.65686846528E+02  0.65686846721E+02  0.50400000000E-02 0. -1.
    5000001    1    1    2    0    0  0.13752588787E+03  0.13253978594E+03  0.11214801180E+04  0.11537165249E+04  0.19200000000E+03 0.  0.
   -5000001    1    1    2    0    0 -0.13752588787E+03 -0.13253978594E+03  0.32034346235E+03  0.41948074874E+03  0.19200000000E+03 0.  0.
<mgrwt>
<rscale>  0 0.62936033E+03</rscale>
<asrwt>0</asrwt>
<pdfrwt beam="1">  1        1 0.21535860E+00 0.62936033E+03</pdfrwt>
<pdfrwt beam="2">  1       -1 0.93838368E-02 0.62936033E+03</pdfrwt>
<totfact> 0.54794727E+02</totfact>
</mgrwt>
</event>
<event>
 4    1  0.7145298E-006  0.5615110E+03  0.7818608E-02  0.9988642E-01
          1   -1    0    0  501    0  0.00000000000E+00  0.00000000000E+00  0.29486798941E+03  0.29486798945E+03  0.50400000000E-02 0.  1.
         -1   -1    0    0    0  501 -0.00000000000E+00 -0.00000000000E+00 -0.26731842912E+03  0.26731842917E+03  0.50400000000E-02 0. -1.
    5000001    1    1    2    0    0  0.20319646336E+03 -0.23564137337E+02  0.30111989702E+01  0.28056574739E+03  0.19200000000E+03 0.  0.
   -5000001    1    1    2    0    0 -0.20319646336E+03  0.23564137337E+02  0.24538361314E+02  0.28162067123E+03  0.19200000000E+03 0.  0.
<mgrwt>
<rscale>  0 0.56151099E+03</rscale>
<asrwt>0</asrwt>
<pdfrwt beam="1">  1        1 0.42123998E-01 0.56151099E+03</pdfrwt>
<pdfrwt beam="2">  1       -1 0.38188347E-01 0.56151099E+03</pdfrwt>
<totfact> 0.65973120E+02</totfact>
</mgrwt>
</event>
<event>
 4    1  0.7145298E-006  0.8119968E+03  0.7818608E-02  0.9542813E-01
          1   -1    0    0  501    0  0.00000000000E+00  0.00000000000E+00  0.85523430735E+03  0.85523430737E+03  0.50400000000E-02 0.  1.
         -1   -1    0    0    0  501 -0.00000000000E+00 -0.00000000000E+00 -0.19273628458E+03  0.19273628464E+03  0.50400000000E-02 0. -1.
    5000001    1    1    2    0    0  0.17736198915E+03 -0.27552172251E+03  0.51649164019E+03  0.64109056236E+03  0.19200000000E+03 0.  0.
   -5000001    1    1    2    0    0 -0.17736198915E+03  0.27552172251E+03  0.14600638259E+03  0.40688002965E+03  0.19200000000E+03 0.  0.
<mgrwt>
<rscale>  0 0.81199676E+03</rscale>
<asrwt>0</asrwt>
<pdfrwt beam="1">  1        1 0.12217633E+00 0.81199676E+03</pdfrwt>
<pdfrwt beam="2">  1       -1 0.27533755E-01 0.81199676E+03</pdfrwt>
<totfact> 0.26726917E+02</totfact>
</mgrwt>
</event>
<event>
 4    1  0.7145298E-006  0.1467976E+04  0.7818608E-02  0.8906032E-01
         -1   -1    0    0    0  501 -0.00000000000E+00  0.00000000000E+00  0.11943097180E+04  0.11943097180E+04  0.50400000000E-02 0. -1.
          1   -1    0    0  501    0  0.00000000000E+00 -0.00000000000E+00 -0.45108755867E+03  0.45108755870E+03  0.50400000000E-02 0.  1.
    5000001    1    1    2    0    0  0.14130807868E+03 -0.52044033477E+03  0.88653448804E+03  0.10552883557E+04  0.19200000000E+03 0.  0.
   -5000001    1    1    2    0    0 -0.14130807868E+03  0.52044033477E+03 -0.14331232868E+03  0.59010892105E+03  0.19200000000E+03 0.  0.
<mgrwt>
<rscale>  0 0.14679758E+04</rscale>
<asrwt>0</asrwt>
<pdfrwt beam="1">  1        1 0.64441080E-01 0.14679758E+04</pdfrwt>
<pdfrwt beam="2">  1       -1 0.17061567E+00 0.14679758E+04</pdfrwt>
<totfact> 0.13347400E+01</totfact>
</mgrwt>
</event>
<event>
 4    1  0.7145298E-006  0.4989782E+03  0.7818608E-02  0.1014046E+00
          1   -1    0    0  501    0  0.00000000000E+00  0.00000000000E+00  0.60548041671E+03  0.60548041674E+03  0.50400000000E-02 0.  1.
         -1   -1    0    0    0  501 -0.00000000000E+00 -0.00000000000E+00 -0.10280236212E+03  0.10280236224E+03  0.50400000000E-02 0. -1.
    5000001    1    1    2    0    0 -0.26308962487E+02  0.14213548170E+03  0.15626486884E+03  0.28666594827E+03  0.19200000000E+03 0.  0.
   -5000001    1    1    2    0    0  0.26308962487E+02 -0.14213548170E+03  0.34641318576E+03  0.42161683071E+03  0.19200000000E+03 0.  0.
<mgrwt>
<rscale>  0 0.49897822E+03</rscale>
<asrwt>0</asrwt>
<pdfrwt beam="1">  1        1 0.86497202E-01 0.49897822E+03</pdfrwt>
<pdfrwt beam="2">  1       -1 0.14686052E-01 0.49897822E+03</pdfrwt>
<totfact> 0.12828804E+03</totfact>
</mgrwt>
</event>
<event>
 4    1  0.7145298E-006  0.1436607E+04  0.7818608E-02  0.8927738E-01
         -1   -1    0    0    0  501 -0.00000000000E+00  0.00000000000E+00  0.62325992085E+03  0.62325992087E+03  0.50400000000E-02 0. -1.
          1   -1    0    0  501    0  0.00000000000E+00 -0.00000000000E+00 -0.82784119876E+03  0.82784119877E+03  0.50400000000E-02 0.  1.
    5000001    1    1    2    0    0  0.34415900062E+03 -0.60053724726E+03 -0.99850280030E+02  0.72520650954E+03  0.19200000000E+03 0.  0.
   -5000001    1    1    2    0    0 -0.34415900062E+03  0.60053724726E+03 -0.10473099788E+03  0.72589461010E+03  0.19200000000E+03 0.  0.
<mgrwt>
<rscale>  0 0.14366074E+04</rscale>
<asrwt>0</asrwt>
<pdfrwt beam="1">  1        1 0.11826303E+00 0.14366074E+04</pdfrwt>
<pdfrwt beam="2">  1       -1 0.89037132E-01 0.14366074E+04</pdfrwt>
<totfact> 0.28413575E+01</totfact>
</mgrwt>
</event>
<event>
 4    1  0.7145298E-006  0.5977756E+03  0.7818608E-02  0.9910032E-01
         -1   -1    0    0    0  501 -0.00000000000E+00  0.00000000000E+00  0.90209970561E+02  0.90209970702E+02  0.50400000000E-02 0. -1.
          1   -1    0    0  501    0  0.00000000000E+00 -0.00000000000E+00 -0.99028882042E+03  0.99028882043E+03  0.50400000000E-02 0.  1.
    5000001    1    1    2    0    0 -0.20834066166E+03  0.58551942719E+02 -0.58573399981E+03  0.65328590971E+03  0.19200000000E+03 0.  0.
   -5000001    1    1    2    0    0  0.20834066166E+03 -0.58551942719E+02 -0.31434485005E+03  0.42721288142E+03  0.19200000000E+03 0.  0.
<mgrwt>
<rscale>  0 0.59777563E+03</rscale>
<asrwt>0</asrwt>
<pdfrwt beam="1">  1        1 0.14146983E+00 0.59777563E+03</pdfrwt>
<pdfrwt beam="2">  1       -1 0.12887139E-01 0.59777563E+03</pdfrwt>
<totfact> 0.74648697E+02</totfact>
</mgrwt>
</event>
<event>
 4    1  0.7145298E-006  0.4756638E+03  0.7818608E-02  0.1020334E+00
          1   -1    0    0  501    0  0.00000000000E+00  0.00000000000E+00  0.59789099066E+03  0.59789099068E+03  0.50400000000E-02 0. -1.
         -1   -1    0    0    0  501 -0.00000000000E+00 -0.00000000000E+00 -0.94605907361E+02  0.94605907495E+02  0.50400000000E-02 0.  1.
    5000001    1    1    2    0    0  0.79565705088E+02  0.11444756349E+03  0.27561216702E+03  0.36366882301E+03  0.19200000000E+03 0.  0.
   -5000001    1    1    2    0    0 -0.79565705088E+02 -0.11444756349E+03  0.22767291628E+03  0.32882807517E+03  0.19200000000E+03 0.  0.
<mgrwt>
<rscale>  0 0.47566383E+03</rscale>
<asrwt>0</asrwt>
<pdfrwt beam="1">  1        1 0.85412999E-01 0.47566383E+03</pdfrwt>
<pdfrwt beam="2">  1       -1 0.13515130E-01 0.47566383E+03</pdfrwt>
<totfact> 0.14918590E+03</totfact>
</mgrwt>
</event>
<event>
 4    1  0.7145298E-006  0.5207197E+03  0.7818608E-02  0.1008508E+00
         -1   -1    0    0    0  501 -0.00000000000E+00  0.00000000000E+00  0.37608214768E+03  0.37608214771E+03  0.50400000000E-02 0. -1.
          1   -1    0    0  501    0  0.00000000000E+00 -0.00000000000E+00 -0.18024586763E+03  0.18024586770E+03  0.50400000000E-02 0.  1.
    5000001    1    1    2    0    0  0.48377525243E+02  0.11300209100E+03 -0.36432420902E+02  0.23087048060E+03  0.19200000000E+03 0.  0.
   -5000001    1    1    2    0    0 -0.48377525243E+02 -0.11300209100E+03  0.23226870096E+03  0.32545753481E+03  0.19200000000E+03 0.  0.
<mgrwt>
<rscale>  0 0.52071971E+03</rscale>
<asrwt>0</asrwt>
<pdfrwt beam="1">  1        1 0.25749410E-01 0.52071971E+03</pdfrwt>
<pdfrwt beam="2">  1       -1 0.53726020E-01 0.52071971E+03</pdfrwt>
<totfact> 0.66201505E+02</totfact>
</mgrwt>
</event>
<event>
 4    1  0.7145298E-006  0.1122164E+04  0.7818608E-02  0.9183855E-01
          1   -1    0    0  501    0  0.00000000000E+00  0.00000000000E+00  0.70929211273E+03  0.70929211274E+03  0.50400000000E-02 0.  1.
         -1   -1    0    0    0  501 -0.00000000000E+00 -0.00000000000E+00 -0.44384118753E+03  0.44384118755E+03  0.50400000000E-02 0. -1.
    5000001    1    1    2    0    0 -0.43894375163E+03 -0.26194558305E+03  0.81941922217E-01  0.54603215316E+03  0.19200000000E+03 0.  0.
   -5000001    1    1    2    0    0  0.43894375163E+03  0.26194558305E+03  0.26536898328E+03  0.60710114714E+03  0.19200000000E+03 0.  0.
<mgrwt>
<rscale>  0 0.11221641E+04</rscale>
<asrwt>0</asrwt>
<pdfrwt beam="1">  1        1 0.10132744E+00 0.11221641E+04</pdfrwt>
<pdfrwt beam="2">  1       -1 0.63405885E-01 0.11221641E+04</pdfrwt>
<totfact> 0.75043665E+01</totfact>
</mgrwt>
</event>
<event>
 4    1  0.7145298E-006  0.1265499E+04  0.7818608E-02  0.9057381E-01
         -1   -1    0    0    0  501 -0.00000000000E+00  0.00000000000E+00  0.18609162376E+03  0.18609162383E+03  0.50400000000E-02 0. -1.
          1   -1    0    0  501    0  0.00000000000E+00 -0.00000000000E+00 -0.21514785392E+04  0.21514785392E+04  0.50400000000E-02 0.  1.
    5000001    1    1    2    0    0  0.53605201027E+03  0.11321610608E+03 -0.14475688868E+04  0.15596439743E+04  0.19200000000E+03 0.  0.
   -5000001    1    1    2    0    0 -0.53605201027E+03 -0.11321610608E+03 -0.51781802860E+03  0.77792618874E+03  0.19200000000E+03 0.  0.
<mgrwt>
<rscale>  0 0.12654993E+04</rscale>
<asrwt>0</asrwt>
<pdfrwt beam="1">  1        1 0.30735406E+00 0.12654993E+04</pdfrwt>
<pdfrwt beam="2">  1       -1 0.26584519E-01 0.12654993E+04</pdfrwt>
<totfact> 0.37177358E+01</totfact>
</mgrwt>
</event>
<event>
 4    1  0.7145298E-006  0.5857109E+03  0.7818608E-02  0.9935503E-01
         -1   -1    0    0    0  501 -0.00000000000E+00  0.00000000000E+00  0.67979829080E+02  0.67979829267E+02  0.50400000000E-02 0.  1.
          1   -1    0    0  501    0  0.00000000000E+00 -0.00000000000E+00 -0.12616143211E+04  0.12616143211E+04  0.50400000000E-02 0. -1.
    5000001    1    1    2    0    0  0.14413666590E+03 -0.51255603581E+02 -0.23433461064E+03  0.33938064927E+03  0.19200000000E+03 0.  0.
   -5000001    1    1    2    0    0 -0.14413666590E+03  0.51255603581E+02 -0.95929988141E+03  0.99021350114E+03  0.19200000000E+03 0.  0.
<mgrwt>
<rscale>  0 0.58571094E+03</rscale>
<asrwt>0</asrwt>
<pdfrwt beam="1">  1        1 0.18023060E+00 0.58571094E+03</pdfrwt>
<pdfrwt beam="2">  1       -1 0.97114050E-02 0.58571094E+03</pdfrwt>
<totfact> 0.75399192E+02</totfact>
</mgrwt>
</event>
<event>
 4    1  0.7145298E-006  0.5690264E+03  0.7818608E-02  0.9971835E-01
         -1   -1    0    0    0  501 -0.00000000000E+00  0.00000000000E+00  0.65347825455E+02  0.65347825649E+02  0.50400000000E-02 0. -1.
          1   -1    0    0  501    0  0.00000000000E+00 -0.00000000000E+00 -0.12387217731E+04  0.12387217731E+04  0.50400000000E-02 0.  1.
    5000001    1    1    2    0    0 -0.18302068721E+03  0.92376754571E+02 -0.69054517521E+03  0.74548418879E+03  0.19200000000E+03 0.  0.
   -5000001    1    1    2    0    0  0.18302068721E+03 -0.92376754571E+02 -0.48282877240E+03  0.55858540993E+03  0.19200000000E+03 0.  0.
<mgrwt>
<rscale>  0 0.56902645E+03</rscale>
<asrwt>0</asrwt>
<pdfrwt beam="1">  1        1 0.17696024E+00 0.56902645E+03</pdfrwt>
<pdfrwt beam="2">  1       -1 0.93354044E-02 0.56902645E+03</pdfrwt>
<totfact> 0.83188317E+02</totfact>
</mgrwt>
</event>
<event>
 4    1  0.7145298E-006  0.1124651E+04  0.7818608E-02  0.9181493E-01
          1   -1    0    0  501    0  0.00000000000E+00  0.00000000000E+00  0.10981406068E+04  0.10981406068E+04  0.50400000000E-02 0.  1.
         -1   -1    0    0    0  501 -0.00000000000E+00 -0.00000000000E+00 -0.28795041235E+03  0.28795041239E+03  0.50400000000E-02 0. -1.
    5000001    1    1    2    0    0  0.35477939537E+03  0.37732355436E+03  0.53496979079E+03  0.76895914138E+03  0.19200000000E+03 0.  0.
   -5000001    1    1    2    0    0 -0.35477939537E+03 -0.37732355436E+03  0.27522040368E+03  0.61713187785E+03  0.19200000000E+03 0.  0.
<mgrwt>
<rscale>  0 0.11246511E+04</rscale>
<asrwt>0</asrwt>
<pdfrwt beam="1">  1        1 0.15687723E+00 0.11246511E+04</pdfrwt>
<pdfrwt beam="2">  1       -1 0.41135773E-01 0.11246511E+04</pdfrwt>
<totfact> 0.84032585E+01</totfact>
</mgrwt>
</event>
<event>
 4    1  0.7145298E-006  0.5541144E+03  0.7818608E-02  0.1000546E+00
          1   -1    0    0  501    0  0.00000000000E+00  0.00000000000E+00  0.29842962730E+03  0.29842962735E+03  0.50400000000E-02 0.  1.
         -1   -1    0    0    0  501 -0.00000000000E+00 -0.00000000000E+00 -0.25721539740E+03  0.25721539745E+03  0.50400000000E-02 0. -1.
    5000001    1    1    2    0    0 -0.58160994718E+02  0.18409394370E+03  0.71967868120E+02  0.28163212788E+03  0.19200000000E+03 0.  0.
   -5000001    1    1    2    0    0  0.58160994718E+02 -0.18409394370E+03 -0.30753638213E+02  0.27401289691E+03  0.19200000000E+03 0.  0.
<mgrwt>
<rscale>  0 0.55411441E+03</rscale>
<asrwt>0</asrwt>
<pdfrwt beam="1">  1        1 0.42632804E-01 0.55411441E+03</pdfrwt>
<pdfrwt beam="2">  1       -1 0.36745057E-01 0.55411441E+03</pdfrwt>
<totfact> 0.69605190E+02</totfact>
</mgrwt>
</event>
<event>
 4    1  0.7145298E-006  0.9654159E+03  0.7818608E-02  0.9347311E-01
         -1   -1    0    0    0  501 -0.00000000000E+00  0.00000000000E+00  0.18718131515E+03  0.18718131522E+03  0.50400000000E-02 0.  1.
          1   -1    0    0  501    0  0.00000000000E+00 -0.00000000000E+00 -0.12448194712E+04  0.12448194712E+04  0.50400000000E-02 0. -1.
    5000001    1    1    2    0    0  0.18265957660E+03 -0.34402929713E+03 -0.84144802596E+03  0.94689992005E+03  0.19200000000E+03 0.  0.
   -5000001    1    1    2    0    0 -0.18265957660E+03  0.34402929713E+03 -0.21619013010E+03  0.48510086638E+03  0.19200000000E+03 0.  0.
<mgrwt>
<rscale>  0 0.96541586E+03</rscale>
<asrwt>0</asrwt>
<pdfrwt beam="1">  1        1 0.17783135E+00 0.96541586E+03</pdfrwt>
<pdfrwt beam="2">  1       -1 0.26740189E-01 0.96541586E+03</pdfrwt>
<totfact> 0.14397389E+02</totfact>
</mgrwt>
</event>
<event>
 4    1  0.7145298E-006  0.4317943E+03  0.7818608E-02  0.1033295E+00
          1   -1    0    0  501    0  0.00000000000E+00  0.00000000000E+00  0.27436629078E+03  0.27436629083E+03  0.50400000000E-02 0.  1.
         -1   -1    0    0    0  501 -0.00000000000E+00 -0.00000000000E+00 -0.16988817258E+03  0.16988817266E+03  0.50400000000E-02 0. -1.
    5000001    1    1    2    0    0 -0.77123405776E+02  0.80038253397E+00 -0.11174971214E+02  0.20721375512E+03  0.19200000000E+03 0.  0.
   -5000001    1    1    2    0    0  0.77123405776E+02 -0.80038253397E+00  0.11565308941E+03  0.23704070836E+03  0.19200000000E+03 0.  0.
<mgrwt>
<rscale>  0 0.43179434E+03</rscale>
<asrwt>0</asrwt>
<pdfrwt beam="1">  1        1 0.39195185E-01 0.43179434E+03</pdfrwt>
<pdfrwt beam="2">  1       -1 0.24269739E-01 0.43179434E+03</pdfrwt>
<totfact> 0.15871782E+03</totfact>
</mgrwt>
</event>
<event>
 4    1  0.7145298E-006  0.7173884E+03  0.7818608E-02  0.9687949E-01
          1   -1    0    0  501    0  0.00000000000E+00  0.00000000000E+00  0.11906537519E+04  0.11906537519E+04  0.50400000000E-02 0. -1.
         -1   -1    0    0    0  501 -0.00000000000E+00 -0.00000000000E+00 -0.10805956657E+03  0.10805956669E+03  0.50400000000E-02 0.  1.
    5000001    1    1    2    0    0  0.58384964313E+02 -0.28437780404E+03  0.38432957608E+03  0.51851013736E+03  0.19200000000E+03 0.  0.
   -5000001    1    1    2    0    0 -0.58384964313E+02  0.28437780404E+03  0.69826460924E+03  0.78020318123E+03  0.19200000000E+03 0.  0.
<mgrwt>
<rscale>  0 0.71738840E+03</rscale>
<asrwt>0</asrwt>
<pdfrwt beam="1">  1        1 0.17009339E+00 0.71738840E+03</pdfrwt>
<pdfrwt beam="2">  1       -1 0.15437081E-01 0.71738840E+03</pdfrwt>
<totfact> 0.39899399E+02</totfact>
</mgrwt>
</event>
<event>
 4    1  0.7145298E-006  0.5553246E+03  0.7818608E-02  0.1000269E+00
          1   -1    0    0  501    0  0.00000000000E+00  0.00000000000E+00  0.15821604732E+03  0.15821604740E+03  0.50400000000E-02 0. -1.
         -1   -1    0    0    0  501 -0.00000000000E+00 -0.00000000000E+00 -0.48728529152E+03  0.48728529155E+03  0.50400000000E-02 0.  1.
    5000001    1    1    2    0    0  0.19044806754E+03 -0.48150432825E+02 -0.21165674039E+03  0.34677298967E+03  0.19200000000E+03 0.  0.
   -5000001    1    1    2    0    0 -0.19044806754E+03  0.48150432825E+02 -0.11741250381E+03  0.29872834928E+03  0.19200000000E+03 0.  0.
<mgrwt>
<rscale>  0 0.55532460E+03</rscale>
<asrwt>0</asrwt>
<pdfrwt beam="1">  1        1 0.22602293E-01 0.55532460E+03</pdfrwt>
<pdfrwt beam="2">  1       -1 0.69612184E-01 0.55532460E+03</pdfrwt>
<totfact> 0.47100204E+02</totfact>
</mgrwt>
</event>
<event>
 4    1  0.7145298E-006  0.5124652E+03  0.7818608E-02  0.1010576E+00
          1   -1    0    0  501    0  0.00000000000E+00  0.00000000000E+00  0.11748739414E+04  0.11748739414E+04  0.50400000000E-02 0. -1.
         -1   -1    0    0    0  501 -0.00000000000E+00 -0.00000000000E+00 -0.55882714176E+02  0.55882714403E+02  0.50400000000E-02 0.  1.
    5000001    1    1    2    0    0 -0.35483033498E+02 -0.89292000938E+02  0.89537361292E+03  0.92075513239E+03  0.19200000000E+03 0.  0.
   -5000001    1    1    2    0    0  0.35483033498E+02  0.89292000938E+02  0.22361761428E+03  0.31000152340E+03  0.19200000000E+03 0.  0.
<mgrwt>
<rscale>  0 0.51246520E+03</rscale>
<asrwt>0</asrwt>
<pdfrwt beam="1">  1        1 0.16783913E+00 0.51246520E+03</pdfrwt>
<pdfrwt beam="2">  1       -1 0.79832452E-02 0.51246520E+03</pdfrwt>
<totfact> 0.11763394E+03</totfact>
</mgrwt>
</event>
<event>
 4    1  0.7145298E-006  0.7321544E+03  0.7818608E-02  0.9663771E-01
          1   -1    0    0  501    0  0.00000000000E+00  0.00000000000E+00  0.23734722806E+04  0.23734722806E+04  0.50400000000E-02 0.  1.
         -1   -1    0    0    0  501 -0.00000000000E+00 -0.00000000000E+00 -0.56462649561E+02  0.56462649786E+02  0.50400000000E-02 0. -1.
    5000001    1    1    2    0    0 -0.18342663392E+03 -0.15808678537E+03  0.18098162321E+04  0.18360107722E+04  0.19200000000E+03 0.  0.
   -5000001    1    1    2    0    0  0.18342663392E+03  0.15808678537E+03  0.50719339897E+03  0.59392415820E+03  0.19200000000E+03 0.  0.
<mgrwt>
<rscale>  0 0.73215445E+03</rscale>
<asrwt>0</asrwt>
<pdfrwt beam="1">  1        1 0.33906738E+00 0.73215445E+03</pdfrwt>
<pdfrwt beam="2">  1       -1 0.80660948E-02 0.73215445E+03</pdfrwt>
<totfact> 0.19858608E+02</totfact>
</mgrwt>
</event>
<event>
 4    1  0.7145298E-006  0.7069125E+03  0.7818608E-02  0.9705483E-01
         -1   -1    0    0    0  501 -0.00000000000E+00  0.00000000000E+00  0.13217327867E+04  0.13217327867E+04  0.50400000000E-02 0. -1.
          1   -1    0    0  501    0  0.00000000000E+00 -0.00000000000E+00 -0.94520869644E+02  0.94520869778E+02  0.50400000000E-02 0.  1.
    5000001    1    1    2    0    0  0.62723462354E+02 -0.26327689798E+03  0.36972625979E+03  0.49680022636E+03  0.19200000000E+03 0.  0.
   -5000001    1    1    2    0    0 -0.62723462354E+02  0.26327689798E+03  0.85748565726E+03  0.91945343012E+03  0.19200000000E+03 0.  0.
<mgrwt>
<rscale>  0 0.70691253E+03</rscale>
<asrwt>0</asrwt>
<pdfrwt beam="1">  1        1 0.13502982E-01 0.70691253E+03</pdfrwt>
<pdfrwt beam="2">  1       -1 0.18881896E+00 0.70691253E+03</pdfrwt>
<totfact> 0.82000294E+01</totfact>
</mgrwt>
</event>
<event>
 4    1  0.7145298E-006  0.5182296E+03  0.7818608E-02  0.1009127E+00
         -1   -1    0    0    0  501 -0.00000000000E+00  0.00000000000E+00  0.54501955293E+02  0.54501955526E+02  0.50400000000E-02 0. -1.
          1   -1    0    0  501    0  0.00000000000E+00 -0.00000000000E+00 -0.12318912584E+04  0.12318912585E+04  0.50400000000E-02 0.  1.
    5000001    1    1    2    0    0 -0.10039412357E+03 -0.13049069965E+03 -0.72844702931E+03  0.77110691688E+03  0.19200000000E+03 0.  0.
   -5000001    1    1    2    0    0  0.10039412357E+03  0.13049069965E+03 -0.44894227384E+03  0.51528629710E+03  0.19200000000E+03 0.  0.
<mgrwt>
<rscale>  0 0.51822961E+03</rscale>
<asrwt>0</asrwt>
<pdfrwt beam="1">  1        1 0.17598445E+00 0.51822961E+03</pdfrwt>
<pdfrwt beam="2">  1       -1 0.77859944E-02 0.51822961E+03</pdfrwt>
<totfact> 0.11181519E+03</totfact>
</mgrwt>
</event>
<event>
 4    1  0.7145298E-006  0.7945911E+03  0.7818608E-02  0.9567879E-01
          1   -1    0    0  501    0  0.00000000000E+00  0.00000000000E+00  0.57527091680E+03  0.57527091683E+03  0.50400000000E-02 0. -1.
         -1   -1    0    0    0  501 -0.00000000000E+00 -0.00000000000E+00 -0.27438159309E+03  0.27438159314E+03  0.50400000000E-02 0.  1.
    5000001    1    1    2    0    0 -0.34159671831E+03 -0.24895342850E+02  0.21523773241E+03  0.44777156845E+03  0.19200000000E+03 0.  0.
   -5000001    1    1    2    0    0  0.34159671831E+03  0.24895342850E+02  0.85651591298E+02  0.40188094151E+03  0.19200000000E+03 0.  0.
<mgrwt>
<rscale>  0 0.79459109E+03</rscale>
<asrwt>0</asrwt>
<pdfrwt beam="1">  1        1 0.82181559E-01 0.79459109E+03</pdfrwt>
<pdfrwt beam="2">  1       -1 0.39197371E-01 0.79459109E+03</pdfrwt>
<totfact> 0.25794685E+02</totfact>
</mgrwt>
</event>
<event>
 4    1  0.7145298E-006  0.5050269E+03  0.7818608E-02  0.1012475E+00
          1   -1    0    0  501    0  0.00000000000E+00  0.00000000000E+00  0.97656897682E+03  0.97656897684E+03  0.50400000000E-02 0.  1.
         -1   -1    0    0    0  501 -0.00000000000E+00 -0.00000000000E+00 -0.65292934279E+02  0.65292934473E+02  0.50400000000E-02 0. -1.
    5000001    1    1    2    0    0 -0.11727331172E+03 -0.15583554711E+02  0.68997668161E+03  0.72589785644E+03  0.19200000000E+03 0.  0.
   -5000001    1    1    2    0    0  0.11727331172E+03  0.15583554711E+02  0.22129936093E+03  0.31596405486E+03  0.19200000000E+03 0.  0.
<mgrwt>
<rscale>  0 0.50502695E+03</rscale>
<asrwt>0</asrwt>
<pdfrwt beam="1">  1        1 0.13950985E+00 0.50502695E+03</pdfrwt>
<pdfrwt beam="2">  1       -1 0.93275622E-02 0.50502695E+03</pdfrwt>
<totfact> 0.12781091E+03</totfact>
</mgrwt>
</event>
<event>
 4    1  0.7145298E-006  0.5772904E+03  0.7818608E-02  0.9953675E-01
         -1   -1    0    0    0  501 -0.00000000000E+00  0.00000000000E+00  0.98542620864E+02  0.98542620993E+02  0.50400000000E-02 0. -1.
          1   -1    0    0  501    0  0.00000000000E+00 -0.00000000000E+00 -0.84548230087E+03  0.84548230088E+03  0.50400000000E-02 0.  1.
    5000001    1    1    2    0    0  0.17964261829E+03  0.11890305362E+03 -0.38414745939E+03  0.48046090062E+03  0.19200000000E+03 0.  0.
   -5000001    1    1    2    0    0 -0.17964261829E+03 -0.11890305362E+03 -0.36279222062E+03  0.46356402126E+03  0.19200000000E+03 0.  0.
<mgrwt>
<rscale>  0 0.57729037E+03</rscale>
<asrwt>0</asrwt>
<pdfrwt beam="1">  1        1 0.12078318E+00 0.57729037E+03</pdfrwt>
<pdfrwt beam="2">  1       -1 0.14077518E-01 0.57729037E+03</pdfrwt>
<totfact> 0.83849719E+02</totfact>
</mgrwt>
</event>
<event>
 4    1  0.7145298E-006  0.1146881E+04  0.7818608E-02  0.9160666E-01
         -1   -1    0    0    0  501 -0.00000000000E+00  0.00000000000E+00  0.95042118814E+03  0.95042118815E+03  0.50400000000E-02 0. -1.
          1   -1    0    0  501    0  0.00000000000E+00 -0.00000000000E+00 -0.34598783623E+03  0.34598783626E+03  0.50400000000E-02 0.  1.
    5000001    1    1    2    0    0  0.31135282121E+03 -0.43860306299E+03  0.36048262207E+03  0.67537022954E+03  0.19200000000E+03 0.  0.
   -5000001    1    1    2    0    0 -0.31135282121E+03  0.43860306299E+03  0.24395072984E+03  0.62103879487E+03  0.19200000000E+03 0.  0.
<mgrwt>
<rscale>  0 0.11468813E+04</rscale>
<asrwt>0</asrwt>
<pdfrwt beam="1">  1        1 0.49426834E-01 0.11468813E+04</pdfrwt>
<pdfrwt beam="2">  1       -1 0.13577445E+00 0.11468813E+04</pdfrwt>
<totfact> 0.36171511E+01</totfact>
</mgrwt>
</event>
<event>
 4    1  0.7145298E-006  0.5261303E+03  0.7818608E-02  0.1007175E+00
          1   -1    0    0  501    0  0.00000000000E+00  0.00000000000E+00  0.27618324930E+03  0.27618324934E+03  0.50400000000E-02 0.  1.
         -1   -1    0    0    0  501 -0.00000000000E+00 -0.00000000000E+00 -0.25057013249E+03  0.25057013254E+03  0.50400000000E-02 0. -1.
    5000001    1    1    2    0    0  0.15391662963E+03 -0.83618095311E+02 -0.27947405282E+02  0.26139505007E+03  0.19200000000E+03 0.  0.
   -5000001    1    1    2    0    0 -0.15391662963E+03  0.83618095311E+02  0.53560522085E+02  0.26535833182E+03  0.19200000000E+03 0.  0.
<mgrwt>
<rscale>  0 0.52613030E+03</rscale>
<asrwt>0</asrwt>
<pdfrwt beam="1">  1        1 0.39454750E-01 0.52613030E+03</pdfrwt>
<pdfrwt beam="2">  1       -1 0.35795733E-01 0.52613030E+03</pdfrwt>
<totfact> 0.80568876E+02</totfact>
</mgrwt>
</event>
<event>
 4    1  0.7145298E-006  0.4037276E+03  0.7818608E-02  0.1042497E+00
          1   -1    0    0  501    0  0.00000000000E+00  0.00000000000E+00  0.13229402506E+03  0.13229402516E+03  0.50400000000E-02 0.  1.
         -1   -1    0    0    0  501 -0.00000000000E+00 -0.00000000000E+00 -0.30801839212E+03  0.30801839216E+03  0.50400000000E-02 0. -1.
    5000001    1    1    2    0    0  0.36260853543E+02 -0.50530905554E+02 -0.83395841443E+02  0.21837373534E+03  0.19200000000E+03 0.  0.
   -5000001    1    1    2    0    0 -0.36260853543E+02  0.50530905554E+02 -0.92328525617E+02  0.22193868198E+03  0.19200000000E+03 0.  0.
<mgrwt>
<rscale>  0 0.40372760E+03</rscale>
<asrwt>0</asrwt>
<pdfrwt beam="1">  1        1 0.18899147E-01 0.40372760E+03</pdfrwt>
<pdfrwt beam="2">  1       -1 0.44002627E-01 0.40372760E+03</pdfrwt>
<totfact> 0.14369589E+03</totfact>
</mgrwt>
</event>
<event>
 4    1  0.7145298E-006  0.4751860E+03  0.7818608E-02  0.1020467E+00
          1   -1    0    0  501    0  0.00000000000E+00  0.00000000000E+00  0.25635863434E+04  0.25635863434E+04  0.50400000000E-02 0.  1.
         -1   -1    0    0    0  501 -0.00000000000E+00 -0.00000000000E+00 -0.22020102352E+02  0.22020102929E+02  0.50400000000E-02 0. -1.
    5000001    1    1    2    0    0 -0.92365341706E+02  0.10513684626E+03  0.12770385039E+04  0.12989520596E+04  0.19200000000E+03 0.  0.
   -5000001    1    1    2    0    0  0.92365341706E+02 -0.10513684626E+03  0.12645277371E+04  0.12866543867E+04  0.19200000000E+03 0.  0.
<mgrwt>
<rscale>  0 0.47518600E+03</rscale>
<asrwt>0</asrwt>
<pdfrwt beam="1">  1        1 0.36622681E+00 0.47518600E+03</pdfrwt>
<pdfrwt beam="2">  1       -1 0.31457273E-02 0.47518600E+03</pdfrwt>
<totfact> 0.65394225E+02</totfact>
</mgrwt>
</event>
<event>
 4    1  0.7145298E-006  0.1172755E+04  0.7818608E-02  0.9137044E-01
          1   -1    0    0  501    0  0.00000000000E+00  0.00000000000E+00  0.83180131184E+03  0.83180131185E+03  0.50400000000E-02 0. -1.
         -1   -1    0    0    0  501 -0.00000000000E+00 -0.00000000000E+00 -0.41336608377E+03  0.41336608380E+03  0.50400000000E-02 0.  1.
    5000001    1    1    2    0    0  0.49213785608E+03  0.23704792102E+03  0.11085236112E+03  0.58952831332E+03  0.19200000000E+03 0.  0.
   -5000001    1    1    2    0    0 -0.49213785608E+03 -0.23704792102E+03  0.30758286695E+03  0.65563908233E+03  0.19200000000E+03 0.  0.
<mgrwt>
<rscale>  0 0.11727548E+04</rscale>
<asrwt>0</asrwt>
<pdfrwt beam="1">  1        1 0.11882876E+00 0.11727548E+04</pdfrwt>
<pdfrwt beam="2">  1       -1 0.59052297E-01 0.11727548E+04</pdfrwt>
<totfact> 0.67472374E+01</totfact>
</mgrwt>
</event>
<event>
 4    1  0.7145298E-006  0.4547634E+03  0.7818608E-02  0.1026311E+00
         -1   -1    0    0    0  501 -0.00000000000E+00  0.00000000000E+00  0.39268222576E+03  0.39268222579E+03  0.50400000000E-02 0.  1.
          1   -1    0    0  501    0  0.00000000000E+00 -0.00000000000E+00 -0.13166481311E+03  0.13166481321E+03  0.50400000000E-02 0. -1.
    5000001    1    1    2    0    0  0.71183149151E+02 -0.96015385607E+02  0.10340837003E+03  0.24868310355E+03  0.19200000000E+03 0.  0.
   -5000001    1    1    2    0    0 -0.71183149151E+02  0.96015385607E+02  0.15760904261E+03  0.27566393545E+03  0.19200000000E+03 0.  0.
<mgrwt>
<rscale>  0 0.45476338E+03</rscale>
<asrwt>0</asrwt>
<pdfrwt beam="1">  1        1 0.18809259E-01 0.45476338E+03</pdfrwt>
<pdfrwt beam="2">  1       -1 0.56097460E-01 0.45476338E+03</pdfrwt>
<totfact> 0.91875321E+02</totfact>
</mgrwt>
</event>
<event>
 4    1  0.7145298E-006  0.7711431E+03  0.7818608E-02  0.9602752E-01
         -1   -1    0    0    0  501 -0.00000000000E+00  0.00000000000E+00  0.89840252666E+03  0.89840252668E+03  0.50400000000E-02 0. -1.
          1   -1    0    0  501    0  0.00000000000E+00 -0.00000000000E+00 -0.16547753542E+03  0.16547753549E+03  0.50400000000E-02 0.  1.
    5000001    1    1    2    0    0 -0.11858746999E+03 -0.27869408288E+03  0.56190108673E+03  0.66658098618E+03  0.19200000000E+03 0.  0.
   -5000001    1    1    2    0    0  0.11858746999E+03  0.27869408288E+03  0.17102390452E+03  0.39729907599E+03  0.19200000000E+03 0.  0.
<mgrwt>
<rscale>  0 0.77114314E+03</rscale>
<asrwt>0</asrwt>
<pdfrwt beam="1">  1        1 0.23639647E-01 0.77114314E+03</pdfrwt>
<pdfrwt beam="2">  1       -1 0.12834322E+00 0.77114314E+03</pdfrwt>
<totfact> 0.11166541E+02</totfact>
</mgrwt>
</event>
<event>
 4    1  0.7145298E-006  0.4953704E+03  0.7818608E-02  0.1014994E+00
         -1   -1    0    0    0  501 -0.00000000000E+00  0.00000000000E+00  0.75004940162E+02  0.75004940331E+02  0.50400000000E-02 0. -1.
          1   -1    0    0  501    0  0.00000000000E+00 -0.00000000000E+00 -0.81791881035E+03  0.81791881037E+03  0.50400000000E-02 0.  1.
    5000001    1    1    2    0    0  0.52084782308E+02  0.14655318808E+03 -0.34058719363E+03  0.42077820517E+03  0.19200000000E+03 0.  0.
   -5000001    1    1    2    0    0 -0.52084782308E+02 -0.14655318808E+03 -0.40232667657E+03  0.47214554553E+03  0.19200000000E+03 0.  0.
<mgrwt>
<rscale>  0 0.49537037E+03</rscale>
<asrwt>0</asrwt>
<pdfrwt beam="1">  1        1 0.11684554E+00 0.49537037E+03</pdfrwt>
<pdfrwt beam="2">  1       -1 0.10714992E-01 0.49537037E+03</pdfrwt>
<totfact> 0.13659476E+03</totfact>
</mgrwt>
</event>
<event>
 4    1  0.7145298E-006  0.4430152E+03  0.7818608E-02  0.1029826E+00
         -1   -1    0    0    0  501 -0.00000000000E+00  0.00000000000E+00  0.73426916795E+02  0.73426916968E+02  0.50400000000E-02 0.  1.
          1   -1    0    0  501    0  0.00000000000E+00 -0.00000000000E+00 -0.66822371562E+03  0.66822371564E+03  0.50400000000E-02 0. -1.
    5000001    1    1    2    0    0 -0.88842508935E+02 -0.65075550363E+02 -0.28301785286E+03  0.35929225387E+03  0.19200000000E+03 0.  0.
   -5000001    1    1    2    0    0  0.88842508935E+02  0.65075550363E+02 -0.31177894596E+03  0.38235837874E+03  0.19200000000E+03 0.  0.
<mgrwt>
<rscale>  0 0.44301516E+03</rscale>
<asrwt>0</asrwt>
<pdfrwt beam="1">  1        1 0.95460527E-01 0.44301516E+03</pdfrwt>
<pdfrwt beam="2">  1       -1 0.10489560E-01 0.44301516E+03</pdfrwt>
<totfact> 0.19054595E+03</totfact>
</mgrwt>
</event>
<event>
 4    1  0.7145298E-006  0.4718881E+03  0.7818608E-02  0.1021389E+00
         -1   -1    0    0    0  501 -0.00000000000E+00  0.00000000000E+00  0.30252163319E+02  0.30252163739E+02  0.50400000000E-02 0.  1.
          1   -1    0    0  501    0  0.00000000000E+00 -0.00000000000E+00 -0.18401858897E+04  0.18401858897E+04  0.50400000000E-02 0. -1.
    5000001    1    1    2    0    0  0.56824069855E+01 -0.95073196196E+02 -0.51389289642E+03  0.55679539453E+03  0.19200000000E+03 0.  0.
   -5000001    1    1    2    0    0 -0.56824069855E+01  0.95073196196E+02 -0.12960408300E+04  0.13136426589E+04  0.19200000000E+03 0.  0.
<mgrwt>
<rscale>  0 0.47188814E+03</rscale>
<asrwt>0</asrwt>
<pdfrwt beam="1">  1        1 0.26288363E+00 0.47188814E+03</pdfrwt>
<pdfrwt beam="2">  1       -1 0.43217388E-02 0.47188814E+03</pdfrwt>
<totfact> 0.11295308E+03</totfact>
</mgrwt>
</event>
<event>
 4    1  0.7145298E-006  0.6620890E+03  0.7818608E-02  0.9784356E-01
         -1   -1    0    0    0  501 -0.00000000000E+00  0.00000000000E+00  0.10867499333E+03  0.10867499345E+03  0.50400000000E-02 0.  1.
          1   -1    0    0  501    0  0.00000000000E+00 -0.00000000000E+00 -0.10084237697E+04  0.10084237697E+04  0.50400000000E-02 0. -1.
    5000001    1    1    2    0    0 -0.17853093050E+02 -0.26026276627E+03 -0.33456081142E+03  0.46567196284E+03  0.19200000000E+03 0.  0.
   -5000001    1    1    2    0    0  0.17853093050E+02  0.26026276627E+03 -0.56518796490E+03  0.65142680027E+03  0.19200000000E+03 0.  0.
<mgrwt>
<rscale>  0 0.66208896E+03</rscale>
<asrwt>0</asrwt>
<pdfrwt beam="1">  1        1 0.14406053E+00 0.66208896E+03</pdfrwt>
<pdfrwt beam="2">  1       -1 0.15525000E-01 0.66208896E+03</pdfrwt>
<totfact> 0.53451239E+02</totfact>
</mgrwt>
</event>
<event>
 4    1  0.7145298E-006  0.8851683E+03  0.7818608E-02  0.9444314E-01
          1   -1    0    0  501    0  0.00000000000E+00  0.00000000000E+00  0.12578243197E+04  0.12578243197E+04  0.50400000000E-02 0.  1.
         -1   -1    0    0    0  501 -0.00000000000E+00 -0.00000000000E+00 -0.15572980221E+03  0.15572980229E+03  0.50400000000E-02 0. -1.
    5000001    1    1    2    0    0 -0.23182178312E+03  0.16810223579E+03  0.99422707633E+03  0.10523075502E+04  0.19200000000E+03 0.  0.
   -5000001    1    1    2    0    0  0.23182178312E+03 -0.16810223579E+03  0.10786744115E+03  0.36124657184E+03  0.19200000000E+03 0.  0.
<mgrwt>
<rscale>  0 0.88516831E+03</rscale>
<asrwt>0</asrwt>
<pdfrwt beam="1">  1        1 0.17968919E+00 0.88516831E+03</pdfrwt>
<pdfrwt beam="2">  1       -1 0.22247115E-01 0.88516831E+03</pdfrwt>
<totfact> 0.19400450E+02</totfact>
</mgrwt>
</event>
<event>
 4    1  0.7145298E-006  0.7872697E+03  0.7818608E-02  0.9578629E-01
          1   -1    0    0  501    0  0.00000000000E+00  0.00000000000E+00  0.10575036440E+04  0.10575036441E+04  0.50400000000E-02 0.  1.
         -1   -1    0    0    0  501 -0.00000000000E+00 -0.00000000000E+00 -0.14652278618E+03  0.14652278627E+03  0.50400000000E-02 0. -1.
    5000001    1    1    2    0    0  0.27921442123E+03 -0.19993013921E+03  0.43665825417E+03  0.58776456556E+03  0.19200000000E+03 0.  0.
   -5000001    1    1    2    0    0 -0.27921442123E+03  0.19993013921E+03  0.47432260370E+03  0.61626186477E+03  0.19200000000E+03 0.  0.
<mgrwt>
<rscale>  0 0.78726966E+03</rscale>
<asrwt>0</asrwt>
<pdfrwt beam="1">  1        1 0.15107196E+00 0.78726966E+03</pdfrwt>
<pdfrwt beam="2">  1       -1 0.20931825E-01 0.78726966E+03</pdfrwt>
<totfact> 0.29875398E+02</totfact>
</mgrwt>
</event>
<event>
 4    1  0.7145298E-006  0.5074885E+03  0.7818608E-02  0.1011843E+00
          1   -1    0    0  501    0  0.00000000000E+00  0.00000000000E+00  0.11975684663E+03  0.11975684674E+03  0.50400000000E-02 0.  1.
         -1   -1    0    0    0  501 -0.00000000000E+00 -0.00000000000E+00 -0.53764058711E+03  0.53764058714E+03  0.50400000000E-02 0. -1.
    5000001    1    1    2    0    0 -0.88284266252E+02  0.74465237146E+02 -0.36321319907E+03  0.42676341360E+03  0.19200000000E+03 0.  0.
   -5000001    1    1    2    0    0  0.88284266252E+02 -0.74465237146E+02 -0.54670541411E+02  0.23063402028E+03  0.19200000000E+03 0.  0.
<mgrwt>
<rscale>  0 0.50748849E+03</rscale>
<asrwt>0</asrwt>
<pdfrwt beam="1">  1        1 0.17108121E-01 0.50748849E+03</pdfrwt>
<pdfrwt beam="2">  1       -1 0.76805797E-01 0.50748849E+03</pdfrwt>
<totfact> 0.55581912E+02</totfact>
</mgrwt>
</event>
<event>
 4    1  0.7145298E-006  0.5014136E+03  0.7818608E-02  0.1013411E+00
          1   -1    0    0  501    0  0.00000000000E+00  0.00000000000E+00  0.34495495058E+03  0.34495495062E+03  0.50400000000E-02 0. -1.
         -1   -1    0    0    0  501 -0.00000000000E+00 -0.00000000000E+00 -0.18220903621E+03  0.18220903628E+03  0.50400000000E-02 0.  1.
    5000001    1    1    2    0    0 -0.68082942993E+02 -0.14312860898E+03  0.50383403955E+02  0.25401490749E+03  0.19200000000E+03 0.  0.
   -5000001    1    1    2    0    0  0.68082942993E+02  0.14312860898E+03  0.11236251042E+03  0.27314907941E+03  0.19200000000E+03 0.  0.
<mgrwt>
<rscale>  0 0.50141364E+03</rscale>
<asrwt>0</asrwt>
<pdfrwt beam="1">  1        1 0.49279278E-01 0.50141364E+03</pdfrwt>
<pdfrwt beam="2">  1       -1 0.26029863E-01 0.50141364E+03</pdfrwt>
<totfact> 0.10526935E+03</totfact>
</mgrwt>
</event>
<event>
 4    1  0.7145298E-006  0.4773383E+03  0.7818608E-02  0.1019869E+00
          1   -1    0    0  501    0  0.00000000000E+00  0.00000000000E+00  0.13091431760E+03  0.13091431770E+03  0.50400000000E-02 0. -1.
         -1   -1    0    0    0  501 -0.00000000000E+00 -0.00000000000E+00 -0.43511634449E+03  0.43511634452E+03  0.50400000000E-02 0.  1.
    5000001    1    1    2    0    0 -0.13191065439E+03 -0.50905250125E+02 -0.13982381789E+03  0.27641719426E+03  0.19200000000E+03 0.  0.
   -5000001    1    1    2    0    0  0.13191065439E+03  0.50905250125E+02 -0.16437820899E+03  0.28961346796E+03  0.19200000000E+03 0.  0.
<mgrwt>
<rscale>  0 0.47733828E+03</rscale>
<asrwt>0</asrwt>
<pdfrwt beam="1">  1        1 0.18702046E-01 0.47733828E+03</pdfrwt>
<pdfrwt beam="2">  1       -1 0.62159477E-01 0.47733828E+03</pdfrwt>
<totfact> 0.75825814E+02</totfact>
</mgrwt>
</event>
<event>
 4    1  0.7145298E-006  0.6454824E+03  0.7818608E-02  0.9815293E-01
         -1   -1    0    0    0  501 -0.00000000000E+00  0.00000000000E+00  0.21220356510E+03  0.21220356516E+03  0.50400000000E-02 0. -1.
          1   -1    0    0  501    0  0.00000000000E+00 -0.00000000000E+00 -0.49085837875E+03  0.49085837878E+03  0.50400000000E-02 0.  1.
    5000001    1    1    2    0    0 -0.25099667279E+03 -0.45910616081E+02 -0.19030846987E+03  0.37173704164E+03  0.19200000000E+03 0.  0.
   -5000001    1    1    2    0    0  0.25099667279E+03  0.45910616081E+02 -0.88346343785E+02  0.33132490230E+03  0.19200000000E+03 0.  0.
<mgrwt>
<rscale>  0 0.64548245E+03</rscale>
<asrwt>0</asrwt>
<pdfrwt beam="1">  1        1 0.70122625E-01 0.64548245E+03</pdfrwt>
<pdfrwt beam="2">  1       -1 0.30314795E-01 0.64548245E+03</pdfrwt>
<totfact> 0.50872532E+02</totfact>
</mgrwt>
</event>
<event>
 4    1  0.7145298E-006  0.6709099E+03  0.7818608E-02  0.9768315E-01
         -1   -1    0    0    0  501 -0.00000000000E+00  0.00000000000E+00  0.38991203818E+03  0.38991203821E+03  0.50400000000E-02 0. -1.
          1   -1    0    0  501    0  0.00000000000E+00 -0.00000000000E+00 -0.28860360081E+03  0.28860360086E+03  0.50400000000E-02 0.  1.
    5000001    1    1    2    0    0  0.19324568760E+03  0.17848494669E+03 -0.30664065842E+02  0.32711627428E+03  0.19200000000E+03 0.  0.
   -5000001    1    1    2    0    0 -0.19324568760E+03 -0.17848494669E+03  0.13197250321E+03  0.35139936478E+03  0.19200000000E+03 0.  0.
<mgrwt>
<rscale>  0 0.67090988E+03</rscale>
<asrwt>0</asrwt>
<pdfrwt beam="1">  1        1 0.41229086E-01 0.67090988E+03</pdfrwt>
<pdfrwt beam="2">  1       -1 0.55701720E-01 0.67090988E+03</pdfrwt>
<totfact> 0.33518596E+02</totfact>
</mgrwt>
</event>
<event>
 4    1  0.7145298E-006  0.4905953E+03  0.7818608E-02  0.1016263E+00
         -1   -1    0    0    0  501 -0.00000000000E+00  0.00000000000E+00  0.11289122177E+03  0.11289122188E+03  0.50400000000E-02 0. -1.
          1   -1    0    0  501    0  0.00000000000E+00 -0.00000000000E+00 -0.53299930460E+03  0.53299930462E+03  0.50400000000E-02 0.  1.
    5000001    1    1    2    0    0 -0.55748454730E+02 -0.16434313011E+02 -0.24197482110E+02  0.20205814755E+03  0.19200000000E+03 0.  0.
   -5000001    1    1    2    0    0  0.55748454730E+02  0.16434313011E+02 -0.39591060072E+03  0.44383237896E+03  0.19200000000E+03 0.  0.
<mgrwt>
<rscale>  0 0.49059532E+03</rscale>
<asrwt>0</asrwt>
<pdfrwt beam="1">  1        1 0.76142757E-01 0.49059532E+03</pdfrwt>
<pdfrwt beam="2">  1       -1 0.16127318E-01 0.49059532E+03</pdfrwt>
<totfact> 0.13140413E+03</totfact>
</mgrwt>
</event>
<event>
 4    1  0.7145298E-006  0.4560280E+03  0.7818608E-02  0.1025940E+00
          1   -1    0    0  501    0  0.00000000000E+00  0.00000000000E+00  0.14832067883E+03  0.14832067891E+03  0.50400000000E-02 0. -1.
         -1   -1    0    0    0  501 -0.00000000000E+00 -0.00000000000E+00 -0.35052689575E+03  0.35052689578E+03  0.50400000000E-02 0.  1.
    5000001    1    1    2    0    0 -0.26434513882E+01  0.11892895860E+03 -0.66940900748E+02  0.23557624927E+03  0.19200000000E+03 0.  0.
   -5000001    1    1    2    0    0  0.26434513882E+01 -0.11892895860E+03 -0.13526531617E+03  0.26327132542E+03  0.19200000000E+03 0.  0.
<mgrwt>
<rscale>  0 0.45602801E+03</rscale>
<asrwt>0</asrwt>
<pdfrwt beam="1">  1        1 0.21188669E-01 0.45602801E+03</pdfrwt>
<pdfrwt beam="2">  1       -1 0.50075270E-01 0.45602801E+03</pdfrwt>
<totfact> 0.97490290E+02</totfact>
</mgrwt>
</event>
<event>
 4    1  0.7145298E-006  0.6918071E+03  0.7818608E-02  0.9731347E-01
         -1   -1    0    0    0  501 -0.00000000000E+00  0.00000000000E+00  0.97740759620E+02  0.97740759750E+02  0.50400000000E-02 0. -1.
          1   -1    0    0  501    0  0.00000000000E+00 -0.00000000000E+00 -0.12241491009E+04  0.12241491009E+04  0.50400000000E-02 0.  1.
    5000001    1    1    2    0    0  0.79629639764E+02 -0.26996817366E+03 -0.44917107092E+03  0.56377508393E+03  0.19200000000E+03 0.  0.
   -5000001    1    1    2    0    0 -0.79629639764E+02  0.26996817366E+03 -0.67723727033E+03  0.75811477669E+03  0.19200000000E+03 0.  0.
<mgrwt>
<rscale>  0 0.69180709E+03</rscale>
<asrwt>0</asrwt>
<pdfrwt beam="1">  1        1 0.17487843E+00 0.69180709E+03</pdfrwt>
<pdfrwt beam="2">  1       -1 0.13962966E-01 0.69180709E+03</pdfrwt>
<totfact> 0.44589574E+02</totfact>
</mgrwt>
</event>
<event>
 4    1  0.7145298E-006  0.4442610E+03  0.7818608E-02  0.1029447E+00
         -1   -1    0    0    0  501 -0.00000000000E+00  0.00000000000E+00  0.66342254820E+02  0.66342255011E+02  0.50400000000E-02 0.  1.
          1   -1    0    0  501    0  0.00000000000E+00 -0.00000000000E+00 -0.74374857678E+03  0.74374857680E+03  0.50400000000E-02 0. -1.
    5000001    1    1    2    0    0 -0.99072337193E+02  0.21842772990E+02 -0.25345731606E+03  0.33376195978E+03  0.19200000000E+03 0.  0.
   -5000001    1    1    2    0    0  0.99072337193E+02 -0.21842772990E+02 -0.42394900590E+03  0.47632887204E+03  0.19200000000E+03 0.  0.
<mgrwt>
<rscale>  0 0.44426099E+03</rscale>
<asrwt>0</asrwt>
<pdfrwt beam="1">  1        1 0.10624979E+00 0.44426099E+03</pdfrwt>
<pdfrwt beam="2">  1       -1 0.94774654E-02 0.44426099E+03</pdfrwt>
<totfact> 0.19117208E+03</totfact>
</mgrwt>
</event>
<event>
 4    1  0.7145298E-006  0.5047019E+03  0.7818608E-02  0.1012559E+00
          1   -1    0    0  501    0  0.00000000000E+00  0.00000000000E+00  0.96238970158E+03  0.96238970160E+03  0.50400000000E-02 0. -1.
         -1   -1    0    0    0  501 -0.00000000000E+00 -0.00000000000E+00 -0.66169658777E+02  0.66169658969E+02  0.50400000000E-02 0.  1.
    5000001    1    1    2    0    0 -0.31975758605E+02 -0.16042008791E+03  0.43233139492E+03  0.50053120660E+03  0.19200000000E+03 0.  0.
   -5000001    1    1    2    0    0  0.31975758605E+02  0.16042008791E+03  0.46388864789E+03  0.52802815397E+03  0.19200000000E+03 0.  0.
<mgrwt>
<rscale>  0 0.50470189E+03</rscale>
<asrwt>0</asrwt>
<pdfrwt beam="1">  1        1 0.13748424E+00 0.50470189E+03</pdfrwt>
<pdfrwt beam="2">  1       -1 0.94528086E-02 0.50470189E+03</pdfrwt>
<totfact> 0.12825764E+03</totfact>
</mgrwt>
</event>
<event>
 4    1  0.7145298E-006  0.5497421E+03  0.7818608E-02  0.1001554E+00
         -1   -1    0    0    0  501 -0.00000000000E+00  0.00000000000E+00  0.20099377503E+03  0.20099377509E+03  0.50400000000E-02 0. -1.
          1   -1    0    0  501    0  0.00000000000E+00 -0.00000000000E+00 -0.37590263005E+03  0.37590263008E+03  0.50400000000E-02 0.  1.
    5000001    1    1    2    0    0 -0.16415381640E+03  0.63824736013E+02  0.44501187646E+01  0.26058372152E+03  0.19200000000E+03 0.  0.
   -5000001    1    1    2    0    0  0.16415381640E+03 -0.63824736013E+02 -0.17935897378E+03  0.31631268366E+03  0.19200000000E+03 0.  0.
<mgrwt>
<rscale>  0 0.54974208E+03</rscale>
<asrwt>0</asrwt>
<pdfrwt beam="1">  1        1 0.53700375E-01 0.54974208E+03</pdfrwt>
<pdfrwt beam="2">  1       -1 0.28713397E-01 0.54974208E+03</pdfrwt>
<totfact> 0.79616754E+02</totfact>
</mgrwt>
</event>
<event>
 4    1  0.7145298E-006  0.5752418E+03  0.7818608E-02  0.9958146E-01
          1   -1    0    0  501    0  0.00000000000E+00  0.00000000000E+00  0.27447915154E+03  0.27447915159E+03  0.50400000000E-02 0.  1.
         -1   -1    0    0    0  501 -0.00000000000E+00 -0.00000000000E+00 -0.30139187537E+03  0.30139187542E+03  0.50400000000E-02 0. -1.
    5000001    1    1    2    0    0 -0.16085576892E+03 -0.13629922235E+03  0.24131076555E+02  0.28617890429E+03  0.19200000000E+03 0.  0.
   -5000001    1    1    2    0    0  0.16085576892E+03  0.13629922235E+03 -0.51043800387E+02  0.28969212272E+03  0.19200000000E+03 0.  0.
<mgrwt>
<rscale>  0 0.57524181E+03</rscale>
<asrwt>0</asrwt>
<pdfrwt beam="1">  1        1 0.39211308E-01 0.57524181E+03</pdfrwt>
<pdfrwt beam="2">  1       -1 0.43055982E-01 0.57524181E+03</pdfrwt>
<totfact> 0.58178861E+02</totfact>
</mgrwt>
</event>
<event>
 4    1  0.7145298E-006  0.4242795E+03  0.7818608E-02  0.1035682E+00
          1   -1    0    0  501    0  0.00000000000E+00  0.00000000000E+00  0.13823666529E+04  0.13823666529E+04  0.50400000000E-02 0.  1.
         -1   -1    0    0    0  501 -0.00000000000E+00 -0.00000000000E+00 -0.32555228981E+02  0.32555229371E+02  0.50400000000E-02 0. -1.
    5000001    1    1    2    0    0  0.69576341958E+02 -0.57334922429E+02  0.68601768302E+03  0.71806157264E+03  0.19200000000E+03 0.  0.
   -5000001    1    1    2    0    0 -0.69576341958E+02  0.57334922429E+02  0.66379374087E+03  0.69686030961E+03  0.19200000000E+03 0.  0.
<mgrwt>
<rscale>  0 0.42427945E+03</rscale>
<asrwt>0</asrwt>
<pdfrwt beam="1">  1        1 0.19748089E+00 0.42427945E+03</pdfrwt>
<pdfrwt beam="2">  1       -1 0.46507485E-02 0.42427945E+03</pdfrwt>
<totfact> 0.19634242E+03</totfact>
</mgrwt>
</event>
<event>
 4    1  0.7145298E-006  0.7361818E+03  0.7818608E-02  0.9657282E-01
          1   -1    0    0  501    0  0.00000000000E+00  0.00000000000E+00  0.19807374686E+03  0.19807374692E+03  0.50400000000E-02 0.  1.
         -1   -1    0    0    0  501 -0.00000000000E+00 -0.00000000000E+00 -0.68404284246E+03  0.68404284248E+03  0.50400000000E-02 0. -1.
    5000001    1    1    2    0    0  0.11402478304E+03  0.19631446082E+03 -0.50299234317E+03  0.58429985107E+03  0.19200000000E+03 0.  0.
   -5000001    1    1    2    0    0 -0.11402478304E+03 -0.19631446082E+03  0.17023247562E+02  0.29781673833E+03  0.19200000000E+03 0.  0.
<mgrwt>
<rscale>  0 0.73618185E+03</rscale>
<asrwt>0</asrwt>
<pdfrwt beam="1">  1        1 0.28296250E-01 0.73618185E+03</pdfrwt>
<pdfrwt beam="2">  1       -1 0.97720405E-01 0.73618185E+03</pdfrwt>
<totfact> 0.16901332E+02</totfact>
</mgrwt>
</event>
<event>
 4    1  0.7145298E-006  0.4957728E+03  0.7818608E-02  0.1014888E+00
          1   -1    0    0  501    0  0.00000000000E+00  0.00000000000E+00  0.31189976071E+03  0.31189976075E+03  0.50400000000E-02 0. -1.
         -1   -1    0    0    0  501 -0.00000000000E+00 -0.00000000000E+00 -0.19701095982E+03  0.19701095988E+03  0.50400000000E-02 0.  1.
    5000001    1    1    2    0    0 -0.58062518302E+02 -0.11402506723E+03  0.15045853776E+03  0.27545370496E+03  0.19200000000E+03 0.  0.
   -5000001    1    1    2    0    0  0.58062518302E+02  0.11402506723E+03 -0.35569736868E+02  0.23345701568E+03  0.19200000000E+03 0.  0.
<mgrwt>
<rscale>  0 0.49577282E+03</rscale>
<asrwt>0</asrwt>
<pdfrwt beam="1">  1        1 0.44557108E-01 0.49577282E+03</pdfrwt>
<pdfrwt beam="2">  1       -1 0.28144423E-01 0.49577282E+03</pdfrwt>
<totfact> 0.10486264E+03</totfact>
</mgrwt>
</event>
<event>
 4    1  0.7145298E-006  0.4765965E+03  0.7818608E-02  0.1020075E+00
         -1   -1    0    0    0  501 -0.00000000000E+00  0.00000000000E+00  0.31955895088E+03  0.31955895092E+03  0.50400000000E-02 0. -1.
          1   -1    0    0  501    0  0.00000000000E+00 -0.00000000000E+00 -0.17770133295E+03  0.17770133302E+03  0.50400000000E-02 0.  1.
    5000001    1    1    2    0    0 -0.14073388491E+03  0.27485876538E+00  0.59693949214E+02  0.24542507916E+03  0.19200000000E+03 0.  0.
   -5000001    1    1    2    0    0  0.14073388491E+03 -0.27485876538E+00  0.82163668713E+02  0.25183520478E+03  0.19200000000E+03 0.  0.
<mgrwt>
<rscale>  0 0.47659648E+03</rscale>
<asrwt>0</asrwt>
<pdfrwt beam="1">  1        1 0.25385905E-01 0.47659648E+03</pdfrwt>
<pdfrwt beam="2">  1       -1 0.45651278E-01 0.47659648E+03</pdfrwt>
<totfact> 0.91542991E+02</totfact>
</mgrwt>
</event>
<event>
 4    1  0.7145298E-006  0.4220810E+03  0.7818608E-02  0.1036391E+00
         -1   -1    0    0    0  501 -0.00000000000E+00  0.00000000000E+00  0.22162061110E+02  0.22162061683E+02  0.50400000000E-02 0. -1.
          1   -1    0    0  501    0  0.00000000000E+00 -0.00000000000E+00 -0.20096551642E+04  0.20096551642E+04  0.50400000000E-02 0.  1.
    5000001    1    1    2    0    0 -0.32341598485E+02 -0.80989624900E+02 -0.10336758697E+04  0.10549668724E+04  0.19200000000E+03 0.  0.
   -5000001    1    1    2    0    0  0.32341598485E+02  0.80989624900E+02 -0.95381723341E+03  0.97685035347E+03  0.19200000000E+03 0.  0.
<mgrwt>
<rscale>  0 0.42208104E+03</rscale>
<asrwt>0</asrwt>
<pdfrwt beam="1">  1        1 0.28709348E+00 0.42208104E+03</pdfrwt>
<pdfrwt beam="2">  1       -1 0.31660101E-02 0.42208104E+03</pdfrwt>
<totfact> 0.14236412E+03</totfact>
</mgrwt>
</event>
<event>
 4    1  0.7145298E-006  0.5221477E+03  0.7818608E-02  0.1008154E+00
          1   -1    0    0  501    0  0.00000000000E+00  0.00000000000E+00  0.14154193662E+03  0.14154193671E+03  0.50400000000E-02 0.  1.
         -1   -1    0    0    0  501 -0.00000000000E+00 -0.00000000000E+00 -0.48155026451E+03  0.48155026454E+03  0.50400000000E-02 0. -1.
    5000001    1    1    2    0    0 -0.66197901791E+02 -0.15092518625E+03 -0.93268756249E+02  0.26967320026E+03  0.19200000000E+03 0.  0.
   -5000001    1    1    2    0    0  0.66197901791E+02  0.15092518625E+03 -0.24673957164E+03  0.35341900099E+03  0.19200000000E+03 0.  0.
<mgrwt>
<rscale>  0 0.52214771E+03</rscale>
<asrwt>0</asrwt>
<pdfrwt beam="1">  1        1 0.20220277E-01 0.52214771E+03</pdfrwt>
<pdfrwt beam="2">  1       -1 0.68792894E-01 0.52214771E+03</pdfrwt>
<totfact> 0.55864658E+02</totfact>
</mgrwt>
</event>
<event>
 4    1  0.7145298E-006  0.6021938E+03  0.7818608E-02  0.9900865E-01
         -1   -1    0    0    0  501 -0.00000000000E+00  0.00000000000E+00  0.16348294886E+03  0.16348294894E+03  0.50400000000E-02 0. -1.
          1   -1    0    0  501    0  0.00000000000E+00 -0.00000000000E+00 -0.55454930348E+03  0.55454930350E+03  0.50400000000E-02 0.  1.
    5000001    1    1    2    0    0 -0.13947322460E+03  0.18148988381E+03 -0.24021087204E+03  0.38334921593E+03  0.19200000000E+03 0.  0.
   -5000001    1    1    2    0    0  0.13947322460E+03 -0.18148988381E+03 -0.15085548258E+03  0.33468303652E+03  0.19200000000E+03 0.  0.
<mgrwt>
<rscale>  0 0.60219384E+03</rscale>
<asrwt>0</asrwt>
<pdfrwt beam="1">  1        1 0.79221328E-01 0.60219384E+03</pdfrwt>
<pdfrwt beam="2">  1       -1 0.23354707E-01 0.60219384E+03</pdfrwt>
<totfact> 0.67432363E+02</totfact>
</mgrwt>
</event>
<event>
 4    1  0.7145298E-006  0.5001170E+03  0.7818608E-02  0.1013748E+00
          1   -1    0    0  501    0  0.00000000000E+00  0.00000000000E+00  0.44913243467E+03  0.44913243470E+03  0.50400000000E-02 0.  1.
         -1   -1    0    0    0  501 -0.00000000000E+00 -0.00000000000E+00 -0.13922232073E+03  0.13922232082E+03  0.50400000000E-02 0. -1.
    5000001    1    1    2    0    0 -0.15355621840E+03  0.45261553865E+02  0.16212449776E+03  0.29795381059E+03  0.19200000000E+03 0.  0.
   -5000001    1    1    2    0    0  0.15355621840E+03 -0.45261553865E+02  0.14778561618E+03  0.29040094493E+03  0.19200000000E+03 0.  0.
<mgrwt>
<rscale>  0 0.50011703E+03</rscale>
<asrwt>0</asrwt>
<pdfrwt beam="1">  1        1 0.64161776E-01 0.50011703E+03</pdfrwt>
<pdfrwt beam="2">  1       -1 0.19888903E-01 0.50011703E+03</pdfrwt>
<totfact> 0.11719404E+03</totfact>
</mgrwt>
</event>
<event>
 4    1  0.7145298E-006  0.6840567E+03  0.7818608E-02  0.9744893E-01
          1   -1    0    0  501    0  0.00000000000E+00  0.00000000000E+00  0.64526371470E+03  0.64526371472E+03  0.50400000000E-02 0.  1.
         -1   -1    0    0    0  501 -0.00000000000E+00 -0.00000000000E+00 -0.18129546635E+03  0.18129546642E+03  0.50400000000E-02 0. -1.
    5000001    1    1    2    0    0  0.20093344627E+02  0.26482973832E+03  0.35025667408E+03  0.47966891762E+03  0.19200000000E+03 0.  0.
   -5000001    1    1    2    0    0 -0.20093344627E+02 -0.26482973832E+03  0.11371157428E+03  0.34689026351E+03  0.19200000000E+03 0.  0.
<mgrwt>
<rscale>  0 0.68405668E+03</rscale>
<asrwt>0</asrwt>
<pdfrwt beam="1">  1        1 0.92180530E-01 0.68405668E+03</pdfrwt>
<pdfrwt beam="2">  1       -1 0.25899352E-01 0.68405668E+03</pdfrwt>
<totfact> 0.45634207E+02</totfact>
</mgrwt>
</event>
<event>
 4    1  0.7145298E-006  0.7347299E+03  0.7818608E-02  0.9659616E-01
         -1   -1    0    0    0  501 -0.00000000000E+00  0.00000000000E+00  0.79953368953E+03  0.79953368955E+03  0.50400000000E-02 0.  1.
          1   -1    0    0  501    0  0.00000000000E+00 -0.00000000000E+00 -0.16879464901E+03  0.16879464909E+03  0.50400000000E-02 0. -1.
    5000001    1    1    2    0    0 -0.22164733801E+03  0.78106634781E+02  0.58823300759E+03  0.66189898025E+03  0.19200000000E+03 0.  0.
   -5000001    1    1    2    0    0  0.22164733801E+03 -0.78106634781E+02  0.42506032934E+02  0.30642935838E+03  0.19200000000E+03 0.  0.
<mgrwt>
<rscale>  0 0.73472991E+03</rscale>
<asrwt>0</asrwt>
<pdfrwt beam="1">  1        1 0.24113522E-01 0.73472991E+03</pdfrwt>
<pdfrwt beam="2">  1       -1 0.11421910E+00 0.73472991E+03</pdfrwt>
<totfact> 0.14496764E+02</totfact>
</mgrwt>
</event>
<event>
 4    1  0.7145298E-006  0.5353976E+03  0.7818608E-02  0.1004931E+00
         -1   -1    0    0    0  501 -0.00000000000E+00  0.00000000000E+00  0.96362395109E+02  0.96362395241E+02  0.50400000000E-02 0. -1.
          1   -1    0    0  501    0  0.00000000000E+00 -0.00000000000E+00 -0.74367858602E+03  0.74367858604E+03  0.50400000000E-02 0.  1.
    5000001    1    1    2    0    0  0.15360147113E+03  0.62933306390E+01 -0.15786528296E+03  0.29226437605E+03  0.19200000000E+03 0.  0.
   -5000001    1    1    2    0    0 -0.15360147113E+03 -0.62933306390E+01 -0.48945090796E+03  0.54777660523E+03  0.19200000000E+03 0.  0.
<mgrwt>
<rscale>  0 0.53539761E+03</rscale>
<asrwt>0</asrwt>
<pdfrwt beam="1">  1        1 0.10623979E+00 0.53539761E+03</pdfrwt>
<pdfrwt beam="2">  1       -1 0.13766057E-01 0.53539761E+03</pdfrwt>
<totfact> 0.10583788E+03</totfact>
</mgrwt>
</event>
<event>
 4    1  0.7145298E-006  0.4378526E+03  0.7818608E-02  0.1031408E+00
          1   -1    0    0  501    0  0.00000000000E+00  0.00000000000E+00  0.10220525331E+04  0.10220525331E+04  0.50400000000E-02 0.  1.
         -1   -1    0    0    0  501 -0.00000000000E+00 -0.00000000000E+00 -0.46894587862E+02  0.46894588133E+02  0.50400000000E-02 0. -1.
    5000001    1    1    2    0    0 -0.87534655361E+02  0.20644569220E+02  0.35439233698E+03  0.41297268995E+03  0.19200000000E+03 0.  0.
   -5000001    1    1    2    0    0  0.87534655361E+02 -0.20644569220E+02  0.62076560824E+03  0.65597443129E+03  0.19200000000E+03 0.  0.
<mgrwt>
<rscale>  0 0.43785263E+03</rscale>
<asrwt>0</asrwt>
<pdfrwt beam="1">  1        1 0.14600750E+00 0.43785263E+03</pdfrwt>
<pdfrwt beam="2">  1       -1 0.66992269E-02 0.43785263E+03</pdfrwt>
<totfact> 0.19785782E+03</totfact>
</mgrwt>
</event>
<event>
 4    1  0.7145298E-006  0.9653687E+03  0.7818608E-02  0.9347365E-01
          1   -1    0    0  501    0  0.00000000000E+00  0.00000000000E+00  0.12848665022E+04  0.12848665022E+04  0.50400000000E-02 0. -1.
         -1   -1    0    0    0  501 -0.00000000000E+00 -0.00000000000E+00 -0.18132948419E+03  0.18132948426E+03  0.50400000000E-02 0.  1.
    5000001    1    1    2    0    0  0.12598090995E+03 -0.41488603657E+03  0.41492049229E+03  0.63009890330E+03  0.19200000000E+03 0.  0.
   -5000001    1    1    2    0    0 -0.12598090995E+03  0.41488603657E+03  0.68861652575E+03  0.83609708321E+03  0.19200000000E+03 0.  0.
<mgrwt>
<rscale>  0 0.96536870E+03</rscale>
<asrwt>0</asrwt>
<pdfrwt beam="1">  1        1 0.18355236E+00 0.96536870E+03</pdfrwt>
<pdfrwt beam="2">  1       -1 0.25904212E-01 0.96536870E+03</pdfrwt>
<totfact> 0.14280432E+02</totfact>
</mgrwt>
</event>
<event>
 4    1  0.7145298E-006  0.5454971E+03  0.7818608E-02  0.1002542E+00
         -1   -1    0    0    0  501 -0.00000000000E+00  0.00000000000E+00  0.25957995290E+02  0.25957995779E+02  0.50400000000E-02 0. -1.
          1   -1    0    0  501    0  0.00000000000E+00 -0.00000000000E+00 -0.28658520131E+04  0.28658520131E+04  0.50400000000E-02 0.  1.
    5000001    1    1    2    0    0  0.12692217951E+03  0.14265862138E+03 -0.15931159770E+04  0.16159651104E+04  0.19200000000E+03 0.  0.
   -5000001    1    1    2    0    0 -0.12692217951E+03 -0.14265862138E+03 -0.12467780409E+04  0.12758448985E+04  0.19200000000E+03 0.  0.
<mgrwt>
<rscale>  0 0.54549711E+03</rscale>
<asrwt>0</asrwt>
<pdfrwt beam="1">  1        1 0.40940723E+00 0.54549711E+03</pdfrwt>
<pdfrwt beam="2">  1       -1 0.37082869E-02 0.54549711E+03</pdfrwt>
<totfact> 0.32716499E+02</totfact>
</mgrwt>
</event>
<event>
 4    1  0.7145298E-006  0.5904581E+03  0.7818608E-02  0.9925403E-01
          1   -1    0    0  501    0  0.00000000000E+00  0.00000000000E+00  0.31653418401E+04  0.31653418401E+04  0.50400000000E-02 0. -1.
         -1   -1    0    0    0  501 -0.00000000000E+00 -0.00000000000E+00 -0.27535794299E+02  0.27535794760E+02  0.50400000000E-02 0.  1.
    5000001    1    1    2    0    0  0.13795166013E+03  0.17231090651E+03  0.17834703545E+04  0.18073052355E+04  0.19200000000E+03 0.  0.
   -5000001    1    1    2    0    0 -0.13795166013E+03 -0.17231090651E+03  0.13543356913E+04  0.13855723993E+04  0.19200000000E+03 0.  0.
<mgrwt>
<rscale>  0 0.59045814E+03</rscale>
<asrwt>0</asrwt>
<pdfrwt beam="1">  1        1 0.45219153E+00 0.59045814E+03</pdfrwt>
<pdfrwt beam="2">  1       -1 0.39336863E-02 0.59045814E+03</pdfrwt>
<totfact> 0.19052300E+02</totfact>
</mgrwt>
</event>
<event>
 4    1  0.7145298E-006  0.1919557E+04  0.7818608E-02  0.8645183E-01
          1   -1    0    0  501    0  0.00000000000E+00  0.00000000000E+00  0.15822016292E+04  0.15822016292E+04  0.50400000000E-02 0.  1.
         -1   -1    0    0    0  501 -0.00000000000E+00 -0.00000000000E+00 -0.58221044111E+03  0.58221044113E+03  0.50400000000E-02 0. -1.
    5000001    1    1    2    0    0  0.57844081307E+03  0.74134939792E+03  0.48776772136E+03  0.10765565726E+04  0.19200000000E+03 0.  0.
   -5000001    1    1    2    0    0 -0.57844081307E+03 -0.74134939792E+03  0.51222346668E+03  0.10878554977E+04  0.19200000000E+03 0.  0.
<mgrwt>
<rscale>  0 0.19195565E+04</rscale>
<asrwt>0</asrwt>
<pdfrwt beam="1">  1        1 0.22602881E+00 0.19195565E+04</pdfrwt>
<pdfrwt beam="2">  1       -1 0.83172920E-01 0.19195565E+04</pdfrwt>
<totfact> 0.92470487E+00</totfact>
</mgrwt>
</event>
<event>
 4    1  0.7145298E-006  0.4707584E+03  0.7818608E-02  0.1021706E+00
          1   -1    0    0  501    0  0.00000000000E+00  0.00000000000E+00  0.12339037304E+04  0.12339037304E+04  0.50400000000E-02 0.  1.
         -1   -1    0    0    0  501 -0.00000000000E+00 -0.00000000000E+00 -0.44900884068E+02  0.44900884351E+02  0.50400000000E-02 0. -1.
    5000001    1    1    2    0    0  0.30013167969E+02 -0.12229749629E+03  0.73517983587E+03  0.77020182999E+03  0.19200000000E+03 0.  0.
   -5000001    1    1    2    0    0 -0.30013167969E+02  0.12229749629E+03  0.45382301042E+03  0.50860278473E+03  0.19200000000E+03 0.  0.
<mgrwt>
<rscale>  0 0.47075840E+03</rscale>
<asrwt>0</asrwt>
<pdfrwt beam="1">  1        1 0.17627192E+00 0.47075840E+03</pdfrwt>
<pdfrwt beam="2">  1       -1 0.64144134E-02 0.47075840E+03</pdfrwt>
<totfact> 0.15053853E+03</totfact>
</mgrwt>
</event>
<event>
 4    1  0.7145298E-006  0.4034302E+03  0.7818608E-02  0.1042598E+00
         -1   -1    0    0    0  501 -0.00000000000E+00  0.00000000000E+00  0.82307457745E+02  0.82307457900E+02  0.50400000000E-02 0. -1.
          1   -1    0    0  501    0  0.00000000000E+00 -0.00000000000E+00 -0.49435361482E+03  0.49435361485E+03  0.50400000000E-02 0.  1.
    5000001    1    1    2    0    0  0.16166156846E+02  0.59682617486E+02 -0.20419822886E+03  0.28702661223E+03  0.19200000000E+03 0.  0.
   -5000001    1    1    2    0    0 -0.16166156846E+02 -0.59682617486E+02 -0.20784792821E+03  0.28963446052E+03  0.19200000000E+03 0.  0.
<mgrwt>
<rscale>  0 0.40343024E+03</rscale>
<asrwt>0</asrwt>
<pdfrwt beam="1">  1        1 0.70621944E-01 0.40343024E+03</pdfrwt>
<pdfrwt beam="2">  1       -1 0.11758208E-01 0.40343024E+03</pdfrwt>
<totfact> 0.24060362E+03</totfact>
</mgrwt>
</event>
<event>
 4    1  0.7145298E-006  0.4665929E+03  0.7818608E-02  0.1022886E+00
          1   -1    0    0  501    0  0.00000000000E+00  0.00000000000E+00  0.33808565203E+03  0.33808565206E+03  0.50400000000E-02 0.  1.
         -1   -1    0    0    0  501 -0.00000000000E+00 -0.00000000000E+00 -0.16098651990E+03  0.16098651998E+03  0.50400000000E-02 0. -1.
    5000001    1    1    2    0    0  0.10152827960E+03 -0.31638592367E+02  0.39608328555E+01  0.21951920254E+03  0.19200000000E+03 0.  0.
   -5000001    1    1    2    0    0 -0.10152827960E+03  0.31638592367E+02  0.17313829927E+03  0.27955296951E+03  0.19200000000E+03 0.  0.
<mgrwt>
<rscale>  0 0.46659290E+03</rscale>
<asrwt>0</asrwt>
<pdfrwt beam="1">  1        1 0.48297950E-01 0.46659290E+03</pdfrwt>
<pdfrwt beam="2">  1       -1 0.22998074E-01 0.46659290E+03</pdfrwt>
<totfact> 0.13308064E+03</totfact>
</mgrwt>
</event>
<event>
 4    1  0.7145298E-006  0.5132399E+03  0.7818608E-02  0.1010380E+00
         -1   -1    0    0    0  501 -0.00000000000E+00  0.00000000000E+00  0.11296619674E+03  0.11296619685E+03  0.50400000000E-02 0. -1.
          1   -1    0    0  501    0  0.00000000000E+00 -0.00000000000E+00 -0.58295130295E+03  0.58295130297E+03  0.50400000000E-02 0.  1.
    5000001    1    1    2    0    0 -0.16668735809E+03  0.15014395994E+02 -0.19255206023E+03  0.31929673242E+03  0.19200000000E+03 0.  0.
   -5000001    1    1    2    0    0  0.16668735809E+03 -0.15014395994E+02 -0.27743304598E+03  0.37662076740E+03  0.19200000000E+03 0.  0.
<mgrwt>
<rscale>  0 0.51323987E+03</rscale>
<asrwt>0</asrwt>
<pdfrwt beam="1">  1        1 0.83278756E-01 0.51323987E+03</pdfrwt>
<pdfrwt beam="2">  1       -1 0.16138028E-01 0.51323987E+03</pdfrwt>
<totfact> 0.11610273E+03</totfact>
</mgrwt>
</event>
<event>
 4    1  0.7145298E-006  0.7065935E+03  0.7818608E-02  0.9706022E-01
          1   -1    0    0  501    0  0.00000000000E+00  0.00000000000E+00  0.13395653580E+03  0.13395653589E+03  0.50400000000E-02 0.  1.
         -1   -1    0    0    0  501 -0.00000000000E+00 -0.00000000000E+00 -0.93178426098E+03  0.93178426099E+03  0.50400000000E-02 0. -1.
    5000001    1    1    2    0    0  0.40458764325E+02 -0.26520327580E+03 -0.20821989528E+03  0.39011436002E+03  0.19200000000E+03 0.  0.
   -5000001    1    1    2    0    0 -0.40458764325E+02  0.26520327580E+03 -0.58960782990E+03  0.67562643686E+03  0.19200000000E+03 0.  0.
<mgrwt>
<rscale>  0 0.70659349E+03</rscale>
<asrwt>0</asrwt>
<pdfrwt beam="1">  1        1 0.19136648E-01 0.70659349E+03</pdfrwt>
<pdfrwt beam="2">  1       -1 0.13311203E+00 0.70659349E+03</pdfrwt>
<totfact> 0.13510753E+02</totfact>
</mgrwt>
</event>
<event>
 4    1  0.7145298E-006  0.5173409E+03  0.7818608E-02  0.1009349E+00
          1   -1    0    0  501    0  0.00000000000E+00  0.00000000000E+00  0.10205105314E+04  0.10205105314E+04  0.50400000000E-02 0. -1.
         -1   -1    0    0    0  501 -0.00000000000E+00 -0.00000000000E+00 -0.65565621389E+02  0.65565621583E+02  0.50400000000E-02 0.  1.
    5000001    1    1    2    0    0 -0.12514836299E+01 -0.16933833788E+03  0.39978630682E+03  0.47473163999E+03  0.19200000000E+03 0.  0.
   -5000001    1    1    2    0    0  0.12514836299E+01  0.16933833788E+03  0.55515860321E+03  0.61134451302E+03  0.19200000000E+03 0.  0.
<mgrwt>
<rscale>  0 0.51734092E+03</rscale>
<asrwt>0</asrwt>
<pdfrwt beam="1">  1        1 0.14578722E+00 0.51734092E+03</pdfrwt>
<pdfrwt beam="2">  1       -1 0.93665173E-02 0.51734092E+03</pdfrwt>
<totfact> 0.11783289E+03</totfact>
</mgrwt>
</event>
<event>
 4    1  0.7145298E-006  0.4635146E+03  0.7818608E-02  0.1023767E+00
          1   -1    0    0  501    0  0.00000000000E+00  0.00000000000E+00  0.10181327684E+03  0.10181327696E+03  0.50400000000E-02 0.  1.
         -1   -1    0    0    0  501 -0.00000000000E+00 -0.00000000000E+00 -0.52754859977E+03  0.52754859979E+03  0.50400000000E-02 0. -1.
    5000001    1    1    2    0    0 -0.26740097341E+02  0.11046318744E+03 -0.29799126751E+03  0.37226327256E+03  0.19200000000E+03 0.  0.
   -5000001    1    1    2    0    0  0.26740097341E+02 -0.11046318744E+03 -0.12774405542E+03  0.25709860420E+03  0.19200000000E+03 0.  0.
<mgrwt>
<rscale>  0 0.46351462E+03</rscale>
<asrwt>0</asrwt>
<pdfrwt beam="1">  1        1 0.14544754E-01 0.46351462E+03</pdfrwt>
<pdfrwt beam="2">  1       -1 0.75364084E-01 0.46351462E+03</pdfrwt>
<totfact> 0.71797172E+02</totfact>
</mgrwt>
</event>
<event>
 4    1  0.7145298E-006  0.4760752E+03  0.7818608E-02  0.1020219E+00
          1   -1    0    0  501    0  0.00000000000E+00  0.00000000000E+00  0.80192569329E+03  0.80192569330E+03  0.50400000000E-02 0.  1.
         -1   -1    0    0    0  501 -0.00000000000E+00 -0.00000000000E+00 -0.70657295062E+02  0.70657295241E+02  0.50400000000E-02 0. -1.
    5000001    1    1    2    0    0  0.84904442748E+01 -0.12019496295E+03  0.23246421851E+03  0.32468835774E+03  0.19200000000E+03 0.  0.
   -5000001    1    1    2    0    0 -0.84904442748E+01  0.12019496295E+03  0.49880417972E+03  0.54789463081E+03  0.19200000000E+03 0.  0.
<mgrwt>
<rscale>  0 0.47607521E+03</rscale>
<asrwt>0</asrwt>
<pdfrwt beam="1">  1        1 0.11456081E+00 0.47607521E+03</pdfrwt>
<pdfrwt beam="2">  1       -1 0.10093900E-01 0.47607521E+03</pdfrwt>
<totfact> 0.15468273E+03</totfact>
</mgrwt>
</event>
<event>
 4    1  0.7145298E-006  0.8750565E+03  0.7818608E-02  0.9457311E-01
         -1   -1    0    0    0  501 -0.00000000000E+00  0.00000000000E+00  0.13587281706E+03  0.13587281716E+03  0.50400000000E-02 0. -1.
          1   -1    0    0  501    0  0.00000000000E+00 -0.00000000000E+00 -0.14088983127E+04  0.14088983127E+04  0.50400000000E-02 0.  1.
    5000001    1    1    2    0    0 -0.16234692572E+02  0.36777319996E+03 -0.39288135892E+03  0.57161215351E+03  0.19200000000E+03 0.  0.
   -5000001    1    1    2    0    0  0.16234692572E+02 -0.36777319996E+03 -0.88014413671E+03  0.97315897634E+03  0.19200000000E+03 0.  0.
<mgrwt>
<rscale>  0 0.87505653E+03</rscale>
<asrwt>0</asrwt>
<pdfrwt beam="1">  1        1 0.20127118E+00 0.87505653E+03</pdfrwt>
<pdfrwt beam="2">  1       -1 0.19410403E-01 0.87505653E+03</pdfrwt>
<totfact> 0.19336007E+02</totfact>
</mgrwt>
</event>
<event>
 4    1  0.7145298E-006  0.6094060E+03  0.7818608E-02  0.9886081E-01
         -1   -1    0    0    0  501 -0.00000000000E+00  0.00000000000E+00  0.23989291156E+03  0.23989291161E+03  0.50400000000E-02 0. -1.
          1   -1    0    0  501    0  0.00000000000E+00 -0.00000000000E+00 -0.38702240093E+03  0.38702240097E+03  0.50400000000E-02 0.  1.
    5000001    1    1    2    0    0 -0.18991979071E+03 -0.12587040660E+03 -0.79590432738E+01  0.29806078664E+03  0.19200000000E+03 0.  0.
   -5000001    1    1    2    0    0  0.18991979071E+03  0.12587040660E+03 -0.13917044610E+03  0.32885452594E+03  0.19200000000E+03 0.  0.
<mgrwt>
<rscale>  0 0.60940604E+03</rscale>
<asrwt>0</asrwt>
<pdfrwt beam="1">  1        1 0.55288914E-01 0.60940604E+03</pdfrwt>
<pdfrwt beam="2">  1       -1 0.34270416E-01 0.60940604E+03</pdfrwt>
<totfact> 0.56231696E+02</totfact>
</mgrwt>
</event>
<event>
 4    1  0.7145298E-006  0.6620044E+03  0.7818608E-02  0.9784511E-01
         -1   -1    0    0    0  501 -0.00000000000E+00  0.00000000000E+00  0.57829220103E+02  0.57829220322E+02  0.50400000000E-02 0. -1.
          1   -1    0    0  501    0  0.00000000000E+00 -0.00000000000E+00 -0.18945864331E+04  0.18945864331E+04  0.50400000000E-02 0.  1.
    5000001    1    1    2    0    0  0.25537698620E+03 -0.73675974506E+02 -0.10520059977E+04  0.11019193135E+04  0.19200000000E+03 0.  0.
   -5000001    1    1    2    0    0 -0.25537698620E+03  0.73675974506E+02 -0.78475121533E+03  0.85049633994E+03  0.19200000000E+03 0.  0.
<mgrwt>
<rscale>  0 0.66200440E+03</rscale>
<asrwt>0</asrwt>
<pdfrwt beam="1">  1        1 0.27065517E+00 0.66200440E+03</pdfrwt>
<pdfrwt beam="2">  1       -1 0.82613184E-02 0.66200440E+03</pdfrwt>
<totfact> 0.38122888E+02</totfact>
</mgrwt>
</event>
<event>
 4    1  0.7145298E-006  0.6339432E+03  0.7818608E-02  0.9837384E-01
         -1   -1    0    0    0  501 -0.00000000000E+00  0.00000000000E+00  0.11334066080E+03  0.11334066091E+03  0.50400000000E-02 0. -1.
          1   -1    0    0  501    0  0.00000000000E+00 -0.00000000000E+00 -0.88645134253E+03  0.88645134255E+03  0.50400000000E-02 0.  1.
    5000001    1    1    2    0    0  0.36667311695E+02 -0.23020172727E+03 -0.23471362459E+03  0.38248112705E+03  0.19200000000E+03 0.  0.
   -5000001    1    1    2    0    0 -0.36667311695E+02  0.23020172727E+03 -0.53839705714E+03  0.61731087640E+03  0.19200000000E+03 0.  0.
<mgrwt>
<rscale>  0 0.63394316E+03</rscale>
<asrwt>0</asrwt>
<pdfrwt beam="1">  1        1 0.12663590E+00 0.63394316E+03</pdfrwt>
<pdfrwt beam="2">  1       -1 0.16191524E-01 0.63394316E+03</pdfrwt>
<totfact> 0.61887979E+02</totfact>
</mgrwt>
</event>
<event>
 4    1  0.7145298E-006  0.6678370E+03  0.7818608E-02  0.9773873E-01
         -1   -1    0    0    0  501 -0.00000000000E+00  0.00000000000E+00  0.20965568832E+03  0.20965568838E+03  0.50400000000E-02 0. -1.
          1   -1    0    0  501    0  0.00000000000E+00 -0.00000000000E+00 -0.53183189038E+03  0.53183189041E+03  0.50400000000E-02 0.  1.
    5000001    1    1    2    0    0 -0.11122799203E+03  0.21960278338E+03 -0.29264849330E+03  0.42790675305E+03  0.19200000000E+03 0.  0.
   -5000001    1    1    2    0    0  0.11122799203E+03 -0.21960278338E+03 -0.29527708769E+02  0.31358082573E+03  0.19200000000E+03 0.  0.
<mgrwt>
<rscale>  0 0.66783705E+03</rscale>
<asrwt>0</asrwt>
<pdfrwt beam="1">  1        1 0.75975984E-01 0.66783705E+03</pdfrwt>
<pdfrwt beam="2">  1       -1 0.29950813E-01 0.66783705E+03</pdfrwt>
<totfact> 0.46571121E+02</totfact>
</mgrwt>
</event>
<event>
 4    1  0.7145298E-006  0.4682823E+03  0.7818608E-02  0.1022406E+00
         -1   -1    0    0    0  501 -0.00000000000E+00  0.00000000000E+00  0.39179393359E+02  0.39179393684E+02  0.50400000000E-02 0. -1.
          1   -1    0    0  501    0  0.00000000000E+00 -0.00000000000E+00 -0.13992581425E+04  0.13992581425E+04  0.50400000000E-02 0.  1.
    5000001    1    1    2    0    0  0.10810895529E+03  0.78579967444E+02 -0.71009339278E+03  0.74763559571E+03  0.19200000000E+03 0.  0.
   -5000001    1    1    2    0    0 -0.10810895529E+03 -0.78579967444E+02 -0.64998535639E+03  0.69080194051E+03  0.19200000000E+03 0.  0.
<mgrwt>
<rscale>  0 0.46828233E+03</rscale>
<asrwt>0</asrwt>
<pdfrwt beam="1">  1        1 0.19989399E+00 0.46828233E+03</pdfrwt>
<pdfrwt beam="2">  1       -1 0.55970571E-02 0.46828233E+03</pdfrwt>
<totfact> 0.14432076E+03</totfact>
</mgrwt>
</event>
<event>
 4    1  0.7145298E-006  0.6078983E+03  0.7818608E-02  0.9889154E-01
          1   -1    0    0  501    0  0.00000000000E+00  0.00000000000E+00  0.16827561167E+03  0.16827561175E+03  0.50400000000E-02 0.  1.
         -1   -1    0    0    0  501 -0.00000000000E+00 -0.00000000000E+00 -0.54901051494E+03  0.54901051496E+03  0.50400000000E-02 0. -1.
    5000001    1    1    2    0    0  0.15246776239E+03 -0.16819306872E+03 -0.11587423573E+03  0.31910212384E+03  0.19200000000E+03 0.  0.
   -5000001    1    1    2    0    0 -0.15246776239E+03  0.16819306872E+03 -0.26486066754E+03  0.39818400287E+03  0.19200000000E+03 0.  0.
<mgrwt>
<rscale>  0 0.60789828E+03</rscale>
<asrwt>0</asrwt>
<pdfrwt beam="1">  1        1 0.24039373E-01 0.60789828E+03</pdfrwt>
<pdfrwt beam="2">  1       -1 0.78430073E-01 0.60789828E+03</pdfrwt>
<totfact> 0.33916163E+02</totfact>
</mgrwt>
</event>
<event>
 4    1  0.7145298E-006  0.5721317E+03  0.7818608E-02  0.9964973E-01
         -1   -1    0    0    0  501 -0.00000000000E+00  0.00000000000E+00  0.12297608881E+03  0.12297608892E+03  0.50400000000E-02 0.  1.
          1   -1    0    0  501    0  0.00000000000E+00 -0.00000000000E+00 -0.66544374404E+03  0.66544374406E+03  0.50400000000E-02 0. -1.
    5000001    1    1    2    0    0 -0.14712799386E+03  0.87973628704E+02 -0.44326070595E+03  0.51257200408E+03  0.19200000000E+03 0.  0.
   -5000001    1    1    2    0    0  0.14712799386E+03 -0.87973628704E+02 -0.99206949281E+02  0.27584782890E+03  0.19200000000E+03 0.  0.
<mgrwt>
<rscale>  0 0.57213169E+03</rscale>
<asrwt>0</asrwt>
<pdfrwt beam="1">  1        1 0.95063390E-01 0.57213169E+03</pdfrwt>
<pdfrwt beam="2">  1       -1 0.17568013E-01 0.57213169E+03</pdfrwt>
<totfact> 0.83805378E+02</totfact>
</mgrwt>
</event>
<event>
 4    1  0.7145298E-006  0.6319095E+03  0.7818608E-02  0.9841330E-01
          1   -1    0    0  501    0  0.00000000000E+00  0.00000000000E+00  0.99527831531E+03  0.99527831532E+03  0.50400000000E-02 0.  1.
         -1   -1    0    0    0  501 -0.00000000000E+00 -0.00000000000E+00 -0.10030097949E+03  0.10030097961E+03  0.50400000000E-02 0. -1.
    5000001    1    1    2    0    0 -0.96346375418E+01 -0.24444984112E+03  0.54425109587E+03  0.62683475208E+03  0.19200000000E+03 0.  0.
   -5000001    1    1    2    0    0  0.96346375418E+01  0.24444984112E+03  0.35072623995E+03  0.46874454285E+03  0.19200000000E+03 0.  0.
<mgrwt>
<rscale>  0 0.63190946E+03</rscale>
<asrwt>0</asrwt>
<pdfrwt beam="1">  1        1 0.14218262E+00 0.63190946E+03</pdfrwt>
<pdfrwt beam="2">  1       -1 0.14328711E-01 0.63190946E+03</pdfrwt>
<totfact> 0.62327688E+02</totfact>
</mgrwt>
</event>
<event>
 4    1  0.7145298E-006  0.8709521E+03  0.7818608E-02  0.9462639E-01
         -1   -1    0    0    0  501 -0.00000000000E+00  0.00000000000E+00  0.28178355251E+03  0.28178355255E+03  0.50400000000E-02 0. -1.
          1   -1    0    0  501    0  0.00000000000E+00 -0.00000000000E+00 -0.67299666454E+03  0.67299666456E+03  0.50400000000E-02 0.  1.
    5000001    1    1    2    0    0 -0.22149674135E+03 -0.25826849557E+03 -0.40650833045E+03  0.56380532541E+03  0.19200000000E+03 0.  0.
   -5000001    1    1    2    0    0  0.22149674135E+03  0.25826849557E+03  0.15295218417E+02  0.39097489170E+03  0.19200000000E+03 0.  0.
<mgrwt>
<rscale>  0 0.87095210E+03</rscale>
<asrwt>0</asrwt>
<pdfrwt beam="1">  1        1 0.96142380E-01 0.87095210E+03</pdfrwt>
<pdfrwt beam="2">  1       -1 0.40254793E-01 0.87095210E+03</pdfrwt>
<totfact> 0.19574568E+02</totfact>
</mgrwt>
</event>
<event>
 4    1  0.7145298E-006  0.5489225E+03  0.7818608E-02  0.1001744E+00
          1   -1    0    0  501    0  0.00000000000E+00  0.00000000000E+00  0.45333067281E+03  0.45333067284E+03  0.50400000000E-02 0. -1.
         -1   -1    0    0    0  501 -0.00000000000E+00 -0.00000000000E+00 -0.16616784311E+03  0.16616784319E+03  0.50400000000E-02 0.  1.
    5000001    1    1    2    0    0 -0.14263151192E+02 -0.16087932203E+03  0.18013468784E+02  0.25154339347E+03  0.19200000000E+03 0.  0.
   -5000001    1    1    2    0    0  0.14263151192E+02  0.16087932203E+03  0.26914936092E+03  0.36795512256E+03  0.19200000000E+03 0.  0.
<mgrwt>
<rscale>  0 0.54892251E+03</rscale>
<asrwt>0</asrwt>
<pdfrwt beam="1">  1        1 0.64761524E-01 0.54892251E+03</pdfrwt>
<pdfrwt beam="2">  1       -1 0.23738263E-01 0.54892251E+03</pdfrwt>
<totfact> 0.86148041E+02</totfact>
</mgrwt>
</event>
<event>
 4    1  0.7145298E-006  0.4596557E+03  0.7818608E-02  0.1024881E+00
          1   -1    0    0  501    0  0.00000000000E+00  0.00000000000E+00  0.94199430680E+02  0.94199430815E+02  0.50400000000E-02 0. -1.
         -1   -1    0    0    0  501 -0.00000000000E+00 -0.00000000000E+00 -0.56073415325E+03  0.56073415327E+03  0.50400000000E-02 0.  1.
    5000001    1    1    2    0    0 -0.11681004674E+03 -0.12705334563E+02 -0.16718779093E+03  0.28039573817E+03  0.19200000000E+03 0.  0.
   -5000001    1    1    2    0    0  0.11681004674E+03  0.12705334563E+02 -0.29934693164E+03  0.37453784592E+03  0.19200000000E+03 0.  0.
<mgrwt>
<rscale>  0 0.45965569E+03</rscale>
<asrwt>0</asrwt>
<pdfrwt beam="1">  1        1 0.13457062E-01 0.45965569E+03</pdfrwt>
<pdfrwt beam="2">  1       -1 0.80104877E-01 0.45965569E+03</pdfrwt>
<totfact> 0.70167662E+02</totfact>
</mgrwt>
</event>
<event>
 4    1  0.7145298E-006  0.1094210E+04  0.7818608E-02  0.9210853E-01
         -1   -1    0    0    0  501 -0.00000000000E+00  0.00000000000E+00  0.67368378759E+03  0.67368378761E+03  0.50400000000E-02 0. -1.
          1   -1    0    0  501    0  0.00000000000E+00 -0.00000000000E+00 -0.44430943652E+03  0.44430943654E+03  0.50400000000E-02 0.  1.
    5000001    1    1    2    0    0  0.40494961738E+03  0.95150651929E+02 -0.19084791419E+03  0.49631115798E+03  0.19200000000E+03 0.  0.
   -5000001    1    1    2    0    0 -0.40494961738E+03 -0.95150651929E+02  0.42022226526E+03  0.62168206618E+03  0.19200000000E+03 0.  0.
<mgrwt>
<rscale>  0 0.10942103E+04</rscale>
<asrwt>0</asrwt>
<pdfrwt beam="1">  1        1 0.63472777E-01 0.10942103E+04</pdfrwt>
<pdfrwt beam="2">  1       -1 0.96240540E-01 0.10942103E+04</pdfrwt>
<totfact> 0.59743333E+01</totfact>
</mgrwt>
</event>
<event>
 4    1  0.7145298E-006  0.6539669E+03  0.7818608E-02  0.9799364E-01
         -1   -1    0    0    0  501 -0.00000000000E+00  0.00000000000E+00  0.44254963466E+03  0.44254963469E+03  0.50400000000E-02 0.  1.
          1   -1    0    0  501    0  0.00000000000E+00 -0.00000000000E+00 -0.24159592445E+03  0.24159592450E+03  0.50400000000E-02 0. -1.
    5000001    1    1    2    0    0  0.22870183089E+03 -0.39584725401E+02 -0.32604847878E+02  0.30298276196E+03  0.19200000000E+03 0.  0.
   -5000001    1    1    2    0    0 -0.22870183089E+03  0.39584725401E+02  0.23355855809E+03  0.38116279724E+03  0.19200000000E+03 0.  0.
<mgrwt>
<rscale>  0 0.65396694E+03</rscale>
<asrwt>0</asrwt>
<pdfrwt beam="1">  1        1 0.34513704E-01 0.65396694E+03</pdfrwt>
<pdfrwt beam="2">  1       -1 0.63221375E-01 0.65396694E+03</pdfrwt>
<totfact> 0.32909052E+02</totfact>
</mgrwt>
</event>
<event>
 4    1  0.7145298E-006  0.6229298E+03  0.7818608E-02  0.9858944E-01
         -1   -1    0    0    0  501 -0.00000000000E+00  0.00000000000E+00  0.45822617402E+03  0.45822617405E+03  0.50400000000E-02 0.  1.
          1   -1    0    0  501    0  0.00000000000E+00 -0.00000000000E+00 -0.21170849057E+03  0.21170849063E+03  0.50400000000E-02 0. -1.
    5000001    1    1    2    0    0  0.20561015544E+03  0.36797452022E+01 -0.20455863500E+02  0.28208424078E+03  0.19200000000E+03 0.  0.
   -5000001    1    1    2    0    0 -0.20561015544E+03 -0.36797452022E+01  0.26697354695E+03  0.38785042390E+03  0.19200000000E+03 0.  0.
<mgrwt>
<rscale>  0 0.62292976E+03</rscale>
<asrwt>0</asrwt>
<pdfrwt beam="1">  1        1 0.30244070E-01 0.62292976E+03</pdfrwt>
<pdfrwt beam="2">  1       -1 0.65460882E-01 0.62292976E+03</pdfrwt>
<totfact> 0.36446690E+02</totfact>
</mgrwt>
</event>
<event>
 4    1  0.7145298E-006  0.8028397E+03  0.7818608E-02  0.9555916E-01
         -1   -1    0    0    0  501 -0.00000000000E+00  0.00000000000E+00  0.27129426212E+03  0.27129426216E+03  0.50400000000E-02 0. -1.
          1   -1    0    0  501    0  0.00000000000E+00 -0.00000000000E+00 -0.59395985807E+03  0.59395985809E+03  0.50400000000E-02 0.  1.
    5000001    1    1    2    0    0  0.69499622939E+01  0.34510208037E+03 -0.84139425912E+02  0.40384055127E+03  0.19200000000E+03 0.  0.
   -5000001    1    1    2    0    0 -0.69499622939E+01 -0.34510208037E+03 -0.23852617004E+03  0.46141356899E+03  0.19200000000E+03 0.  0.
<mgrwt>
<rscale>  0 0.80283971E+03</rscale>
<asrwt>0</asrwt>
<pdfrwt beam="1">  1        1 0.84851408E-01 0.80283971E+03</pdfrwt>
<pdfrwt beam="2">  1       -1 0.38756323E-01 0.80283971E+03</pdfrwt>
<totfact> 0.25165428E+02</totfact>
</mgrwt>
</event>
<event>
 4    1  0.7145298E-006  0.9758833E+03  0.7818608E-02  0.9335398E-01
          1   -1    0    0  501    0  0.00000000000E+00  0.00000000000E+00  0.54178876740E+03  0.54178876742E+03  0.50400000000E-02 0. -1.
         -1   -1    0    0    0  501 -0.00000000000E+00 -0.00000000000E+00 -0.43944623564E+03  0.43944623567E+03  0.50400000000E-02 0.  1.
    5000001    1    1    2    0    0 -0.26851225571E+03  0.35924955353E+03  0.43129833171E+02  0.48977878240E+03  0.19200000000E+03 0.  0.
   -5000001    1    1    2    0    0  0.26851225571E+03 -0.35924955353E+03  0.59212698585E+02  0.49145622069E+03  0.19200000000E+03 0.  0.
<mgrwt>
<rscale>  0 0.97588326E+03</rscale>
<asrwt>0</asrwt>
<pdfrwt beam="1">  1        1 0.77398396E-01 0.97588326E+03</pdfrwt>
<pdfrwt beam="2">  1       -1 0.62778033E-01 0.97588326E+03</pdfrwt>
<totfact> 0.11358830E+02</totfact>
</mgrwt>
</event>
<event>
 4    1  0.7145298E-006  0.6129405E+03  0.7818608E-02  0.9878916E-01
          1   -1    0    0  501    0  0.00000000000E+00  0.00000000000E+00  0.45171835168E+03  0.45171835170E+03  0.50400000000E-02 0. -1.
         -1   -1    0    0    0  501 -0.00000000000E+00 -0.00000000000E+00 -0.20792606585E+03  0.20792606591E+03  0.50400000000E-02 0.  1.
    5000001    1    1    2    0    0 -0.13956775616E+03 -0.15794812262E+03  0.24285819218E+03  0.37452752837E+03  0.19200000000E+03 0.  0.
   -5000001    1    1    2    0    0  0.13956775616E+03  0.15794812262E+03  0.93409364605E+00  0.28511688924E+03  0.19200000000E+03 0.  0.
<mgrwt>
<rscale>  0 0.61294052E+03</rscale>
<asrwt>0</asrwt>
<pdfrwt beam="1">  1        1 0.64531191E-01 0.61294052E+03</pdfrwt>
<pdfrwt beam="2">  1       -1 0.29703725E-01 0.61294052E+03</pdfrwt>
<totfact> 0.58942706E+02</totfact>
</mgrwt>
</event>
<event>
 4    1  0.7145298E-006  0.5690292E+03  0.7818608E-02  0.9971829E-01
          1   -1    0    0  501    0  0.00000000000E+00  0.00000000000E+00  0.80127705006E+03  0.80127705008E+03  0.50400000000E-02 0. -1.
         -1   -1    0    0    0  501 -0.00000000000E+00 -0.00000000000E+00 -0.10102442871E+03  0.10102442884E+03  0.50400000000E-02 0.  1.
    5000001    1    1    2    0    0  0.73588270874E+02  0.15510971324E+03  0.54179301692E+03  0.59989826633E+03  0.19200000000E+03 0.  0.
   -5000001    1    1    2    0    0 -0.73588270874E+02 -0.15510971324E+03  0.15845960442E+03  0.30240321259E+03  0.19200000000E+03 0.  0.
<mgrwt>
<rscale>  0 0.56902920E+03</rscale>
<asrwt>0</asrwt>
<pdfrwt beam="1">  1        1 0.11446816E+00 0.56902920E+03</pdfrwt>
<pdfrwt beam="2">  1       -1 0.14432060E-01 0.56902920E+03</pdfrwt>
<totfact> 0.87571780E+02</totfact>
</mgrwt>
</event>
<event>
 4    1  0.7145298E-006  0.5426793E+03  0.7818608E-02  0.1003203E+00
          1   -1    0    0  501    0  0.00000000000E+00  0.00000000000E+00  0.98301423427E+02  0.98301423556E+02  0.50400000000E-02 0. -1.
         -1   -1    0    0    0  501 -0.00000000000E+00 -0.00000000000E+00 -0.74897401090E+03  0.74897401092E+03  0.50400000000E-02 0.  1.
    5000001    1    1    2    0    0 -0.14242200170E+03 -0.12811178922E+03 -0.31279206230E+03  0.41400426489E+03  0.19200000000E+03 0.  0.
   -5000001    1    1    2    0    0  0.14242200170E+03  0.12811178922E+03 -0.33788052517E+03  0.43327116959E+03  0.19200000000E+03 0.  0.
<mgrwt>
<rscale>  0 0.54267932E+03</rscale>
<asrwt>0</asrwt>
<pdfrwt beam="1">  1        1 0.14043061E-01 0.54267932E+03</pdfrwt>
<pdfrwt beam="2">  1       -1 0.10699628E+00 0.54267932E+03</pdfrwt>
<totfact> 0.34938248E+02</totfact>
</mgrwt>
</event>
<event>
 4    1  0.7145298E-006  0.7970912E+03  0.7818608E-02  0.9564237E-01
          1   -1    0    0  501    0  0.00000000000E+00  0.00000000000E+00  0.45532236748E+03  0.45532236751E+03  0.50400000000E-02 0. -1.
         -1   -1    0    0    0  501 -0.00000000000E+00 -0.00000000000E+00 -0.34884863990E+03  0.34884863993E+03  0.50400000000E-02 0.  1.
    5000001    1    1    2    0    0  0.24582574062E+03 -0.24064318543E+03 -0.75908712384E+01  0.39403179919E+03  0.19200000000E+03 0.  0.
   -5000001    1    1    2    0    0 -0.24582574062E+03  0.24064318543E+03  0.11406459882E+03  0.41013920825E+03  0.19200000000E+03 0.  0.
<mgrwt>
<rscale>  0 0.79709118E+03</rscale>
<asrwt>0</asrwt>
<pdfrwt beam="1">  1        1 0.65046053E-01 0.79709118E+03</pdfrwt>
<pdfrwt beam="2">  1       -1 0.49835520E-01 0.79709118E+03</pdfrwt>
<totfact> 0.22737578E+02</totfact>
</mgrwt>
</event>
<event>
 4    1  0.7145298E-006  0.6811402E+03  0.7818608E-02  0.9750040E-01
          1   -1    0    0  501    0  0.00000000000E+00  0.00000000000E+00  0.19236956079E+03  0.19236956085E+03  0.50400000000E-02 0.  1.
         -1   -1    0    0    0  501 -0.00000000000E+00 -0.00000000000E+00 -0.60294354289E+03  0.60294354291E+03  0.50400000000E-02 0. -1.
    5000001    1    1    2    0    0 -0.16322178978E+03  0.44147867214E+02 -0.46776429151E+03  0.53315834351E+03  0.19200000000E+03 0.  0.
   -5000001    1    1    2    0    0  0.16322178978E+03 -0.44147867214E+02  0.57190309404E+02  0.26215476026E+03  0.19200000000E+03 0.  0.
<mgrwt>
<rscale>  0 0.68114018E+03</rscale>
<asrwt>0</asrwt>
<pdfrwt beam="1">  1        1 0.27481366E-01 0.68114018E+03</pdfrwt>
<pdfrwt beam="2">  1       -1 0.86134791E-01 0.68114018E+03</pdfrwt>
<totfact> 0.23262399E+02</totfact>
</mgrwt>
</event>
<event>
 4    1  0.7145298E-006  0.4621584E+03  0.7818608E-02  0.1024157E+00
         -1   -1    0    0    0  501 -0.00000000000E+00  0.00000000000E+00  0.19929792109E+02  0.19929792746E+02  0.50400000000E-02 0. -1.
          1   -1    0    0  501    0  0.00000000000E+00 -0.00000000000E+00 -0.26792848066E+04  0.26792848066E+04  0.50400000000E-02 0.  1.
    5000001    1    1    2    0    0 -0.39274505201E+02 -0.37555967770E+02 -0.20103009601E+04  0.20201799147E+04  0.19200000000E+03 0.  0.
   -5000001    1    1    2    0    0  0.39274505201E+02  0.37555967770E+02 -0.64905405441E+03  0.67903468469E+03  0.19200000000E+03 0.  0.
<mgrwt>
<rscale>  0 0.46215837E+03</rscale>
<asrwt>0</asrwt>
<pdfrwt beam="1">  1        1 0.38275474E+00 0.46215837E+03</pdfrwt>
<pdfrwt beam="2">  1       -1 0.28471149E-02 0.46215837E+03</pdfrwt>
<totfact> 0.64383034E+02</totfact>
</mgrwt>
</event>
<event>
 4    1  0.7145298E-006  0.1107375E+04  0.7818608E-02  0.9198033E-01
         -1   -1    0    0    0  501 -0.00000000000E+00  0.00000000000E+00  0.15190612252E+03  0.15190612260E+03  0.50400000000E-02 0. -1.
          1   -1    0    0  501    0  0.00000000000E+00 -0.00000000000E+00 -0.20181540284E+04  0.20181540284E+04  0.50400000000E-02 0.  1.
    5000001    1    1    2    0    0  0.12704226243E+03  0.45813731808E+03 -0.13426678628E+04  0.14372371163E+04  0.19200000000E+03 0.  0.
   -5000001    1    1    2    0    0 -0.12704226243E+03 -0.45813731808E+03 -0.52358004302E+03  0.73282303465E+03  0.19200000000E+03 0.  0.
<mgrwt>
<rscale>  0 0.11073752E+04</rscale>
<asrwt>0</asrwt>
<pdfrwt beam="1">  1        1 0.28830770E+00 0.11073752E+04</pdfrwt>
<pdfrwt beam="2">  1       -1 0.21700876E-01 0.11073752E+04</pdfrwt>
<totfact> 0.64548165E+01</totfact>
</mgrwt>
</event>
<event>
 4    1  0.7145298E-006  0.7276147E+03  0.7818608E-02  0.9671139E-01
          1   -1    0    0  501    0  0.00000000000E+00  0.00000000000E+00  0.11173930366E+04  0.11173930367E+04  0.50400000000E-02 0. -1.
         -1   -1    0    0    0  501 -0.00000000000E+00 -0.00000000000E+00 -0.11845053209E+03  0.11845053220E+03  0.50400000000E-02 0.  1.
    5000001    1    1    2    0    0 -0.14906045688E+03  0.10175306103E+03  0.92551407172E+03  0.96229569374E+03  0.19200000000E+03 0.  0.
   -5000001    1    1    2    0    0  0.14906045688E+03 -0.10175306103E+03  0.73428432833E+02  0.27354787512E+03  0.19200000000E+03 0.  0.
<mgrwt>
<rscale>  0 0.72761473E+03</rscale>
<asrwt>0</asrwt>
<pdfrwt beam="1">  1        1 0.15962757E+00 0.72761473E+03</pdfrwt>
<pdfrwt beam="2">  1       -1 0.16921505E-01 0.72761473E+03</pdfrwt>
<totfact> 0.38617155E+02</totfact>
</mgrwt>
</event>
<event>
 4    1  0.7145298E-006  0.4720572E+03  0.7818608E-02  0.1021341E+00
          1   -1    0    0  501    0  0.00000000000E+00  0.00000000000E+00  0.14468406917E+03  0.14468406926E+03  0.50400000000E-02 0.  1.
         -1   -1    0    0    0  501 -0.00000000000E+00 -0.00000000000E+00 -0.38504241439E+03  0.38504241442E+03  0.50400000000E-02 0. -1.
    5000001    1    1    2    0    0  0.35760178877E+02 -0.10005779573E+03 -0.21771824164E+03  0.30912066515E+03  0.19200000000E+03 0.  0.
   -5000001    1    1    2    0    0 -0.35760178877E+02  0.10005779573E+03 -0.22640103575E+02  0.22060581853E+03  0.19200000000E+03 0.  0.
<mgrwt>
<rscale>  0 0.47205721E+03</rscale>
<asrwt>0</asrwt>
<pdfrwt beam="1">  1        1 0.20669153E-01 0.47205721E+03</pdfrwt>
<pdfrwt beam="2">  1       -1 0.55006059E-01 0.47205721E+03</pdfrwt>
<totfact> 0.84300997E+02</totfact>
</mgrwt>
</event>
<event>
 4    1  0.7145298E-006  0.1321849E+04  0.7818608E-02  0.9012416E-01
         -1   -1    0    0    0  501 -0.00000000000E+00  0.00000000000E+00  0.64916075480E+03  0.64916075482E+03  0.50400000000E-02 0. -1.
          1   -1    0    0  501    0  0.00000000000E+00 -0.00000000000E+00 -0.67290166745E+03  0.67290166747E+03  0.50400000000E-02 0.  1.
    5000001    1    1    2    0    0  0.35674871122E+03 -0.37961485822E+03  0.34676828619E+03  0.65459096224E+03  0.19200000000E+03 0.  0.
   -5000001    1    1    2    0    0 -0.35674871122E+03  0.37961485822E+03 -0.37050919884E+03  0.66747146004E+03  0.19200000000E+03 0.  0.
<mgrwt>
<rscale>  0 0.13218492E+04</rscale>
<asrwt>0</asrwt>
<pdfrwt beam="1">  1        1 0.96128810E-01 0.13218492E+04</pdfrwt>
<pdfrwt beam="2">  1       -1 0.92737251E-01 0.13218492E+04</pdfrwt>
<totfact> 0.35872322E+01</totfact>
</mgrwt>
</event>
<event>
 4    1  0.7145298E-006  0.1357156E+04  0.7818608E-02  0.8985429E-01
          1   -1    0    0  501    0  0.00000000000E+00  0.00000000000E+00  0.34373977437E+03  0.34373977441E+03  0.50400000000E-02 0.  1.
         -1   -1    0    0    0  501 -0.00000000000E+00 -0.00000000000E+00 -0.13395838765E+04  0.13395838765E+04  0.50400000000E-02 0. -1.
    5000001    1    1    2    0    0 -0.56573628563E+03 -0.26786678499E+03 -0.27675977598E+03  0.71082355967E+03  0.19200000000E+03 0.  0.
   -5000001    1    1    2    0    0  0.56573628563E+03  0.26786678499E+03 -0.71908432617E+03  0.97250009127E+03  0.19200000000E+03 0.  0.
<mgrwt>
<rscale>  0 0.13571562E+04</rscale>
<asrwt>0</asrwt>
<pdfrwt beam="1">  1        1 0.49105683E-01 0.13571562E+04</pdfrwt>
<pdfrwt beam="2">  1       -1 0.19136912E+00 0.13571562E+04</pdfrwt>
<totfact> 0.13686049E+01</totfact>
</mgrwt>
</event>
<event>
 4    1  0.7145298E-006  0.5326132E+03  0.7818608E-02  0.1005600E+00
          1   -1    0    0  501    0  0.00000000000E+00  0.00000000000E+00  0.11487534355E+03  0.11487534366E+03  0.50400000000E-02 0.  1.
         -1   -1    0    0    0  501 -0.00000000000E+00 -0.00000000000E+00 -0.61735801273E+03  0.61735801276E+03  0.50400000000E-02 0. -1.
    5000001    1    1    2    0    0  0.12807069527E+03  0.10946532795E+03 -0.35476661812E+03  0.43715914075E+03  0.19200000000E+03 0.  0.
   -5000001    1    1    2    0    0 -0.12807069527E+03 -0.10946532795E+03 -0.14771605107E+03  0.29507421567E+03  0.19200000000E+03 0.  0.
<mgrwt>
<rscale>  0 0.53261323E+03</rscale>
<asrwt>0</asrwt>
<pdfrwt beam="1">  1        1 0.16410764E-01 0.53261323E+03</pdfrwt>
<pdfrwt beam="2">  1       -1 0.88194000E-01 0.53261323E+03</pdfrwt>
<totfact> 0.43765735E+02</totfact>
</mgrwt>
</event>
<event>
 4    1  0.7145298E-006  0.4006801E+03  0.7818608E-02  0.1043544E+00
         -1   -1    0    0    0  501 -0.00000000000E+00  0.00000000000E+00  0.29040650979E+03  0.29040650984E+03  0.50400000000E-02 0.  1.
          1   -1    0    0  501    0  0.00000000000E+00 -0.00000000000E+00 -0.13820675879E+03  0.13820675888E+03  0.50400000000E-02 0. -1.
    5000001    1    1    2    0    0 -0.40658499638E+02 -0.39840463075E+02  0.70070786154E+02  0.21216571628E+03  0.19200000000E+03 0.  0.
   -5000001    1    1    2    0    0  0.40658499638E+02  0.39840463075E+02  0.82128964848E+02  0.21644755244E+03  0.19200000000E+03 0.  0.
<mgrwt>
<rscale>  0 0.40068013E+03</rscale>
<asrwt>0</asrwt>
<pdfrwt beam="1">  1        1 0.19743822E-01 0.40068013E+03</pdfrwt>
<pdfrwt beam="2">  1       -1 0.41486645E-01 0.40068013E+03</pdfrwt>
<totfact> 0.15100140E+03</totfact>
</mgrwt>
</event>
<event>
 4    1  0.7145298E-006  0.9448505E+03  0.7818608E-02  0.9371190E-01
         -1   -1    0    0    0  501 -0.00000000000E+00  0.00000000000E+00  0.62480431156E+03  0.62480431158E+03  0.50400000000E-02 0. -1.
          1   -1    0    0  501    0  0.00000000000E+00 -0.00000000000E+00 -0.35720881186E+03  0.35720881190E+03  0.50400000000E-02 0.  1.
    5000001    1    1    2    0    0 -0.66969451858E+00  0.34102889670E+03 -0.14122375281E+03  0.41606406385E+03  0.19200000000E+03 0.  0.
   -5000001    1    1    2    0    0  0.66969451858E+00 -0.34102889670E+03  0.40881925251E+03  0.56594905963E+03  0.19200000000E+03 0.  0.
<mgrwt>
<rscale>  0 0.94485048E+03</rscale>
<asrwt>0</asrwt>
<pdfrwt beam="1">  1        1 0.51029830E-01 0.94485048E+03</pdfrwt>
<pdfrwt beam="2">  1       -1 0.89257758E-01 0.94485048E+03</pdfrwt>
<totfact> 0.95133395E+01</totfact>
</mgrwt>
</event>
<event>
 4    1  0.7145298E-006  0.5436366E+03  0.7818608E-02  0.1002978E+00
          1   -1    0    0  501    0  0.00000000000E+00  0.00000000000E+00  0.30498818935E+03  0.30498818939E+03  0.50400000000E-02 0.  1.
         -1   -1    0    0    0  501 -0.00000000000E+00 -0.00000000000E+00 -0.24225589414E+03  0.24225589419E+03  0.50400000000E-02 0. -1.
    5000001    1    1    2    0    0  0.13300901422E+03 -0.12819281015E+03  0.85541415731E+02  0.27983232165E+03  0.19200000000E+03 0.  0.
   -5000001    1    1    2    0    0 -0.13300901422E+03  0.12819281015E+03 -0.22809120519E+02  0.26741176192E+03  0.19200000000E+03 0.  0.
<mgrwt>
<rscale>  0 0.54363659E+03</rscale>
<asrwt>0</asrwt>
<pdfrwt beam="1">  1        1 0.43569742E-01 0.54363659E+03</pdfrwt>
<pdfrwt beam="2">  1       -1 0.34607985E-01 0.54363659E+03</pdfrwt>
<totfact> 0.75292817E+02</totfact>
</mgrwt>
</event>
<event>
 4    1  0.7145298E-006  0.5894786E+03  0.7818608E-02  0.9927478E-01
          1   -1    0    0  501    0  0.00000000000E+00  0.00000000000E+00  0.10560613052E+04  0.10560613052E+04  0.50400000000E-02 0.  1.
         -1   -1    0    0    0  501 -0.00000000000E+00 -0.00000000000E+00 -0.82259657546E+02  0.82259657700E+02  0.50400000000E-02 0. -1.
    5000001    1    1    2    0    0 -0.22893703071E+02 -0.19151193391E+03  0.70542955381E+03  0.75610567903E+03  0.19200000000E+03 0.  0.
   -5000001    1    1    2    0    0  0.22893703071E+02  0.19151193391E+03  0.26837209381E+03  0.38221528385E+03  0.19200000000E+03 0.  0.
<mgrwt>
<rscale>  0 0.58947855E+03</rscale>
<asrwt>0</asrwt>
<pdfrwt beam="1">  1        1 0.15086590E+00 0.58947855E+03</pdfrwt>
<pdfrwt beam="2">  1       -1 0.11751380E-01 0.58947855E+03</pdfrwt>
<totfact> 0.77448454E+02</totfact>
</mgrwt>
</event>
<event>
 4    1  0.7145298E-006  0.9241379E+03  0.7818608E-02  0.9395901E-01
          1   -1    0    0  501    0  0.00000000000E+00  0.00000000000E+00  0.10223745985E+04  0.10223745986E+04  0.50400000000E-02 0.  1.
         -1   -1    0    0    0  501 -0.00000000000E+00 -0.00000000000E+00 -0.20883511695E+03  0.20883511701E+03  0.50400000000E-02 0. -1.
    5000001    1    1    2    0    0 -0.24475861633E+03  0.22295654399E+03  0.75169195817E+03  0.84351716091E+03  0.19200000000E+03 0.  0.
   -5000001    1    1    2    0    0  0.24475861633E+03 -0.22295654399E+03  0.61847523432E+02  0.38769255465E+03  0.19200000000E+03 0.  0.
<mgrwt>
<rscale>  0 0.92413791E+03</rscale>
<asrwt>0</asrwt>
<pdfrwt beam="1">  1        1 0.14605352E+00 0.92413791E+03</pdfrwt>
<pdfrwt beam="2">  1       -1 0.29833588E-01 0.92413791E+03</pdfrwt>
<totfact> 0.17170544E+02</totfact>
</mgrwt>
</event>
<event>
 4    1  0.7145298E-006  0.6958279E+03  0.7818608E-02  0.9724394E-01
         -1   -1    0    0    0  501 -0.00000000000E+00  0.00000000000E+00  0.71112021133E+03  0.71112021135E+03  0.50400000000E-02 0.  1.
          1   -1    0    0  501    0  0.00000000000E+00 -0.00000000000E+00 -0.17021611172E+03  0.17021611180E+03  0.50400000000E-02 0. -1.
    5000001    1    1    2    0    0  0.19057950354E+03  0.84437854186E+02  0.14831320418E+02  0.28378559945E+03  0.19200000000E+03 0.  0.
   -5000001    1    1    2    0    0 -0.19057950354E+03 -0.84437854186E+02  0.52607277919E+03  0.59755072370E+03  0.19200000000E+03 0.  0.
<mgrwt>
<rscale>  0 0.69582790E+03</rscale>
<asrwt>0</asrwt>
<pdfrwt beam="1">  1        1 0.24316588E-01 0.69582790E+03</pdfrwt>
<pdfrwt beam="2">  1       -1 0.10158860E+00 0.69582790E+03</pdfrwt>
<totfact> 0.18893155E+02</totfact>
</mgrwt>
</event>
<event>
 4    1  0.7145298E-006  0.7406202E+03  0.7818608E-02  0.9650182E-01
         -1   -1    0    0    0  501 -0.00000000000E+00  0.00000000000E+00  0.13835360906E+04  0.13835360907E+04  0.50400000000E-02 0.  1.
          1   -1    0    0  501    0  0.00000000000E+00 -0.00000000000E+00 -0.99115289296E+02  0.99115289424E+02  0.50400000000E-02 0. -1.
    5000001    1    1    2    0    0  0.24724465349E+02 -0.22533910527E+03  0.19962831500E+03  0.35791685585E+03  0.19200000000E+03 0.  0.
   -5000001    1    1    2    0    0 -0.24724465349E+02  0.22533910527E+03  0.10847924864E+04  0.11247345242E+04  0.19200000000E+03 0.  0.
<mgrwt>
<rscale>  0 0.74062023E+03</rscale>
<asrwt>0</asrwt>
<pdfrwt beam="1">  1        1 0.14159327E-01 0.74062023E+03</pdfrwt>
<pdfrwt beam="2">  1       -1 0.19764801E+00 0.74062023E+03</pdfrwt>
<totfact> 0.66647420E+01</totfact>
</mgrwt>
</event>
<event>
 4    1  0.7145298E-006  0.5030266E+03  0.7818608E-02  0.1012992E+00
          1   -1    0    0  501    0  0.00000000000E+00  0.00000000000E+00  0.27988253588E+03  0.27988253592E+03  0.50400000000E-02 0.  1.
         -1   -1    0    0    0  501 -0.00000000000E+00 -0.00000000000E+00 -0.22601962615E+03  0.22601962620E+03  0.50400000000E-02 0. -1.
    5000001    1    1    2    0    0 -0.13104406322E+03  0.88537733659E+02  0.64339097141E+02  0.25693383625E+03  0.19200000000E+03 0.  0.
   -5000001    1    1    2    0    0  0.13104406322E+03 -0.88537733659E+02 -0.10476187410E+02  0.24896832588E+03  0.19200000000E+03 0.  0.
<mgrwt>
<rscale>  0 0.50302662E+03</rscale>
<asrwt>0</asrwt>
<pdfrwt beam="1">  1        1 0.39983220E-01 0.50302662E+03</pdfrwt>
<pdfrwt beam="2">  1       -1 0.32288518E-01 0.50302662E+03</pdfrwt>
<totfact> 0.94982789E+02</totfact>
</mgrwt>
</event>
<event>
 4    1  0.7145298E-006  0.5051825E+03  0.7818608E-02  0.1012435E+00
         -1   -1    0    0    0  501 -0.00000000000E+00  0.00000000000E+00  0.11330263186E+03  0.11330263197E+03  0.50400000000E-02 0. -1.
          1   -1    0    0  501    0  0.00000000000E+00 -0.00000000000E+00 -0.56311429611E+03  0.56311429613E+03  0.50400000000E-02 0.  1.
    5000001    1    1    2    0    0  0.13601796990E+03  0.56472786324E+02 -0.32190638342E+03  0.40271302862E+03  0.19200000000E+03 0.  0.
   -5000001    1    1    2    0    0 -0.13601796990E+03 -0.56472786324E+02 -0.12790528082E+03  0.27370389949E+03  0.19200000000E+03 0.  0.
<mgrwt>
<rscale>  0 0.50518247E+03</rscale>
<asrwt>0</asrwt>
<pdfrwt beam="1">  1        1 0.80444898E-01 0.50518247E+03</pdfrwt>
<pdfrwt beam="2">  1       -1 0.16186091E-01 0.50518247E+03</pdfrwt>
<totfact> 0.12119560E+03</totfact>
</mgrwt>
</event>
<event>
 4    1  0.7145298E-006  0.6168874E+03  0.7818608E-02  0.9870976E-01
         -1   -1    0    0    0  501 -0.00000000000E+00  0.00000000000E+00  0.22770882272E+03  0.22770882277E+03  0.50400000000E-02 0. -1.
          1   -1    0    0  501    0  0.00000000000E+00 -0.00000000000E+00 -0.41780338862E+03  0.41780338865E+03  0.50400000000E-02 0.  1.
    5000001    1    1    2    0    0 -0.93118187319E+02  0.21744029659E+03 -0.44621580280E+02  0.30790642217E+03  0.19200000000E+03 0.  0.
   -5000001    1    1    2    0    0  0.93118187319E+02 -0.21744029659E+03 -0.14547298563E+03  0.33760578925E+03  0.19200000000E+03 0.  0.
<mgrwt>
<rscale>  0 0.61688741E+03</rscale>
<asrwt>0</asrwt>
<pdfrwt beam="1">  1        1 0.59686198E-01 0.61688741E+03</pdfrwt>
<pdfrwt beam="2">  1       -1 0.32529832E-01 0.61688741E+03</pdfrwt>
<totfact> 0.55752656E+02</totfact>
</mgrwt>
</event>
<event>
 4    1  0.7145298E-006  0.4818774E+03  0.7818608E-02  0.1018620E+00
         -1   -1    0    0    0  501 -0.00000000000E+00  0.00000000000E+00  0.11592930607E+03  0.11592930618E+03  0.50400000000E-02 0.  1.
          1   -1    0    0  501    0  0.00000000000E+00 -0.00000000000E+00 -0.50074878570E+03  0.50074878572E+03  0.50400000000E-02 0. -1.
    5000001    1    1    2    0    0 -0.10707724969E+03 -0.30150644373E+02 -0.31254774102E+03  0.38330756472E+03  0.19200000000E+03 0.  0.
   -5000001    1    1    2    0    0  0.10707724969E+03  0.30150644373E+02 -0.72271738605E+02  0.23337052718E+03  0.19200000000E+03 0.  0.
<mgrwt>
<rscale>  0 0.48187741E+03</rscale>
<asrwt>0</asrwt>
<pdfrwt beam="1">  1        1 0.71535539E-01 0.48187741E+03</pdfrwt>
<pdfrwt beam="2">  1       -1 0.16561330E-01 0.48187741E+03</pdfrwt>
<totfact> 0.13689300E+03</totfact>
</mgrwt>
</event>
<event>
 4    1  0.7145298E-006  0.1060555E+04  0.7818608E-02  0.9244514E-01
          1   -1    0    0  501    0  0.00000000000E+00  0.00000000000E+00  0.67482395794E+03  0.67482395796E+03  0.50400000000E-02 0.  1.
         -1   -1    0    0    0  501 -0.00000000000E+00 -0.00000000000E+00 -0.41669307187E+03  0.41669307191E+03  0.50400000000E-02 0. -1.
    5000001    1    1    2    0    0 -0.57672413539E+02 -0.49089024117E+03  0.12332295876E+03  0.54440048522E+03  0.19200000000E+03 0.  0.
   -5000001    1    1    2    0    0  0.57672413539E+02  0.49089024117E+03  0.13480792731E+03  0.54711654464E+03  0.19200000000E+03 0.  0.
<mgrwt>
<rscale>  0 0.10605555E+04</rscale>
<asrwt>0</asrwt>
<pdfrwt beam="1">  1        1 0.96403423E-01 0.10605555E+04</pdfrwt>
<pdfrwt beam="2">  1       -1 0.59527582E-01 0.10605555E+04</pdfrwt>
<totfact> 0.91938264E+01</totfact>
</mgrwt>
</event>
<event>
 4    1  0.7145298E-006  0.5863302E+03  0.7818608E-02  0.9934180E-01
          1   -1    0    0  501    0  0.00000000000E+00  0.00000000000E+00  0.65274659551E+03  0.65274659553E+03  0.50400000000E-02 0.  1.
         -1   -1    0    0    0  501 -0.00000000000E+00 -0.00000000000E+00 -0.13166790110E+03  0.13166790120E+03  0.50400000000E-02 0. -1.
    5000001    1    1    2    0    0  0.17455437305E+03  0.47687584965E+02  0.43154427921E+03  0.50580411211E+03  0.19200000000E+03 0.  0.
   -5000001    1    1    2    0    0 -0.17455437305E+03 -0.47687584965E+02  0.89534415199E+02  0.27861038461E+03  0.19200000000E+03 0.  0.
<mgrwt>
<rscale>  0 0.58633019E+03</rscale>
<asrwt>0</asrwt>
<pdfrwt beam="1">  1        1 0.93249513E-01 0.58633019E+03</pdfrwt>
<pdfrwt beam="2">  1       -1 0.18809700E-01 0.58633019E+03</pdfrwt>
<totfact> 0.76985528E+02</totfact>
</mgrwt>
</event>
<event>
 4    1  0.7145298E-006  0.5833234E+03  0.7818608E-02  0.9940622E-01
         -1   -1    0    0    0  501 -0.00000000000E+00  0.00000000000E+00  0.33571205373E+02  0.33571205751E+02  0.50400000000E-02 0. -1.
          1   -1    0    0  501    0  0.00000000000E+00 -0.00000000000E+00 -0.25339141740E+04  0.25339141740E+04  0.50400000000E-02 0.  1.
    5000001    1    1    2    0    0  0.69133024539E+01 -0.20549354155E+03 -0.91131012716E+03  0.95374290940E+03  0.19200000000E+03 0.  0.
   -5000001    1    1    2    0    0 -0.69133024539E+01  0.20549354155E+03 -0.15890328415E+04  0.16137424704E+04  0.19200000000E+03 0.  0.
<mgrwt>
<rscale>  0 0.58332342E+03</rscale>
<asrwt>0</asrwt>
<pdfrwt beam="1">  1        1 0.36198762E+00 0.58332342E+03</pdfrwt>
<pdfrwt beam="2">  1       -1 0.47958881E-02 0.58332342E+03</pdfrwt>
<totfact> 0.35699710E+02</totfact>
</mgrwt>
</event>
<event>
 4    1  0.7145298E-006  0.7338300E+03  0.7818608E-02  0.9661066E-01
         -1   -1    0    0    0  501 -0.00000000000E+00  0.00000000000E+00  0.28490985104E+03  0.28490985109E+03  0.50400000000E-02 0. -1.
          1   -1    0    0  501    0  0.00000000000E+00 -0.00000000000E+00 -0.47252361865E+03  0.47252361868E+03  0.50400000000E-02 0.  1.
    5000001    1    1    2    0    0  0.15180425351E+03  0.27333509591E+03 -0.96341009526E+02  0.37934442945E+03  0.19200000000E+03 0.  0.
   -5000001    1    1    2    0    0 -0.15180425351E+03 -0.27333509591E+03 -0.91272758086E+02  0.37808904032E+03  0.19200000000E+03 0.  0.
<mgrwt>
<rscale>  0 0.73383005E+03</rscale>
<asrwt>0</asrwt>
<pdfrwt beam="1">  1        1 0.67503374E-01 0.73383005E+03</pdfrwt>
<pdfrwt beam="2">  1       -1 0.40701407E-01 0.73383005E+03</pdfrwt>
<totfact> 0.31598990E+02</totfact>
</mgrwt>
</event>
<event>
 4    1  0.7145298E-006  0.5776753E+03  0.7818608E-02  0.9952837E-01
         -1   -1    0    0    0  501 -0.00000000000E+00  0.00000000000E+00  0.18484660087E+04  0.18484660087E+04  0.50400000000E-02 0. -1.
          1   -1    0    0  501    0  0.00000000000E+00 -0.00000000000E+00 -0.45133202616E+02  0.45133202897E+02  0.50400000000E-02 0.  1.
    5000001    1    1    2    0    0 -0.17874731003E+03  0.11626531535E+03  0.79319762978E+03  0.84350145482E+03  0.19200000000E+03 0.  0.
   -5000001    1    1    2    0    0  0.17874731003E+03 -0.11626531535E+03  0.10101351763E+04  0.10500977568E+04  0.19200000000E+03 0.  0.
<mgrwt>
<rscale>  0 0.57767531E+03</rscale>
<asrwt>0</asrwt>
<pdfrwt beam="1">  1        1 0.64475998E-02 0.57767531E+03</pdfrwt>
<pdfrwt beam="2">  1       -1 0.26406660E+00 0.57767531E+03</pdfrwt>
<totfact> 0.73249935E+01</totfact>
</mgrwt>
</event>
<event>
 4    1  0.7145298E-006  0.8578060E+03  0.7818608E-02  0.9479920E-01
         -1   -1    0    0    0  501 -0.00000000000E+00  0.00000000000E+00  0.24024186836E+03  0.24024186842E+03  0.50400000000E-02 0.  1.
          1   -1    0    0  501    0  0.00000000000E+00 -0.00000000000E+00 -0.76571907128E+03  0.76571907130E+03  0.50400000000E-02 0. -1.
    5000001    1    1    2    0    0  0.14260067015E+03  0.71488486321E+02 -0.67175896565E+03  0.71663774861E+03  0.19200000000E+03 0.  0.
   -5000001    1    1    2    0    0 -0.14260067015E+03 -0.71488486321E+02  0.14628176273E+03  0.28932319110E+03  0.19200000000E+03 0.  0.
<mgrwt>
<rscale>  0 0.85780599E+03</rscale>
<asrwt>0</asrwt>
<pdfrwt beam="1">  1        1 0.10938844E+00 0.85780599E+03</pdfrwt>
<pdfrwt beam="2">  1       -1 0.34320267E-01 0.85780599E+03</pdfrwt>
<totfact> 0.21533007E+02</totfact>
</mgrwt>
</event>
<event>
 4    1  0.7145298E-006  0.5689864E+03  0.7818608E-02  0.9971924E-01
          1   -1    0    0  501    0  0.00000000000E+00  0.00000000000E+00  0.18130351570E+03  0.18130351577E+03  0.50400000000E-02 0.  1.
         -1   -1    0    0    0  501 -0.00000000000E+00 -0.00000000000E+00 -0.44641375954E+03  0.44641375957E+03  0.50400000000E-02 0. -1.
    5000001    1    1    2    0    0  0.65491095517E+00  0.20647390482E+03 -0.17442638638E+03  0.33154255616E+03  0.19200000000E+03 0.  0.
   -5000001    1    1    2    0    0 -0.65491095517E+00 -0.20647390482E+03 -0.90683857461E+02  0.29617471918E+03  0.19200000000E+03 0.  0.
<mgrwt>
<rscale>  0 0.56898641E+03</rscale>
<asrwt>0</asrwt>
<pdfrwt beam="1">  1        1 0.25900502E-01 0.56898641E+03</pdfrwt>
<pdfrwt beam="2">  1       -1 0.63773394E-01 0.56898641E+03</pdfrwt>
<totfact> 0.47013200E+02</totfact>
</mgrwt>
</event>
<event>
 4    1  0.7145298E-006  0.6321617E+03  0.7818608E-02  0.9840839E-01
         -1   -1    0    0    0  501 -0.00000000000E+00  0.00000000000E+00  0.43463146523E+02  0.43463146816E+02  0.50400000000E-02 0. -1.
          1   -1    0    0  501    0  0.00000000000E+00 -0.00000000000E+00 -0.22986625734E+04  0.22986625734E+04  0.50400000000E-02 0.  1.
    5000001    1    1    2    0    0  0.15509547185E+03 -0.19565565294E+03 -0.10290614459E+04  0.10761817687E+04  0.19200000000E+03 0.  0.
   -5000001    1    1    2    0    0 -0.15509547185E+03  0.19565565294E+03 -0.12261379810E+04  0.12659439515E+04  0.19200000000E+03 0.  0.
<mgrwt>
<rscale>  0 0.63216172E+03</rscale>
<asrwt>0</asrwt>
<pdfrwt beam="1">  1        1 0.32838029E+00 0.63216172E+03</pdfrwt>
<pdfrwt beam="2">  1       -1 0.62090224E-02 0.63216172E+03</pdfrwt>
<totfact> 0.33485595E+02</totfact>
</mgrwt>
</event>
<event>
 4    1  0.7145298E-006  0.5634919E+03  0.7818608E-02  0.9984184E-01
          1   -1    0    0  501    0  0.00000000000E+00  0.00000000000E+00  0.72667910259E+03  0.72667910261E+03  0.50400000000E-02 0.  1.
         -1   -1    0    0    0  501 -0.00000000000E+00 -0.00000000000E+00 -0.10923773850E+03  0.10923773862E+03  0.50400000000E-02 0. -1.
    5000001    1    1    2    0    0 -0.63389411215E+02  0.14768934176E+03  0.11709354375E+03  0.27641500884E+03  0.19200000000E+03 0.  0.
   -5000001    1    1    2    0    0  0.63389411215E+02 -0.14768934176E+03  0.50034782034E+03  0.55950183238E+03  0.19200000000E+03 0.  0.
<mgrwt>
<rscale>  0 0.56349191E+03</rscale>
<asrwt>0</asrwt>
<pdfrwt beam="1">  1        1 0.10381130E+00 0.56349191E+03</pdfrwt>
<pdfrwt beam="2">  1       -1 0.15605391E-01 0.56349191E+03</pdfrwt>
<totfact> 0.89419047E+02</totfact>
</mgrwt>
</event>
<event>
 4    1  0.7145298E-006  0.5897447E+03  0.7818608E-02  0.9926914E-01
         -1   -1    0    0    0  501 -0.00000000000E+00  0.00000000000E+00  0.10797240626E+03  0.10797240638E+03  0.50400000000E-02 0. -1.
          1   -1    0    0  501    0  0.00000000000E+00 -0.00000000000E+00 -0.80529554961E+03  0.80529554963E+03  0.50400000000E-02 0.  1.
    5000001    1    1    2    0    0 -0.54807222940E+02 -0.20999156132E+03 -0.43327440415E+03  0.52123986494E+03  0.19200000000E+03 0.  0.
   -5000001    1    1    2    0    0  0.54807222940E+02  0.20999156132E+03 -0.26404873920E+03  0.39202809107E+03  0.19200000000E+03 0.  0.
<mgrwt>
<rscale>  0 0.58974468E+03</rscale>
<asrwt>0</asrwt>
<pdfrwt beam="1">  1        1 0.11504222E+00 0.58974468E+03</pdfrwt>
<pdfrwt beam="2">  1       -1 0.15424630E-01 0.58974468E+03</pdfrwt>
<totfact> 0.77995381E+02</totfact>
</mgrwt>
</event>
<event>
 4    1  0.7145298E-006  0.8157953E+03  0.7818608E-02  0.9537431E-01
         -1   -1    0    0    0  501 -0.00000000000E+00  0.00000000000E+00  0.53338694465E+02  0.53338694704E+02  0.50400000000E-02 0. -1.
          1   -1    0    0  501    0  0.00000000000E+00 -0.00000000000E+00 -0.31193205866E+04  0.31193205866E+04  0.50400000000E-02 0.  1.
    5000001    1    1    2    0    0 -0.32381337089E+03 -0.65458709259E+02 -0.20881373488E+04  0.21228098194E+04  0.19200000000E+03 0.  0.
   -5000001    1    1    2    0    0  0.32381337089E+03  0.65458709259E+02 -0.97784454333E+03  0.10498494619E+04  0.19200000000E+03 0.  0.
<mgrwt>
<rscale>  0 0.81579529E+03</rscale>
<asrwt>0</asrwt>
<pdfrwt beam="1">  1        1 0.44561711E+00 0.81579529E+03</pdfrwt>
<pdfrwt beam="2">  1       -1 0.76198155E-02 0.81579529E+03</pdfrwt>
<totfact> 0.71962657E+01</totfact>
</mgrwt>
</event>
<event>
 4    1  0.7145298E-006  0.4759549E+03  0.7818608E-02  0.1020253E+00
          1   -1    0    0  501    0  0.00000000000E+00  0.00000000000E+00  0.33002324394E+03  0.33002324398E+03  0.50400000000E-02 0.  1.
         -1   -1    0    0    0  501 -0.00000000000E+00 -0.00000000000E+00 -0.17160385638E+03  0.17160385646E+03  0.50400000000E-02 0. -1.
    5000001    1    1    2    0    0  0.79185703726E+02 -0.10654604781E+03  0.12804271255E+03  0.26623555776E+03  0.19200000000E+03 0.  0.
   -5000001    1    1    2    0    0 -0.79185703726E+02  0.10654604781E+03  0.30376675003E+02  0.23539154267E+03  0.19200000000E+03 0.  0.
<mgrwt>
<rscale>  0 0.47595488E+03</rscale>
<asrwt>0</asrwt>
<pdfrwt beam="1">  1        1 0.47146176E-01 0.47595488E+03</pdfrwt>
<pdfrwt beam="2">  1       -1 0.24514837E-01 0.47595488E+03</pdfrwt>
<totfact> 0.12331942E+03</totfact>
</mgrwt>
</event>
<event>
 4    1  0.7145298E-006  0.7200840E+03  0.7818608E-02  0.9683489E-01
          1   -1    0    0  501    0  0.00000000000E+00  0.00000000000E+00  0.14571867056E+04  0.14571867057E+04  0.50400000000E-02 0.  1.
         -1   -1    0    0    0  501 -0.00000000000E+00 -0.00000000000E+00 -0.88959263345E+02  0.88959263487E+02  0.50400000000E-02 0. -1.
    5000001    1    1    2    0    0 -0.27506167449E+03 -0.11849948322E+03  0.80299048635E+03  0.87827033052E+03  0.19200000000E+03 0.  0.
   -5000001    1    1    2    0    0  0.27506167449E+03  0.11849948322E+03  0.56523695595E+03  0.66787563863E+03  0.19200000000E+03 0.  0.
<mgrwt>
<rscale>  0 0.72008404E+03</rscale>
<asrwt>0</asrwt>
<pdfrwt beam="1">  1        1 0.20816953E+00 0.72008404E+03</pdfrwt>
<pdfrwt beam="2">  1       -1 0.12708466E-01 0.72008404E+03</pdfrwt>
<totfact> 0.36274227E+02</totfact>
</mgrwt>
</event>
<event>
 4    1  0.7145298E-006  0.4705209E+03  0.7818608E-02  0.1021773E+00
         -1   -1    0    0    0  501 -0.00000000000E+00  0.00000000000E+00  0.34418276950E+02  0.34418277319E+02  0.50400000000E-02 0. -1.
          1   -1    0    0  501    0  0.00000000000E+00 -0.00000000000E+00 -0.16080838724E+04  0.16080838724E+04  0.50400000000E-02 0.  1.
    5000001    1    1    2    0    0 -0.88434465036E+02  0.10230966298E+03 -0.83564867546E+03  0.86802110028E+03  0.19200000000E+03 0.  0.
   -5000001    1    1    2    0    0  0.88434465036E+02 -0.10230966298E+03 -0.73801691996E+03  0.77448104941E+03  0.19200000000E+03 0.  0.
<mgrwt>
<rscale>  0 0.47052089E+03</rscale>
<asrwt>0</asrwt>
<pdfrwt beam="1">  1        1 0.22972622E+00 0.47052089E+03</pdfrwt>
<pdfrwt beam="2">  1       -1 0.49168978E-02 0.47052089E+03</pdfrwt>
<totfact> 0.12945402E+03</totfact>
</mgrwt>
</event>
<event>
 4    1  0.7145298E-006  0.7486742E+03  0.7818608E-02  0.9637433E-01
          1   -1    0    0  501    0  0.00000000000E+00  0.00000000000E+00  0.65666061774E+03  0.65666061776E+03  0.50400000000E-02 0. -1.
         -1   -1    0    0    0  501 -0.00000000000E+00 -0.00000000000E+00 -0.21339527741E+03  0.21339527747E+03  0.50400000000E-02 0.  1.
    5000001    1    1    2    0    0  0.16553436448E+03  0.63781001074E+02  0.53301951443E+03  0.59366947427E+03  0.19200000000E+03 0.  0.
   -5000001    1    1    2    0    0 -0.16553436448E+03 -0.63781001074E+02 -0.89754174100E+02  0.27638642096E+03  0.19200000000E+03 0.  0.
<mgrwt>
<rscale>  0 0.74867423E+03</rscale>
<asrwt>0</asrwt>
<pdfrwt beam="1">  1        1 0.93808660E-01 0.74867423E+03</pdfrwt>
<pdfrwt beam="2">  1       -1 0.30485040E-01 0.74867423E+03</pdfrwt>
<totfact> 0.33494834E+02</totfact>
</mgrwt>
</event>
<event>
 4    1  0.7145298E-006  0.1009907E+04  0.7818608E-02  0.9297745E-01
          1   -1    0    0  501    0  0.00000000000E+00  0.00000000000E+00  0.68198074307E+03  0.68198074309E+03  0.50400000000E-02 0.  1.
         -1   -1    0    0    0  501 -0.00000000000E+00 -0.00000000000E+00 -0.37387891633E+03  0.37387891637E+03  0.50400000000E-02 0. -1.
    5000001    1    1    2    0    0  0.45513200977E+03 -0.78689585711E+02  0.81790012850E+02  0.50684396358E+03  0.19200000000E+03 0.  0.
   -5000001    1    1    2    0    0 -0.45513200977E+03  0.78689585711E+02  0.22631181389E+03  0.54901569588E+03  0.19200000000E+03 0.  0.
<mgrwt>
<rscale>  0 0.10099074E+04</rscale>
<asrwt>0</asrwt>
<pdfrwt beam="1">  1        1 0.97425820E-01 0.10099074E+04</pdfrwt>
<pdfrwt beam="2">  1       -1 0.53411274E-01 0.10099074E+04</pdfrwt>
<totfact> 0.11217283E+02</totfact>
</mgrwt>
</event>
<event>
 4    1  0.7145298E-006  0.4894662E+03  0.7818608E-02  0.1016566E+00
         -1   -1    0    0    0  501 -0.00000000000E+00  0.00000000000E+00  0.20801333089E+02  0.20801333700E+02  0.50400000000E-02 0. -1.
          1   -1    0    0  501    0  0.00000000000E+00 -0.00000000000E+00 -0.28793487603E+04  0.28793487603E+04  0.50400000000E-02 0.  1.
    5000001    1    1    2    0    0 -0.60042438854E+02 -0.11216735516E+03 -0.19194391842E+04  0.19332090916E+04  0.19200000000E+03 0.  0.
   -5000001    1    1    2    0    0  0.60042438854E+02  0.11216735516E+03 -0.93910824297E+03  0.96694100235E+03  0.19200000000E+03 0.  0.
<mgrwt>
<rscale>  0 0.48946621E+03</rscale>
<asrwt>0</asrwt>
<pdfrwt beam="1">  1        1 0.41133528E+00 0.48946621E+03</pdfrwt>
<pdfrwt beam="2">  1       -1 0.29716209E-02 0.48946621E+03</pdfrwt>
<totfact> 0.45028786E+02</totfact>
</mgrwt>
</event>
<event>
 4    1  0.7145298E-006  0.4180128E+03  0.7818608E-02  0.1037715E+00
         -1   -1    0    0    0  501 -0.00000000000E+00  0.00000000000E+00  0.36610977221E+02  0.36610977568E+02  0.50400000000E-02 0.  1.
          1   -1    0    0  501    0  0.00000000000E+00 -0.00000000000E+00 -0.11931854235E+04  0.11931854235E+04  0.50400000000E-02 0. -1.
    5000001    1    1    2    0    0  0.82268525312E+02 -0.28071067428E+01 -0.59773441255E+03  0.63318750623E+03  0.19200000000E+03 0.  0.
   -5000001    1    1    2    0    0 -0.82268525312E+02  0.28071067428E+01 -0.55884003370E+03  0.59660889481E+03  0.19200000000E+03 0.  0.
<mgrwt>
<rscale>  0 0.41801284E+03</rscale>
<asrwt>0</asrwt>
<pdfrwt beam="1">  1        1 0.17045504E+00 0.41801284E+03</pdfrwt>
<pdfrwt beam="2">  1       -1 0.52301404E-02 0.41801284E+03</pdfrwt>
<totfact> 0.21921685E+03</totfact>
</mgrwt>
</event>
<event>
 4    1  0.7145298E-006  0.5983926E+03  0.7818608E-02  0.9908747E-01
         -1   -1    0    0    0  501 -0.00000000000E+00  0.00000000000E+00  0.11828246115E+03  0.11828246126E+03  0.50400000000E-02 0. -1.
          1   -1    0    0  501    0  0.00000000000E+00 -0.00000000000E+00 -0.75681907311E+03  0.75681907313E+03  0.50400000000E-02 0.  1.
    5000001    1    1    2    0    0  0.19464554003E+03  0.90994015245E+02 -0.43706012502E+03  0.52350009546E+03  0.19200000000E+03 0.  0.
   -5000001    1    1    2    0    0 -0.19464554003E+03 -0.90994015245E+02 -0.20147648694E+03  0.35160143892E+03  0.19200000000E+03 0.  0.
<mgrwt>
<rscale>  0 0.59839259E+03</rscale>
<asrwt>0</asrwt>
<pdfrwt beam="1">  1        1 0.10811701E+00 0.59839259E+03</pdfrwt>
<pdfrwt beam="2">  1       -1 0.16897495E-01 0.59839259E+03</pdfrwt>
<totfact> 0.73872743E+02</totfact>
</mgrwt>
</event>
<event>
 4    1  0.7145298E-006  0.6525105E+03  0.7818608E-02  0.9802080E-01
          1   -1    0    0  501    0  0.00000000000E+00  0.00000000000E+00  0.64821441589E+03  0.64821441591E+03  0.50400000000E-02 0.  1.
         -1   -1    0    0    0  501 -0.00000000000E+00 -0.00000000000E+00 -0.16420875646E+03  0.16420875654E+03  0.50400000000E-02 0. -1.
    5000001    1    1    2    0    0  0.24253624850E+03  0.64750587251E+01  0.37087073978E+03  0.48298536608E+03  0.19200000000E+03 0.  0.
   -5000001    1    1    2    0    0 -0.24253624850E+03 -0.64750587251E+01  0.11313491965E+03  0.32943780637E+03  0.19200000000E+03 0.  0.
<mgrwt>
<rscale>  0 0.65251048E+03</rscale>
<asrwt>0</asrwt>
<pdfrwt beam="1">  1        1 0.92602061E-01 0.65251048E+03</pdfrwt>
<pdfrwt beam="2">  1       -1 0.23458393E-01 0.65251048E+03</pdfrwt>
<totfact> 0.53693643E+02</totfact>
</mgrwt>
</event>
<event>
 4    1  0.7145298E-006  0.8245906E+03  0.7818608E-02  0.9525090E-01
          1   -1    0    0  501    0  0.00000000000E+00  0.00000000000E+00  0.29291073957E+03  0.29291073961E+03  0.50400000000E-02 0.  1.
         -1   -1    0    0    0  501 -0.00000000000E+00 -0.00000000000E+00 -0.58033867348E+03  0.58033867350E+03  0.50400000000E-02 0. -1.
    5000001    1    1    2    0    0  0.14276276257E+03 -0.32446943701E+03 -0.52234854581E+02  0.40651457780E+03  0.19200000000E+03 0.  0.
   -5000001    1    1    2    0    0 -0.14276276257E+03  0.32446943701E+03 -0.23519307933E+03  0.46673483531E+03  0.19200000000E+03 0.  0.
<mgrwt>
<rscale>  0 0.82459064E+03</rscale>
<asrwt>0</asrwt>
<pdfrwt beam="1">  1        1 0.41844391E-01 0.82459064E+03</pdfrwt>
<pdfrwt beam="2">  1       -1 0.82905525E-01 0.82459064E+03</pdfrwt>
<totfact> 0.14552938E+02</totfact>
</mgrwt>
</event>
<event>
 4    1  0.7145298E-006  0.6884687E+03  0.7818608E-02  0.9737158E-01
         -1   -1    0    0    0  501 -0.00000000000E+00  0.00000000000E+00  0.15631920206E+04  0.15631920206E+04  0.50400000000E-02 0. -1.
          1   -1    0    0  501    0  0.00000000000E+00 -0.00000000000E+00 -0.75804682764E+02  0.75804682932E+02  0.50400000000E-02 0.  1.
    5000001    1    1    2    0    0 -0.13728461575E+03 -0.15103998597E+03  0.12196619287E+04  0.12514389172E+04  0.19200000000E+03 0.  0.
   -5000001    1    1    2    0    0  0.13728461575E+03  0.15103998597E+03  0.26772540915E+03  0.38755778638E+03  0.19200000000E+03 0.  0.
<mgrwt>
<rscale>  0 0.68846866E+03</rscale>
<asrwt>0</asrwt>
<pdfrwt beam="1">  1        1 0.10829241E-01 0.68846866E+03</pdfrwt>
<pdfrwt beam="2">  1       -1 0.22331313E+00 0.68846866E+03</pdfrwt>
<totfact> 0.64818908E+01</totfact>
</mgrwt>
</event>
<event>
 4    1  0.7145298E-006  0.6957835E+03  0.7818608E-02  0.9724470E-01
         -1   -1    0    0    0  501 -0.00000000000E+00  0.00000000000E+00  0.70076602354E+02  0.70076602535E+02  0.50400000000E-02 0. -1.
          1   -1    0    0  501    0  0.00000000000E+00 -0.00000000000E+00 -0.17270912207E+04  0.17270912207E+04  0.50400000000E-02 0.  1.
    5000001    1    1    2    0    0  0.13646555318E+03 -0.18895900947E+03 -0.12746637691E+04  0.13099465938E+04  0.19200000000E+03 0.  0.
   -5000001    1    1    2    0    0 -0.13646555318E+03  0.18895900947E+03 -0.38235084929E+03  0.48722122944E+03  0.19200000000E+03 0.  0.
<mgrwt>
<rscale>  0 0.69578354E+03</rscale>
<asrwt>0</asrwt>
<pdfrwt beam="1">  1        1 0.24672729E+00 0.69578354E+03</pdfrwt>
<pdfrwt beam="2">  1       -1 0.10010944E-01 0.69578354E+03</pdfrwt>
<totfact> 0.35764232E+02</totfact>
</mgrwt>
</event>
<event>
 4    1  0.7145298E-006  0.4260104E+03  0.7818608E-02  0.1035128E+00
          1   -1    0    0  501    0  0.00000000000E+00  0.00000000000E+00  0.10494332287E+04  0.10494332287E+04  0.50400000000E-02 0.  1.
         -1   -1    0    0    0  501 -0.00000000000E+00 -0.00000000000E+00 -0.43234011306E+02  0.43234011600E+02  0.50400000000E-02 0. -1.
    5000001    1    1    2    0    0 -0.73301865942E+02 -0.40676317066E+02  0.60175540029E+03  0.63718230366E+03  0.19200000000E+03 0.  0.
   -5000001    1    1    2    0    0  0.73301865942E+02  0.40676317066E+02  0.40444381708E+03  0.45548493663E+03  0.19200000000E+03 0.  0.
<mgrwt>
<rscale>  0 0.42601037E+03</rscale>
<asrwt>0</asrwt>
<pdfrwt beam="1">  1        1 0.14991904E+00 0.42601037E+03</pdfrwt>
<pdfrwt beam="2">  1       -1 0.61762872E-02 0.42601037E+03</pdfrwt>
<totfact> 0.21417469E+03</totfact>
</mgrwt>
</event>
<event>
 4    1  0.7145298E-006  0.8568370E+03  0.7818608E-02  0.9481206E-01
         -1   -1    0    0    0  501 -0.00000000000E+00  0.00000000000E+00  0.43583119927E+03  0.43583119930E+03  0.50400000000E-02 0. -1.
          1   -1    0    0  501    0  0.00000000000E+00 -0.00000000000E+00 -0.42113188699E+03  0.42113188702E+03  0.50400000000E-02 0.  1.
    5000001    1    1    2    0    0  0.29829622167E+02 -0.37202341591E+03  0.93311049388E+02  0.42995602133E+03  0.19200000000E+03 0.  0.
   -5000001    1    1    2    0    0 -0.29829622167E+02  0.37202341591E+03 -0.78611737106E+02  0.42700706499E+03  0.19200000000E+03 0.  0.
<mgrwt>
<rscale>  0 0.85683701E+03</rscale>
<asrwt>0</asrwt>
<pdfrwt beam="1">  1        1 0.60161698E-01 0.85683701E+03</pdfrwt>
<pdfrwt beam="2">  1       -1 0.62261600E-01 0.85683701E+03</pdfrwt>
<totfact> 0.16331562E+02</totfact>
</mgrwt>
</event>
<event>
 4    1  0.7145298E-006  0.5741270E+03  0.7818608E-02  0.9960587E-01
          1   -1    0    0  501    0  0.00000000000E+00  0.00000000000E+00  0.83888455208E+02  0.83888455359E+02  0.50400000000E-02 0.  1.
         -1   -1    0    0    0  501 -0.00000000000E+00 -0.00000000000E+00 -0.98232180905E+03  0.98232180906E+03  0.50400000000E-02 0. -1.
    5000001    1    1    2    0    0  0.18604325857E+03 -0.88712839537E+02 -0.34649719868E+03  0.44654940449E+03  0.19200000000E+03 0.  0.
   -5000001    1    1    2    0    0 -0.18604325857E+03  0.88712839537E+02 -0.55193615516E+03  0.61966085993E+03  0.19200000000E+03 0.  0.
<mgrwt>
<rscale>  0 0.57412702E+03</rscale>
<asrwt>0</asrwt>
<pdfrwt beam="1">  1        1 0.11984066E-01 0.57412702E+03</pdfrwt>
<pdfrwt beam="2">  1       -1 0.14033168E+00 0.57412702E+03</pdfrwt>
<totfact> 0.22275742E+02</totfact>
</mgrwt>
</event>
<event>
 4    1  0.7145298E-006  0.4855761E+03  0.7818608E-02  0.1017614E+00
         -1   -1    0    0    0  501 -0.00000000000E+00  0.00000000000E+00  0.10019482757E+03  0.10019482770E+03  0.50400000000E-02 0.  1.
          1   -1    0    0  501    0  0.00000000000E+00 -0.00000000000E+00 -0.58831418863E+03  0.58831418865E+03  0.50400000000E-02 0. -1.
    5000001    1    1    2    0    0 -0.77689225496E+02 -0.64794608805E+02 -0.89720445670E+02  0.23483550724E+03  0.19200000000E+03 0.  0.
   -5000001    1    1    2    0    0  0.77689225496E+02  0.64794608805E+02 -0.39839891539E+03  0.45367350912E+03  0.19200000000E+03 0.  0.
<mgrwt>
<rscale>  0 0.48557611E+03</rscale>
<asrwt>0</asrwt>
<pdfrwt beam="1">  1        1 0.84044882E-01 0.48557611E+03</pdfrwt>
<pdfrwt beam="2">  1       -1 0.14313547E-01 0.48557611E+03</pdfrwt>
<totfact> 0.13915917E+03</totfact>
</mgrwt>
</event>
<event>
 4    1  0.7145298E-006  0.7824688E+03  0.7818608E-02  0.9585745E-01
         -1   -1    0    0    0  501 -0.00000000000E+00  0.00000000000E+00  0.10521779164E+03  0.10521779176E+03  0.50400000000E-02 0.  1.
          1   -1    0    0  501    0  0.00000000000E+00 -0.00000000000E+00 -0.14547384354E+04  0.14547384354E+04  0.50400000000E-02 0. -1.
    5000001    1    1    2    0    0 -0.18242404972E+03  0.94174970113E+02 -0.13223948427E+03  0.31064246347E+03  0.19200000000E+03 0.  0.
   -5000001    1    1    2    0    0  0.18242404972E+03 -0.94174970113E+02 -0.12172811595E+04  0.12493137637E+04  0.19200000000E+03 0.  0.
<mgrwt>
<rscale>  0 0.78246883E+03</rscale>
<asrwt>0</asrwt>
<pdfrwt beam="1">  1        1 0.20781976E+00 0.78246883E+03</pdfrwt>
<pdfrwt beam="2">  1       -1 0.15031114E-01 0.78246883E+03</pdfrwt>
<totfact> 0.27649053E+02</totfact>
</mgrwt>
</event>
<event>
 4    1  0.7145298E-006  0.7689760E+03  0.7818608E-02  0.9606042E-01
          1   -1    0    0  501    0  0.00000000000E+00  0.00000000000E+00  0.13039827821E+04  0.13039827822E+04  0.50400000000E-02 0.  1.
         -1   -1    0    0    0  501 -0.00000000000E+00 -0.00000000000E+00 -0.11336883928E+03  0.11336883939E+03  0.50400000000E-02 0. -1.
    5000001    1    1    2    0    0 -0.19103974194E+03  0.17896444319E+03  0.97502884426E+03  0.10276525201E+04  0.19200000000E+03 0.  0.
   -5000001    1    1    2    0    0  0.19103974194E+03 -0.17896444319E+03  0.21558509861E+03  0.38969910145E+03  0.19200000000E+03 0.  0.
<mgrwt>
<rscale>  0 0.76897598E+03</rscale>
<asrwt>0</asrwt>
<pdfrwt beam="1">  1        1 0.18628325E+00 0.76897598E+03</pdfrwt>
<pdfrwt beam="2">  1       -1 0.16195549E-01 0.76897598E+03</pdfrwt>
<totfact> 0.30807386E+02</totfact>
</mgrwt>
</event>
<event>
 4    1  0.7145298E-006  0.5758179E+03  0.7818608E-02  0.9956886E-01
          1   -1    0    0  501    0  0.00000000000E+00  0.00000000000E+00  0.71054117252E+03  0.71054117254E+03  0.50400000000E-02 0. -1.
         -1   -1    0    0    0  501 -0.00000000000E+00 -0.00000000000E+00 -0.11665975802E+03  0.11665975813E+03  0.50400000000E-02 0.  1.
    5000001    1    1    2    0    0 -0.10544946430E+03 -0.15131562202E+03  0.45438447112E+03  0.52663578931E+03  0.19200000000E+03 0.  0.
   -5000001    1    1    2    0    0  0.10544946430E+03  0.15131562202E+03  0.13949694338E+03  0.30056514136E+03  0.19200000000E+03 0.  0.
<mgrwt>
<rscale>  0 0.57581789E+03</rscale>
<asrwt>0</asrwt>
<pdfrwt beam="1">  1        1 0.10150588E+00 0.57581789E+03</pdfrwt>
<pdfrwt beam="2">  1       -1 0.16665680E-01 0.57581789E+03</pdfrwt>
<totfact> 0.83035350E+02</totfact>
</mgrwt>
</event>
<event>
 4    1  0.7145298E-006  0.5855872E+03  0.7818608E-02  0.9935767E-01
          1   -1    0    0  501    0  0.00000000000E+00  0.00000000000E+00  0.55874271694E+03  0.55874271696E+03  0.50400000000E-02 0.  1.
         -1   -1    0    0    0  501 -0.00000000000E+00 -0.00000000000E+00 -0.15343036540E+03  0.15343036548E+03  0.50400000000E-02 0. -1.
    5000001    1    1    2    0    0  0.12731089329E+03 -0.17603484994E+03  0.15298988910E+03  0.32782043578E+03  0.19200000000E+03 0.  0.
   -5000001    1    1    2    0    0 -0.12731089329E+03  0.17603484994E+03  0.25232246244E+03  0.38435264666E+03  0.19200000000E+03 0.  0.
<mgrwt>
<rscale>  0 0.58558722E+03</rscale>
<asrwt>0</asrwt>
<pdfrwt beam="1">  1        1 0.79820388E-01 0.58558722E+03</pdfrwt>
<pdfrwt beam="2">  1       -1 0.21918624E-01 0.58558722E+03</pdfrwt>
<totfact> 0.74268450E+02</totfact>
</mgrwt>
</event>
<event>
 4    1  0.7145298E-006  0.5828537E+03  0.7818608E-02  0.9941632E-01
          1   -1    0    0  501    0  0.00000000000E+00  0.00000000000E+00  0.51113251269E+02  0.51113251517E+02  0.50400000000E-02 0.  1.
         -1   -1    0    0    0  501 -0.00000000000E+00 -0.00000000000E+00 -0.16615964487E+04  0.16615964487E+04  0.50400000000E-02 0. -1.
    5000001    1    1    2    0    0  0.23576579200E+01 -0.21537932663E+03 -0.68509421231E+03  0.74337870068E+03  0.19200000000E+03 0.  0.
   -5000001    1    1    2    0    0 -0.23576579200E+01  0.21537932663E+03 -0.92538898516E+03  0.96933099958E+03  0.19200000000E+03 0.  0.
<mgrwt>
<rscale>  0 0.58285366E+03</rscale>
<asrwt>0</asrwt>
<pdfrwt beam="1">  1        1 0.73018941E-02 0.58285366E+03</pdfrwt>
<pdfrwt beam="2">  1       -1 0.23737089E+00 0.58285366E+03</pdfrwt>
<totfact> 0.91264455E+01</totfact>
</mgrwt>
</event>
<event>
 4    1  0.7145298E-006  0.5608374E+03  0.7818608E-02  0.9990162E-01
          1   -1    0    0  501    0  0.00000000000E+00  0.00000000000E+00  0.22161022905E+03  0.22161022911E+03  0.50400000000E-02 0.  1.
         -1   -1    0    0    0  501 -0.00000000000E+00 -0.00000000000E+00 -0.35483305229E+03  0.35483305232E+03  0.50400000000E-02 0. -1.
    5000001    1    1    2    0    0 -0.11988474330E+03 -0.13037777788E+03 -0.17142910436E+03  0.31244624252E+03  0.19200000000E+03 0.  0.
   -5000001    1    1    2    0    0  0.11988474330E+03  0.13037777788E+03  0.38206281127E+02  0.26399703892E+03  0.19200000000E+03 0.  0.
<mgrwt>
<rscale>  0 0.56083735E+03</rscale>
<asrwt>0</asrwt>
<pdfrwt beam="1">  1        1 0.31658604E-01 0.56083735E+03</pdfrwt>
<pdfrwt beam="2">  1       -1 0.50690436E-01 0.56083735E+03</pdfrwt>
<totfact> 0.56570210E+02</totfact>
</mgrwt>
</event>
<event>
 4    1  0.7145298E-006  0.7252422E+03  0.7818608E-02  0.9675013E-01
         -1   -1    0    0    0  501 -0.00000000000E+00  0.00000000000E+00  0.22307731454E+03  0.22307731460E+03  0.50400000000E-02 0. -1.
          1   -1    0    0  501    0  0.00000000000E+00 -0.00000000000E+00 -0.58945509844E+03  0.58945509846E+03  0.50400000000E-02 0.  1.
    5000001    1    1    2    0    0 -0.16628033226E+03  0.11600396406E+03 -0.44238703081E+03  0.52314085445E+03  0.19200000000E+03 0.  0.
   -5000001    1    1    2    0    0  0.16628033226E+03 -0.11600396406E+03  0.76009246909E+02  0.28939155860E+03  0.19200000000E+03 0.  0.
<mgrwt>
<rscale>  0 0.72524220E+03</rscale>
<asrwt>0</asrwt>
<pdfrwt beam="1">  1        1 0.84207871E-01 0.72524220E+03</pdfrwt>
<pdfrwt beam="2">  1       -1 0.31868188E-01 0.72524220E+03</pdfrwt>
<totfact> 0.36169438E+02</totfact>
</mgrwt>
</event>
<event>
 4    1  0.7145298E-006  0.6877967E+03  0.7818608E-02  0.9738332E-01
          1   -1    0    0  501    0  0.00000000000E+00  0.00000000000E+00  0.10171822557E+04  0.10171822557E+04  0.50400000000E-02 0.  1.
         -1   -1    0    0    0  501 -0.00000000000E+00 -0.00000000000E+00 -0.11626833659E+03  0.11626833670E+03  0.50400000000E-02 0. -1.
    5000001    1    1    2    0    0 -0.39018611620E+02 -0.28227319130E+03  0.42706530186E+03  0.54813262869E+03  0.19200000000E+03 0.  0.
   -5000001    1    1    2    0    0  0.39018611620E+02  0.28227319130E+03  0.47384861720E+03  0.58531796367E+03  0.19200000000E+03 0.  0.
<mgrwt>
<rscale>  0 0.68779674E+03</rscale>
<asrwt>0</asrwt>
<pdfrwt beam="1">  1        1 0.14531176E+00 0.68779674E+03</pdfrwt>
<pdfrwt beam="2">  1       -1 0.16609762E-01 0.68779674E+03</pdfrwt>
<totfact> 0.47114451E+02</totfact>
</mgrwt>
</event>
<event>
 4    1  0.7145298E-006  0.5800176E+03  0.7818608E-02  0.9947753E-01
          1   -1    0    0  501    0  0.00000000000E+00  0.00000000000E+00  0.37672188835E+03  0.37672188839E+03  0.50400000000E-02 0.  1.
         -1   -1    0    0    0  501 -0.00000000000E+00 -0.00000000000E+00 -0.22325518972E+03  0.22325518978E+03  0.50400000000E-02 0. -1.
    5000001    1    1    2    0    0 -0.11441024569E+03  0.16482693613E+03 -0.97096486670E+01  0.27787749184E+03  0.19200000000E+03 0.  0.
   -5000001    1    1    2    0    0  0.11441024569E+03 -0.16482693613E+03  0.16317634730E+03  0.32209958633E+03  0.19200000000E+03 0.  0.
<mgrwt>
<rscale>  0 0.58001764E+03</rscale>
<asrwt>0</asrwt>
<pdfrwt beam="1">  1        1 0.53817413E-01 0.58001764E+03</pdfrwt>
<pdfrwt beam="2">  1       -1 0.31893599E-01 0.58001764E+03</pdfrwt>
<totfact> 0.66129887E+02</totfact>
</mgrwt>
</event>
<event>
 4    1  0.7145298E-006  0.7311847E+03  0.7818608E-02  0.9665340E-01
         -1   -1    0    0    0  501 -0.00000000000E+00  0.00000000000E+00  0.11405569857E+03  0.11405569868E+03  0.50400000000E-02 0. -1.
          1   -1    0    0  501    0  0.00000000000E+00 -0.00000000000E+00 -0.11718638611E+04  0.11718638611E+04  0.50400000000E-02 0.  1.
    5000001    1    1    2    0    0  0.11765377386E+03  0.26856385499E+03 -0.34592703808E+03  0.49244133700E+03  0.19200000000E+03 0.  0.
   -5000001    1    1    2    0    0 -0.11765377386E+03 -0.26856385499E+03 -0.71188112446E+03  0.79347822281E+03  0.19200000000E+03 0.  0.
<mgrwt>
<rscale>  0 0.73118466E+03</rscale>
<asrwt>0</asrwt>
<pdfrwt beam="1">  1        1 0.16740912E+00 0.73118466E+03</pdfrwt>
<pdfrwt beam="2">  1       -1 0.16293672E-01 0.73118466E+03</pdfrwt>
<totfact> 0.37617741E+02</totfact>
</mgrwt>
</event>
<event>
 4    1  0.7145298E-006  0.7496377E+03  0.7818608E-02  0.9635919E-01
         -1   -1    0    0    0  501 -0.00000000000E+00  0.00000000000E+00  0.18492223151E+03  0.18492223158E+03  0.50400000000E-02 0.  1.
          1   -1    0    0  501    0  0.00000000000E+00 -0.00000000000E+00 -0.75972028323E+03  0.75972028325E+03  0.50400000000E-02 0. -1.
    5000001    1    1    2    0    0 -0.13543741813E+03 -0.12458546851E+03 -0.62022740745E+03  0.67484136665E+03  0.19200000000E+03 0.  0.
   -5000001    1    1    2    0    0  0.13543741813E+03  0.12458546851E+03  0.45429355730E+02  0.26980114817E+03  0.19200000000E+03 0.  0.
<mgrwt>
<rscale>  0 0.74963770E+03</rscale>
<asrwt>0</asrwt>
<pdfrwt beam="1">  1        1 0.10853147E+00 0.74963770E+03</pdfrwt>
<pdfrwt beam="2">  1       -1 0.26417462E-01 0.74963770E+03</pdfrwt>
<totfact> 0.34593339E+02</totfact>
</mgrwt>
</event>
<event>
 4    1  0.7145298E-006  0.7167023E+03  0.7818608E-02  0.9689088E-01
          1   -1    0    0  501    0  0.00000000000E+00  0.00000000000E+00  0.74798315161E+03  0.74798315163E+03  0.50400000000E-02 0.  1.
         -1   -1    0    0    0  501 -0.00000000000E+00 -0.00000000000E+00 -0.17168238683E+03  0.17168238690E+03  0.50400000000E-02 0. -1.
    5000001    1    1    2    0    0  0.26627548991E+03 -0.27927347113E+02  0.10727531690E+03  0.34648891304E+03  0.19200000000E+03 0.  0.
   -5000001    1    1    2    0    0 -0.26627548991E+03  0.27927347113E+02  0.46902544788E+03  0.57317662549E+03  0.19200000000E+03 0.  0.
<mgrwt>
<rscale>  0 0.71670226E+03</rscale>
<asrwt>0</asrwt>
<pdfrwt beam="1">  1        1 0.10685474E+00 0.71670226E+03</pdfrwt>
<pdfrwt beam="2">  1       -1 0.24526055E-01 0.71670226E+03</pdfrwt>
<totfact> 0.40261691E+02</totfact>
</mgrwt>
</event>
<event>
 4    1  0.7145298E-006  0.9302912E+03  0.7818608E-02  0.9388489E-01
          1   -1    0    0  501    0  0.00000000000E+00  0.00000000000E+00  0.16363908780E+04  0.16363908780E+04  0.50400000000E-02 0.  1.
         -1   -1    0    0    0  501 -0.00000000000E+00 -0.00000000000E+00 -0.13221804742E+03  0.13221804751E+03  0.50400000000E-02 0. -1.
    5000001    1    1    2    0    0  0.14632298249E+03  0.32119685273E+03  0.11976118941E+04  0.12632165619E+04  0.19200000000E+03 0.  0.
   -5000001    1    1    2    0    0 -0.14632298249E+03 -0.32119685273E+03  0.30656093648E+03  0.50539236360E+03  0.19200000000E+03 0.  0.
<mgrwt>
<rscale>  0 0.93029115E+03</rscale>
<asrwt>0</asrwt>
<pdfrwt beam="1">  1        1 0.23377012E+00 0.93029115E+03</pdfrwt>
<pdfrwt beam="2">  1       -1 0.18888293E-01 0.93029115E+03</pdfrwt>
<totfact> 0.14365915E+02</totfact>
</mgrwt>
</event>
<event>
 4    1  0.7145298E-006  0.5571682E+03  0.7818608E-02  0.9998483E-01
         -1   -1    0    0    0  501 -0.00000000000E+00  0.00000000000E+00  0.39307897200E+02  0.39307897523E+02  0.50400000000E-02 0. -1.
          1   -1    0    0  501    0  0.00000000000E+00 -0.00000000000E+00 -0.19743895452E+04  0.19743895452E+04  0.50400000000E-02 0.  1.
    5000001    1    1    2    0    0  0.16969472334E+02  0.12472266189E+03 -0.15378623243E+04  0.15549045739E+04  0.19200000000E+03 0.  0.
   -5000001    1    1    2    0    0 -0.16969472334E+02 -0.12472266189E+03 -0.39721932367E+03  0.45879286882E+03  0.19200000000E+03 0.  0.
<mgrwt>
<rscale>  0 0.55716820E+03</rscale>
<asrwt>0</asrwt>
<pdfrwt beam="1">  1        1 0.28205559E+00 0.55716820E+03</pdfrwt>
<pdfrwt beam="2">  1       -1 0.56154152E-02 0.55716820E+03</pdfrwt>
<totfact> 0.62323437E+02</totfact>
</mgrwt>
</event>
<event>
 4    1  0.7145298E-006  0.4774400E+03  0.7818608E-02  0.1019841E+00
          1   -1    0    0  501    0  0.00000000000E+00  0.00000000000E+00  0.80089764077E+03  0.80089764079E+03  0.50400000000E-02 0.  1.
         -1   -1    0    0    0  501 -0.00000000000E+00 -0.00000000000E+00 -0.71154210682E+02  0.71154210860E+02  0.50400000000E-02 0. -1.
    5000001    1    1    2    0    0  0.11489855873E+02 -0.13738803860E+03  0.30386089321E+03  0.38497133966E+03  0.19200000000E+03 0.  0.
   -5000001    1    1    2    0    0 -0.11489855873E+02  0.13738803860E+03  0.42588253688E+03  0.48708051199E+03  0.19200000000E+03 0.  0.
<mgrwt>
<rscale>  0 0.47744000E+03</rscale>
<asrwt>0</asrwt>
<pdfrwt beam="1">  1        1 0.11441395E+00 0.47744000E+03</pdfrwt>
<pdfrwt beam="2">  1       -1 0.10164887E-01 0.47744000E+03</pdfrwt>
<totfact> 0.15328821E+03</totfact>
</mgrwt>
</event>
<event>
 4    1  0.7145298E-006  0.4614629E+03  0.7818608E-02  0.1024358E+00
         -1   -1    0    0    0  501 -0.00000000000E+00  0.00000000000E+00  0.36559782728E+02  0.36559783075E+02  0.50400000000E-02 0.  1.
          1   -1    0    0  501    0  0.00000000000E+00 -0.00000000000E+00 -0.14561630168E+04  0.14561630168E+04  0.50400000000E-02 0. -1.
    5000001    1    1    2    0    0  0.12872644551E+02 -0.10545152717E+03 -0.47908177695E+03  0.52694314548E+03  0.19200000000E+03 0.  0.
   -5000001    1    1    2    0    0 -0.12872644551E+02  0.10545152717E+03 -0.94052145715E+03  0.96577965443E+03  0.19200000000E+03 0.  0.
<mgrwt>
<rscale>  0 0.46146291E+03</rscale>
<asrwt>0</asrwt>
<pdfrwt beam="1">  1        1 0.20802325E+00 0.46146291E+03</pdfrwt>
<pdfrwt beam="2">  1       -1 0.52228271E-02 0.46146291E+03</pdfrwt>
<totfact> 0.14744106E+03</totfact>
</mgrwt>
</event>
<event>
 4    1  0.7145298E-006  0.6419201E+03  0.7818608E-02  0.9822060E-01
          1   -1    0    0  501    0  0.00000000000E+00  0.00000000000E+00  0.12532709413E+04  0.12532709413E+04  0.50400000000E-02 0.  1.
         -1   -1    0    0    0  501 -0.00000000000E+00 -0.00000000000E+00 -0.82197191486E+02  0.82197191640E+02  0.50400000000E-02 0. -1.
    5000001    1    1    2    0    0  0.13278781625E+03 -0.20421356428E+03  0.41378417370E+03  0.51712389849E+03  0.19200000000E+03 0.  0.
   -5000001    1    1    2    0    0 -0.13278781625E+03  0.20421356428E+03  0.75728957608E+03  0.81834423443E+03  0.19200000000E+03 0.  0.
<mgrwt>
<rscale>  0 0.64192009E+03</rscale>
<asrwt>0</asrwt>
<pdfrwt beam="1">  1        1 0.17903870E+00 0.64192009E+03</pdfrwt>
<pdfrwt beam="2">  1       -1 0.11742457E-01 0.64192009E+03</pdfrwt>
<totfact> 0.56393507E+02</totfact>
</mgrwt>
</event>
<event>
 4    1  0.7145298E-006  0.2004603E+04  0.7818608E-02  0.8604472E-01
          1   -1    0    0  501    0  0.00000000000E+00  0.00000000000E+00  0.32954305304E+04  0.32954305304E+04  0.50400000000E-02 0.  1.
         -1   -1    0    0    0  501 -0.00000000000E+00 -0.00000000000E+00 -0.30484876208E+03  0.30484876212E+03  0.50400000000E-02 0. -1.
    5000001    1    1    2    0    0 -0.60195830423E+03 -0.77483065056E+03  0.16226375045E+04  0.19059204621E+04  0.19200000000E+03 0.  0.
   -5000001    1    1    2    0    0  0.60195830423E+03  0.77483065056E+03  0.13679442638E+04  0.16943588303E+04  0.19200000000E+03 0.  0.
<mgrwt>
<rscale>  0 0.20046026E+04</rscale>
<asrwt>0</asrwt>
<pdfrwt beam="1">  1        1 0.47077579E+00 0.20046026E+04</pdfrwt>
<pdfrwt beam="2">  1       -1 0.43549824E-01 0.20046026E+04</pdfrwt>
<totfact> 0.26204602E+00</totfact>
</mgrwt>
</event>
<event>
 4    1  0.7145298E-006  0.7302302E+03  0.7818608E-02  0.9666887E-01
          1   -1    0    0  501    0  0.00000000000E+00  0.00000000000E+00  0.46196508029E+03  0.46196508032E+03  0.50400000000E-02 0.  1.
         -1   -1    0    0    0  501 -0.00000000000E+00 -0.00000000000E+00 -0.28856949561E+03  0.28856949566E+03  0.50400000000E-02 0. -1.
    5000001    1    1    2    0    0 -0.20607236254E+03 -0.21231280549E+03  0.18367429803E+03  0.39767171604E+03  0.19200000000E+03 0.  0.
   -5000001    1    1    2    0    0  0.20607236254E+03  0.21231280549E+03 -0.10278713354E+02  0.35286285994E+03  0.19200000000E+03 0.  0.
<mgrwt>
<rscale>  0 0.73023018E+03</rscale>
<asrwt>0</asrwt>
<pdfrwt beam="1">  1        1 0.65995011E-01 0.73023018E+03</pdfrwt>
<pdfrwt beam="2">  1       -1 0.41224214E-01 0.73023018E+03</pdfrwt>
<totfact> 0.31824234E+02</totfact>
</mgrwt>
</event>
<event>
 4    1  0.7145298E-006  0.1495199E+04  0.7818608E-02  0.8887652E-01
         -1   -1    0    0    0  501 -0.00000000000E+00  0.00000000000E+00  0.19973751512E+04  0.19973751512E+04  0.50400000000E-02 0. -1.
          1   -1    0    0  501    0  0.00000000000E+00 -0.00000000000E+00 -0.27981971155E+03  0.27981971160E+03  0.50400000000E-02 0.  1.
    5000001    1    1    2    0    0 -0.70646441126E+03  0.11073542842E+03  0.10162201558E+04  0.12573470899E+04  0.19200000000E+03 0.  0.
   -5000001    1    1    2    0    0  0.70646441126E+03 -0.11073542842E+03  0.70133528384E+03  0.10198477729E+04  0.19200000000E+03 0.  0.
<mgrwt>
<rscale>  0 0.14951989E+04</rscale>
<asrwt>0</asrwt>
<pdfrwt beam="1">  1        1 0.39974243E-01 0.14951989E+04</pdfrwt>
<pdfrwt beam="2">  1       -1 0.28533931E+00 0.14951989E+04</pdfrwt>
<totfact> 0.42213159E+00</totfact>
</mgrwt>
</event>
<event>
 4    1  0.7145298E-006  0.6596966E+03  0.7818608E-02  0.9788752E-01
          1   -1    0    0  501    0  0.00000000000E+00  0.00000000000E+00  0.25639532178E+03  0.25639532183E+03  0.50400000000E-02 0.  1.
         -1   -1    0    0    0  501 -0.00000000000E+00 -0.00000000000E+00 -0.42434432293E+03  0.42434432296E+03  0.50400000000E-02 0. -1.
    5000001    1    1    2    0    0  0.12049663383E+03 -0.18825014455E+03  0.69005366921E+02  0.30262732255E+03  0.19200000000E+03 0.  0.
   -5000001    1    1    2    0    0 -0.12049663383E+03  0.18825014455E+03 -0.23695436807E+03  0.37811232225E+03  0.19200000000E+03 0.  0.
<mgrwt>
<rscale>  0 0.65969659E+03</rscale>
<asrwt>0</asrwt>
<pdfrwt beam="1">  1        1 0.36627903E-01 0.65969659E+03</pdfrwt>
<pdfrwt beam="2">  1       -1 0.60620618E-01 0.65969659E+03</pdfrwt>
<totfact> 0.33115525E+02</totfact>
</mgrwt>
</event>
<event>
 4    1  0.7145298E-006  0.5323964E+03  0.7818608E-02  0.1005653E+00
         -1   -1    0    0    0  501 -0.00000000000E+00  0.00000000000E+00  0.84757775809E+03  0.84757775811E+03  0.50400000000E-02 0. -1.
          1   -1    0    0  501    0  0.00000000000E+00 -0.00000000000E+00 -0.83604691584E+02  0.83604691736E+02  0.50400000000E-02 0.  1.
    5000001    1    1    2    0    0  0.14685219922E+03  0.10954905375E+03  0.34567916605E+03  0.43580345276E+03  0.19200000000E+03 0.  0.
   -5000001    1    1    2    0    0 -0.14685219922E+03 -0.10954905375E+03  0.41829390046E+03  0.49537899709E+03  0.19200000000E+03 0.  0.
<mgrwt>
<rscale>  0 0.53239638E+03</rscale>
<asrwt>0</asrwt>
<pdfrwt beam="1">  1        1 0.11943528E-01 0.53239638E+03</pdfrwt>
<pdfrwt beam="2">  1       -1 0.12108253E+00 0.53239638E+03</pdfrwt>
<totfact> 0.32445351E+02</totfact>
</mgrwt>
</event>
<event>
 4    1  0.7145298E-006  0.1774736E+04  0.7818608E-02  0.8719851E-01
          1   -1    0    0  501    0  0.00000000000E+00  0.00000000000E+00  0.17586361874E+04  0.17586361874E+04  0.50400000000E-02 0.  1.
         -1   -1    0    0    0  501 -0.00000000000E+00 -0.00000000000E+00 -0.44774575714E+03  0.44774575717E+03  0.50400000000E-02 0. -1.
    5000001    1    1    2    0    0  0.14439699198E+02 -0.84962089659E+03  0.44558915198E+03  0.97850797912E+03  0.19200000000E+03 0.  0.
   -5000001    1    1    2    0    0 -0.14439699198E+02  0.84962089659E+03  0.86530127824E+03  0.12278739654E+04  0.19200000000E+03 0.  0.
<mgrwt>
<rscale>  0 0.17747359E+04</rscale>
<asrwt>0</asrwt>
<pdfrwt beam="1">  1        1 0.25123374E+00 0.17747359E+04</pdfrwt>
<pdfrwt beam="2">  1       -1 0.63963679E-01 0.17747359E+04</pdfrwt>
<totfact> 0.12450953E+01</totfact>
</mgrwt>
</event>
<event>
 4    1  0.7145298E-006  0.5113611E+03  0.7818608E-02  0.1010855E+00
          1   -1    0    0  501    0  0.00000000000E+00  0.00000000000E+00  0.17297843796E+04  0.17297843796E+04  0.50400000000E-02 0.  1.
         -1   -1    0    0    0  501 -0.00000000000E+00 -0.00000000000E+00 -0.37792309607E+02  0.37792309943E+02  0.50400000000E-02 0. -1.
    5000001    1    1    2    0    0 -0.14523809292E+03 -0.39159347347E+02  0.58091677446E+03  0.63004432937E+03  0.19200000000E+03 0.  0.
   -5000001    1    1    2    0    0  0.14523809292E+03  0.39159347347E+02  0.11110752955E+04  0.11375323602E+04  0.19200000000E+03 0.  0.
<mgrwt>
<rscale>  0 0.51136111E+03</rscale>
<asrwt>0</asrwt>
<pdfrwt beam="1">  1        1 0.24711203E+00 0.51136111E+03</pdfrwt>
<pdfrwt beam="2">  1       -1 0.53989019E-02 0.51136111E+03</pdfrwt>
<totfact> 0.94047049E+02</totfact>
</mgrwt>
</event>
<event>
 4    1  0.7145298E-006  0.4672546E+03  0.7818608E-02  0.1022698E+00
         -1   -1    0    0    0  501 -0.00000000000E+00  0.00000000000E+00  0.20845376271E+04  0.20845376271E+04  0.50400000000E-02 0. -1.
          1   -1    0    0  501    0  0.00000000000E+00 -0.00000000000E+00 -0.26184091275E+02  0.26184091760E+02  0.50400000000E-02 0.  1.
    5000001    1    1    2    0    0 -0.11722105761E+03  0.14877049222E+02  0.13060100121E+04  0.13253257165E+04  0.19200000000E+03 0.  0.
   -5000001    1    1    2    0    0  0.11722105761E+03 -0.14877049222E+02  0.75234352370E+03  0.78539600241E+03  0.19200000000E+03 0.  0.
<mgrwt>
<rscale>  0 0.46725464E+03</rscale>
<asrwt>0</asrwt>
<pdfrwt beam="1">  1        1 0.37405844E-02 0.46725464E+03</pdfrwt>
<pdfrwt beam="2">  1       -1 0.29779110E+00 0.46725464E+03</pdfrwt>
<totfact> 0.97534790E+01</totfact>
</mgrwt>
</event>
<event>
 4    1  0.7145298E-006  0.4383178E+03  0.7818608E-02  0.1031264E+00
          1   -1    0    0  501    0  0.00000000000E+00  0.00000000000E+00  0.28738882129E+02  0.28738882571E+02  0.50400000000E-02 0. -1.
         -1   -1    0    0    0  501 -0.00000000000E+00 -0.00000000000E+00 -0.16712769053E+04  0.16712769053E+04  0.50400000000E-02 0.  1.
    5000001    1    1    2    0    0 -0.84426110057E+02  0.11011923851E+01 -0.57481940243E+03  0.61189077955E+03  0.19200000000E+03 0.  0.
   -5000001    1    1    2    0    0  0.84426110057E+02 -0.11011923851E+01 -0.10677186208E+04  0.10881250084E+04  0.19200000000E+03 0.  0.
<mgrwt>
<rscale>  0 0.43831783E+03</rscale>
<asrwt>0</asrwt>
<pdfrwt beam="1">  1        1 0.41055557E-02 0.43831783E+03</pdfrwt>
<pdfrwt beam="2">  1       -1 0.23875378E+00 0.43831783E+03</pdfrwt>
<totfact> 0.20292518E+02</totfact>
</mgrwt>
</event>
<event>
 4    1  0.7145298E-006  0.4909165E+03  0.7818608E-02  0.1016177E+00
          1   -1    0    0  501    0  0.00000000000E+00  0.00000000000E+00  0.14619880603E+04  0.14619880603E+04  0.50400000000E-02 0.  1.
         -1   -1    0    0    0  501 -0.00000000000E+00 -0.00000000000E+00 -0.41210829555E+02  0.41210829863E+02  0.50400000000E-02 0. -1.
    5000001    1    1    2    0    0 -0.71623135006E+02  0.10367163746E+03  0.97571027206E+03  0.10023732922E+04  0.19200000000E+03 0.  0.
   -5000001    1    1    2    0    0  0.71623135006E+02 -0.10367163746E+03  0.44506695866E+03  0.50082559796E+03  0.19200000000E+03 0.  0.
<mgrwt>
<rscale>  0 0.49091645E+03</rscale>
<asrwt>0</asrwt>
<pdfrwt beam="1">  1        1 0.20885534E+00 0.49091645E+03</pdfrwt>
<pdfrwt beam="2">  1       -1 0.58872642E-02 0.49091645E+03</pdfrwt>
<totfact> 0.12162209E+03</totfact>
</mgrwt>
</event>
<event>
 4    1  0.7145298E-006  0.4881267E+03  0.7818608E-02  0.1016925E+00
         -1   -1    0    0    0  501 -0.00000000000E+00  0.00000000000E+00  0.57473311971E+03  0.57473311973E+03  0.50400000000E-02 0. -1.
          1   -1    0    0  501    0  0.00000000000E+00 -0.00000000000E+00 -0.10364276659E+03  0.10364276672E+03  0.50400000000E-02 0.  1.
    5000001    1    1    2    0    0 -0.14509395296E+03 -0.15215901873E+02  0.18319089341E+03  0.30283111182E+03  0.19200000000E+03 0.  0.
   -5000001    1    1    2    0    0  0.14509395296E+03  0.15215901873E+02  0.28789945970E+03  0.37554477463E+03  0.19200000000E+03 0.  0.
<mgrwt>
<rscale>  0 0.48812675E+03</rscale>
<asrwt>0</asrwt>
<pdfrwt beam="1">  1        1 0.14806109E-01 0.48812675E+03</pdfrwt>
<pdfrwt beam="2">  1       -1 0.82104733E-01 0.48812675E+03</pdfrwt>
<totfact> 0.58588211E+02</totfact>
</mgrwt>
</event>
<event>
 4    1  0.7145298E-006  0.1171501E+04  0.7818608E-02  0.9138174E-01
         -1   -1    0    0    0  501 -0.00000000000E+00  0.00000000000E+00  0.53758992708E+03  0.53758992710E+03  0.50400000000E-02 0. -1.
          1   -1    0    0  501    0  0.00000000000E+00 -0.00000000000E+00 -0.63822602381E+03  0.63822602383E+03  0.50400000000E-02 0.  1.
    5000001    1    1    2    0    0  0.19997349804E+03  0.44733412954E+03  0.20781128431E+03  0.56581512286E+03  0.19200000000E+03 0.  0.
   -5000001    1    1    2    0    0 -0.19997349804E+03 -0.44733412954E+03 -0.30844738104E+03  0.61000082807E+03  0.19200000000E+03 0.  0.
<mgrwt>
<rscale>  0 0.11715014E+04</rscale>
<asrwt>0</asrwt>
<pdfrwt beam="1">  1        1 0.91175146E-01 0.11715014E+04</pdfrwt>
<pdfrwt beam="2">  1       -1 0.76798561E-01 0.11715014E+04</pdfrwt>
<totfact> 0.58907857E+01</totfact>
</mgrwt>
</event>
<event>
 4    1  0.7145298E-006  0.6648455E+03  0.7818608E-02  0.9779315E-01
          1   -1    0    0  501    0  0.00000000000E+00  0.00000000000E+00  0.28017560488E+04  0.28017560488E+04  0.50400000000E-02 0.  1.
         -1   -1    0    0    0  501 -0.00000000000E+00 -0.00000000000E+00 -0.39441289049E+02  0.39441289371E+02  0.50400000000E-02 0. -1.
    5000001    1    1    2    0    0  0.16917594666E+03 -0.28240332712E+02  0.48247945589E+03  0.54687150472E+03  0.19200000000E+03 0.  0.
   -5000001    1    1    2    0    0 -0.16917594666E+03  0.28240332712E+02  0.22798353038E+04  0.22943258334E+04  0.19200000000E+03 0.  0.
<mgrwt>
<rscale>  0 0.66484546E+03</rscale>
<asrwt>0</asrwt>
<pdfrwt beam="1">  1        1 0.40025075E+00 0.66484546E+03</pdfrwt>
<pdfrwt beam="2">  1       -1 0.56344715E-02 0.66484546E+03</pdfrwt>
<totfact> 0.18755552E+02</totfact>
</mgrwt>
</event>
<event>
 4    1  0.7145298E-006  0.6216707E+03  0.7818608E-02  0.9861439E-01
          1   -1    0    0  501    0  0.00000000000E+00  0.00000000000E+00  0.17685202626E+04  0.17685202626E+04  0.50400000000E-02 0.  1.
         -1   -1    0    0    0  501 -0.00000000000E+00 -0.00000000000E+00 -0.54632456660E+02  0.54632456893E+02  0.50400000000E-02 0. -1.
    5000001    1    1    2    0    0 -0.11227057077E+03 -0.14683626543E+03  0.38781775642E+03  0.47056581059E+03  0.19200000000E+03 0.  0.
   -5000001    1    1    2    0    0  0.11227057077E+03  0.14683626543E+03  0.13260700496E+04  0.13525869089E+04  0.19200000000E+03 0.  0.
<mgrwt>
<rscale>  0 0.62167067E+03</rscale>
<asrwt>0</asrwt>
<pdfrwt beam="1">  1        1 0.25264579E+00 0.62167067E+03</pdfrwt>
<pdfrwt beam="2">  1       -1 0.78046356E-02 0.62167067E+03</pdfrwt>
<totfact> 0.50049096E+02</totfact>
</mgrwt>
</event>
<event>
 4    1  0.7145298E-006  0.5104680E+03  0.7818608E-02  0.1011082E+00
          1   -1    0    0  501    0  0.00000000000E+00  0.00000000000E+00  0.42529745117E+03  0.42529745120E+03  0.50400000000E-02 0.  1.
         -1   -1    0    0    0  501 -0.00000000000E+00 -0.00000000000E+00 -0.15317372979E+03  0.15317372988E+03  0.50400000000E-02 0. -1.
    5000001    1    1    2    0    0  0.75032568418E+02 -0.64944660060E+02  0.28991547235E+03  0.36161122259E+03  0.19200000000E+03 0.  0.
   -5000001    1    1    2    0    0 -0.75032568418E+02  0.64944660060E+02 -0.17791750974E+02  0.21685995849E+03  0.19200000000E+03 0.  0.
<mgrwt>
<rscale>  0 0.51046801E+03</rscale>
<asrwt>0</asrwt>
<pdfrwt beam="1">  1        1 0.60756777E-01 0.51046801E+03</pdfrwt>
<pdfrwt beam="2">  1       -1 0.21881962E-01 0.51046801E+03</pdfrwt>
<totfact> 0.10743783E+03</totfact>
</mgrwt>
</event>
<event>
 4    1  0.7145298E-006  0.7868268E+03  0.7818608E-02  0.9579283E-01
          1   -1    0    0  501    0  0.00000000000E+00  0.00000000000E+00  0.10809076529E+04  0.10809076529E+04  0.50400000000E-02 0.  1.
         -1   -1    0    0    0  501 -0.00000000000E+00 -0.00000000000E+00 -0.14318902387E+03  0.14318902396E+03  0.50400000000E-02 0. -1.
    5000001    1    1    2    0    0 -0.17743231206E+03 -0.65988043189E+02  0.91455450382E+03  0.95347290872E+03  0.19200000000E+03 0.  0.
   -5000001    1    1    2    0    0  0.17743231206E+03  0.65988043189E+02  0.23164125232E+02  0.27062376818E+03  0.19200000000E+03 0.  0.
<mgrwt>
<rscale>  0 0.78682682E+03</rscale>
<asrwt>0</asrwt>
<pdfrwt beam="1">  1        1 0.15441537E+00 0.78682682E+03</pdfrwt>
<pdfrwt beam="2">  1       -1 0.20455576E-01 0.78682682E+03</pdfrwt>
<totfact> 0.29862645E+02</totfact>
</mgrwt>
</event>
<event>
 4    1  0.7145298E-006  0.5042307E+03  0.7818608E-02  0.1012680E+00
          1   -1    0    0  501    0  0.00000000000E+00  0.00000000000E+00  0.49807542174E+03  0.49807542177E+03  0.50400000000E-02 0.  1.
         -1   -1    0    0    0  501 -0.00000000000E+00 -0.00000000000E+00 -0.12761552082E+03  0.12761552092E+03  0.50400000000E-02 0. -1.
    5000001    1    1    2    0    0  0.42672050141E+01 -0.16323942489E+03  0.19234048858E+03  0.31705548793E+03  0.19200000000E+03 0.  0.
   -5000001    1    1    2    0    0 -0.42672050141E+01  0.16323942489E+03  0.17811941234E+03  0.30863545475E+03  0.19200000000E+03 0.  0.
<mgrwt>
<rscale>  0 0.50423072E+03</rscale>
<asrwt>0</asrwt>
<pdfrwt beam="1">  1        1 0.71153633E-01 0.50423072E+03</pdfrwt>
<pdfrwt beam="2">  1       -1 0.18230788E-01 0.50423072E+03</pdfrwt>
<totfact> 0.11788298E+03</totfact>
</mgrwt>
</event>
<event>
 4    1  0.7145298E-006  0.5305561E+03  0.7818608E-02  0.1006097E+00
          1   -1    0    0  501    0  0.00000000000E+00  0.00000000000E+00  0.35798961004E+03  0.35798961007E+03  0.50400000000E-02 0.  1.
         -1   -1    0    0    0  501 -0.00000000000E+00 -0.00000000000E+00 -0.19657679567E+03  0.19657679573E+03  0.50400000000E-02 0. -1.
    5000001    1    1    2    0    0  0.81758111038E+02  0.16138274357E+03  0.51520167779E+02  0.26878821836E+03  0.19200000000E+03 0.  0.
   -5000001    1    1    2    0    0 -0.81758111038E+02 -0.16138274357E+03  0.10989264659E+03  0.28577818744E+03  0.19200000000E+03 0.  0.
<mgrwt>
<rscale>  0 0.53055613E+03</rscale>
<asrwt>0</asrwt>
<pdfrwt beam="1">  1        1 0.51141373E-01 0.53055613E+03</pdfrwt>
<pdfrwt beam="2">  1       -1 0.28082400E-01 0.53055613E+03</pdfrwt>
<totfact> 0.88137510E+02</totfact>
</mgrwt>
</event>
<event>
 4    1  0.7145298E-006  0.1419737E+04  0.7818608E-02  0.8939654E-01
          1   -1    0    0  501    0  0.00000000000E+00  0.00000000000E+00  0.68003757942E+03  0.68003757944E+03  0.50400000000E-02 0. -1.
         -1   -1    0    0    0  501 -0.00000000000E+00 -0.00000000000E+00 -0.74100842464E+03  0.74100842466E+03  0.50400000000E-02 0.  1.
    5000001    1    1    2    0    0 -0.57694251570E+03 -0.27659807377E+03 -0.27087426142E+03  0.72083703175E+03  0.19200000000E+03 0.  0.
   -5000001    1    1    2    0    0  0.57694251570E+03  0.27659807377E+03  0.20990341621E+03  0.70020897236E+03  0.19200000000E+03 0.  0.
<mgrwt>
<rscale>  0 0.14197374E+04</rscale>
<asrwt>0</asrwt>
<pdfrwt beam="1">  1        1 0.97148225E-01 0.14197374E+04</pdfrwt>
<pdfrwt beam="2">  1       -1 0.10585835E+00 0.14197374E+04</pdfrwt>
<totfact> 0.25919199E+01</totfact>
</mgrwt>
</event>
<event>
 4    1  0.7145298E-006  0.4446045E+03  0.7818608E-02  0.1029343E+00
         -1   -1    0    0    0  501 -0.00000000000E+00  0.00000000000E+00  0.31219385216E+02  0.31219385623E+02  0.50400000000E-02 0. -1.
          1   -1    0    0  501    0  0.00000000000E+00 -0.00000000000E+00 -0.15829358408E+04  0.15829358408E+04  0.50400000000E-02 0.  1.
    5000001    1    1    2    0    0  0.44551016495E+02 -0.98659282850E+02 -0.88082026593E+03  0.90797950860E+03  0.19200000000E+03 0.  0.
   -5000001    1    1    2    0    0 -0.44551016495E+02  0.98659282850E+02 -0.67089618967E+03  0.70617571785E+03  0.19200000000E+03 0.  0.
<mgrwt>
<rscale>  0 0.44460447E+03</rscale>
<asrwt>0</asrwt>
<pdfrwt beam="1">  1        1 0.22613364E+00 0.44460447E+03</pdfrwt>
<pdfrwt beam="2">  1       -1 0.44599132E-02 0.44460447E+03</pdfrwt>
<totfact> 0.15580719E+03</totfact>
</mgrwt>
</event>
<event>
 4    1  0.7145298E-006  0.5260723E+03  0.7818608E-02  0.1007189E+00
         -1   -1    0    0    0  501 -0.00000000000E+00  0.00000000000E+00  0.42837096913E+02  0.42837097210E+02  0.50400000000E-02 0.  1.
          1   -1    0    0  501    0  0.00000000000E+00 -0.00000000000E+00 -0.16151424951E+04  0.16151424951E+04  0.50400000000E-02 0. -1.
    5000001    1    1    2    0    0  0.16577071228E+03 -0.47956389961E+02 -0.62718259090E+03  0.67823428600E+03  0.19200000000E+03 0.  0.
   -5000001    1    1    2    0    0 -0.16577071228E+03  0.47956389961E+02 -0.94512280730E+03  0.97974530632E+03  0.19200000000E+03 0.  0.
<mgrwt>
<rscale>  0 0.52607230E+03</rscale>
<asrwt>0</asrwt>
<pdfrwt beam="1">  1        1 0.23073460E+00 0.52607230E+03</pdfrwt>
<pdfrwt beam="2">  1       -1 0.61195863E-02 0.52607230E+03</pdfrwt>
<totfact> 0.91483787E+02</totfact>
</mgrwt>
</event>
<event>
 4    1  0.7145298E-006  0.4344454E+03  0.7818608E-02  0.1032465E+00
          1   -1    0    0  501    0  0.00000000000E+00  0.00000000000E+00  0.32380362219E+03  0.32380362223E+03  0.50400000000E-02 0.  1.
         -1   -1    0    0    0  501 -0.00000000000E+00 -0.00000000000E+00 -0.14572318928E+03  0.14572318937E+03  0.50400000000E-02 0. -1.
    5000001    1    1    2    0    0 -0.36309281393E+02 -0.77180859055E+02  0.29388619482E+02  0.21213896359E+03  0.19200000000E+03 0.  0.
   -5000001    1    1    2    0    0  0.36309281393E+02  0.77180859055E+02  0.14869181342E+03  0.25738784800E+03  0.19200000000E+03 0.  0.
<mgrwt>
<rscale>  0 0.43444538E+03</rscale>
<asrwt>0</asrwt>
<pdfrwt beam="1">  1        1 0.46257660E-01 0.43444538E+03</pdfrwt>
<pdfrwt beam="2">  1       -1 0.20817599E-01 0.43444538E+03</pdfrwt>
<totfact> 0.16590949E+03</totfact>
</mgrwt>
</event>
<event>
 4    1  0.7145298E-006  0.6990314E+03  0.7818608E-02  0.9718890E-01
          1   -1    0    0  501    0  0.00000000000E+00  0.00000000000E+00  0.46643501698E+03  0.46643501701E+03  0.50400000000E-02 0.  1.
         -1   -1    0    0    0  501 -0.00000000000E+00 -0.00000000000E+00 -0.26190403618E+03  0.26190403623E+03  0.50400000000E-02 0. -1.
    5000001    1    1    2    0    0  0.19633532062E+03 -0.21273843113E+03  0.14251157017E+03  0.37547136487E+03  0.19200000000E+03 0.  0.
   -5000001    1    1    2    0    0 -0.19633532062E+03  0.21273843113E+03  0.62019410632E+02  0.35286768837E+03  0.19200000000E+03 0.  0.
<mgrwt>
<rscale>  0 0.69903137E+03</rscale>
<asrwt>0</asrwt>
<pdfrwt beam="1">  1        1 0.66633573E-01 0.69903137E+03</pdfrwt>
<pdfrwt beam="2">  1       -1 0.37414863E-01 0.69903137E+03</pdfrwt>
<totfact> 0.37491865E+02</totfact>
</mgrwt>
</event>
<event>
 4    1  0.7145298E-006  0.4457708E+03  0.7818608E-02  0.1028991E+00
         -1   -1    0    0    0  501 -0.00000000000E+00  0.00000000000E+00  0.46982385155E+02  0.46982385425E+02  0.50400000000E-02 0. -1.
          1   -1    0    0  501    0  0.00000000000E+00 -0.00000000000E+00 -0.10573731309E+04  0.10573731309E+04  0.50400000000E-02 0.  1.
    5000001    1    1    2    0    0  0.71866024775E+02 -0.87421793454E+02 -0.49882291884E+03  0.54634750832E+03  0.19200000000E+03 0.  0.
   -5000001    1    1    2    0    0 -0.71866024775E+02  0.87421793454E+02 -0.51156782692E+03  0.55800800803E+03  0.19200000000E+03 0.  0.
<mgrwt>
<rscale>  0 0.44577085E+03</rscale>
<asrwt>0</asrwt>
<pdfrwt beam="1">  1        1 0.15105329E+00 0.44577085E+03</pdfrwt>
<pdfrwt beam="2">  1       -1 0.67117700E-02 0.44577085E+03</pdfrwt>
<totfact> 0.18607751E+03</totfact>
</mgrwt>
</event>
<event>
 4    1  0.7145298E-006  0.6081008E+03  0.7818608E-02  0.9888741E-01
          1   -1    0    0  501    0  0.00000000000E+00  0.00000000000E+00  0.51743181950E+03  0.51743181953E+03  0.50400000000E-02 0.  1.
         -1   -1    0    0    0  501 -0.00000000000E+00 -0.00000000000E+00 -0.17866440446E+03  0.17866440453E+03  0.50400000000E-02 0. -1.
    5000001    1    1    2    0    0 -0.90813406691E+02 -0.18307943196E+03  0.34826070772E+02  0.28256328220E+03  0.19200000000E+03 0.  0.
   -5000001    1    1    2    0    0  0.90813406691E+02  0.18307943196E+03  0.30394134427E+03  0.41353294186E+03  0.19200000000E+03 0.  0.
<mgrwt>
<rscale>  0 0.60810081E+03</rscale>
<asrwt>0</asrwt>
<pdfrwt beam="1">  1        1 0.73918832E-01 0.60810081E+03</pdfrwt>
<pdfrwt beam="2">  1       -1 0.25523486E-01 0.60810081E+03</pdfrwt>
<totfact> 0.63763166E+02</totfact>
</mgrwt>
</event>
<event>
 4    1  0.7145298E-006  0.5453435E+03  0.7818608E-02  0.1002577E+00
          1   -1    0    0  501    0  0.00000000000E+00  0.00000000000E+00  0.62076825902E+03  0.62076825904E+03  0.50400000000E-02 0.  1.
         -1   -1    0    0    0  501 -0.00000000000E+00 -0.00000000000E+00 -0.11977077123E+03  0.11977077134E+03  0.50400000000E-02 0. -1.
    5000001    1    1    2    0    0 -0.12744396515E+03 -0.13831392609E+03  0.31292204420E+03  0.41250080260E+03  0.19200000000E+03 0.  0.
   -5000001    1    1    2    0    0  0.12744396515E+03  0.13831392609E+03  0.18807544359E+03  0.32803822778E+03  0.19200000000E+03 0.  0.
<mgrwt>
<rscale>  0 0.54534354E+03</rscale>
<asrwt>0</asrwt>
<pdfrwt beam="1">  1        1 0.88681179E-01 0.54534354E+03</pdfrwt>
<pdfrwt beam="2">  1       -1 0.17110110E-01 0.54534354E+03</pdfrwt>
<totfact> 0.96651459E+02</totfact>
</mgrwt>
</event>
<event>
 4    1  0.7145298E-006  0.6781293E+03  0.7818608E-02  0.9755383E-01
          1   -1    0    0  501    0  0.00000000000E+00  0.00000000000E+00  0.14266296780E+04  0.14266296780E+04  0.50400000000E-02 0. -1.
         -1   -1    0    0    0  501 -0.00000000000E+00 -0.00000000000E+00 -0.80584906940E+02  0.80584907098E+02  0.50400000000E-02 0.  1.
    5000001    1    1    2    0    0  0.12311541480E+03 -0.25025949407E+03  0.71238199679E+03  0.78875809288E+03  0.19200000000E+03 0.  0.
   -5000001    1    1    2    0    0 -0.12311541480E+03  0.25025949407E+03  0.63366277431E+03  0.71845649226E+03  0.19200000000E+03 0.  0.
<mgrwt>
<rscale>  0 0.67812925E+03</rscale>
<asrwt>0</asrwt>
<pdfrwt beam="1">  1        1 0.20380423E+00 0.67812925E+03</pdfrwt>
<pdfrwt beam="2">  1       -1 0.11512130E-01 0.67812925E+03</pdfrwt>
<totfact> 0.44589152E+02</totfact>
</mgrwt>
</event>
<event>
 4    1  0.7145298E-006  0.4163325E+03  0.7818608E-02  0.1038267E+00
          1   -1    0    0  501    0  0.00000000000E+00  0.00000000000E+00  0.88044567684E+03  0.88044567685E+03  0.50400000000E-02 0.  1.
         -1   -1    0    0    0  501 -0.00000000000E+00 -0.00000000000E+00 -0.49217330520E+02  0.49217330778E+02  0.50400000000E-02 0. -1.
    5000001    1    1    2    0    0 -0.12436739818E+02 -0.76321859231E+02  0.46501747377E+03  0.50900387975E+03  0.19200000000E+03 0.  0.
   -5000001    1    1    2    0    0  0.12436739818E+02  0.76321859231E+02  0.36621087255E+03  0.42065912788E+03  0.19200000000E+03 0.  0.
<mgrwt>
<rscale>  0 0.41633249E+03</rscale>
<asrwt>0</asrwt>
<pdfrwt beam="1">  1        1 0.12577796E+00 0.41633249E+03</pdfrwt>
<pdfrwt beam="2">  1       -1 0.70310471E-02 0.41633249E+03</pdfrwt>
<totfact> 0.23457417E+03</totfact>
</mgrwt>
</event>
<event>
 4    1  0.7145298E-006  0.4459497E+03  0.7818608E-02  0.1028937E+00
         -1   -1    0    0    0  501 -0.00000000000E+00  0.00000000000E+00  0.31764626599E+02  0.31764626999E+02  0.50400000000E-02 0. -1.
          1   -1    0    0  501    0  0.00000000000E+00 -0.00000000000E+00 -0.15651930784E+04  0.15651930784E+04  0.50400000000E-02 0.  1.
    5000001    1    1    2    0    0 -0.62916035981E+02  0.94040129915E+02 -0.79248776931E+03  0.82322708782E+03  0.19200000000E+03 0.  0.
   -5000001    1    1    2    0    0  0.62916035981E+02 -0.94040129915E+02 -0.74094068248E+03  0.77373061758E+03  0.19200000000E+03 0.  0.
<mgrwt>
<rscale>  0 0.44594966E+03</rscale>
<asrwt>0</asrwt>
<pdfrwt beam="1">  1        1 0.22359896E+00 0.44594966E+03</pdfrwt>
<pdfrwt beam="2">  1       -1 0.45378048E-02 0.44594966E+03</pdfrwt>
<totfact> 0.15572014E+03</totfact>
</mgrwt>
</event>
<event>
 4    1  0.7145298E-006  0.5920118E+03  0.7818608E-02  0.9922119E-01
         -1   -1    0    0    0  501 -0.00000000000E+00  0.00000000000E+00  0.48795953509E+03  0.48795953512E+03  0.50400000000E-02 0. -1.
          1   -1    0    0  501    0  0.00000000000E+00 -0.00000000000E+00 -0.17956305186E+03  0.17956305193E+03  0.50400000000E-02 0.  1.
    5000001    1    1    2    0    0  0.38197557824E+02  0.15481801797E+03  0.33364457057E+03  0.41666577923E+03  0.19200000000E+03 0.  0.
   -5000001    1    1    2    0    0 -0.38197557824E+02 -0.15481801797E+03 -0.25248087340E+02  0.25085680781E+03  0.19200000000E+03 0.  0.
<mgrwt>
<rscale>  0 0.59201184E+03</rscale>
<asrwt>0</asrwt>
<pdfrwt beam="1">  1        1 0.25651865E-01 0.59201184E+03</pdfrwt>
<pdfrwt beam="2">  1       -1 0.69708504E-01 0.59201184E+03</pdfrwt>
<totfact> 0.39782731E+02</totfact>
</mgrwt>
</event>
<event>
 4    1  0.7145298E-006  0.7597233E+03  0.7818608E-02  0.9620218E-01
          1   -1    0    0  501    0  0.00000000000E+00  0.00000000000E+00  0.40161310543E+03  0.40161310546E+03  0.50400000000E-02 0. -1.
         -1   -1    0    0    0  501 -0.00000000000E+00 -0.00000000000E+00 -0.35928825064E+03  0.35928825068E+03  0.50400000000E-02 0.  1.
    5000001    1    1    2    0    0 -0.26258331550E+03  0.18397438242E+03 -0.47018820947E+02  0.37665812150E+03  0.19200000000E+03 0.  0.
   -5000001    1    1    2    0    0  0.26258331550E+03 -0.18397438242E+03  0.89343675732E+02  0.38424323463E+03  0.19200000000E+03 0.  0.
<mgrwt>
<rscale>  0 0.75972329E+03</rscale>
<asrwt>0</asrwt>
<pdfrwt beam="1">  1        1 0.57373301E-01 0.75972329E+03</pdfrwt>
<pdfrwt beam="2">  1       -1 0.51326893E-01 0.75972329E+03</pdfrwt>
<totfact> 0.25431588E+02</totfact>
</mgrwt>
</event>
<event>
 4    1  0.7145298E-006  0.6479365E+03  0.7818608E-02  0.9810659E-01
         -1   -1    0    0    0  501 -0.00000000000E+00  0.00000000000E+00  0.84459013756E+02  0.84459013906E+02  0.50400000000E-02 0. -1.
          1   -1    0    0  501    0  0.00000000000E+00 -0.00000000000E+00 -0.12426788831E+04  0.12426788831E+04  0.50400000000E-02 0.  1.
    5000001    1    1    2    0    0  0.23472155127E+03  0.76710715173E+02 -0.40636687387E+03  0.51281261357E+03  0.19200000000E+03 0.  0.
   -5000001    1    1    2    0    0 -0.23472155127E+03 -0.76710715173E+02 -0.75185299544E+03  0.81432528341E+03  0.19200000000E+03 0.  0.
<mgrwt>
<rscale>  0 0.64793652E+03</rscale>
<asrwt>0</asrwt>
<pdfrwt beam="1">  1        1 0.17752554E+00 0.64793652E+03</pdfrwt>
<pdfrwt beam="2">  1       -1 0.12065574E-01 0.64793652E+03</pdfrwt>
<totfact> 0.54885800E+02</totfact>
</mgrwt>
</event>
<event>
 4    1  0.7145298E-006  0.5519110E+03  0.7818608E-02  0.1001053E+00
          1   -1    0    0  501    0  0.00000000000E+00  0.00000000000E+00  0.36316492662E+03  0.36316492666E+03  0.50400000000E-02 0.  1.
         -1   -1    0    0    0  501 -0.00000000000E+00 -0.00000000000E+00 -0.20968833699E+03  0.20968833705E+03  0.50400000000E-02 0. -1.
    5000001    1    1    2    0    0 -0.25493671276E+02 -0.18113164559E+03  0.15598217266E+03  0.30765733942E+03  0.19200000000E+03 0.  0.
   -5000001    1    1    2    0    0  0.25493671276E+02  0.18113164559E+03 -0.25055830279E+01  0.26519592428E+03  0.19200000000E+03 0.  0.
<mgrwt>
<rscale>  0 0.55191104E+03</rscale>
<asrwt>0</asrwt>
<pdfrwt beam="1">  1        1 0.51880703E-01 0.55191104E+03</pdfrwt>
<pdfrwt beam="2">  1       -1 0.29955477E-01 0.55191104E+03</pdfrwt>
<totfact> 0.77380624E+02</totfact>
</mgrwt>
</event>
<event>
 4    1  0.7145298E-006  0.5113954E+03  0.7818608E-02  0.1010847E+00
          1   -1    0    0  501    0  0.00000000000E+00  0.00000000000E+00  0.11688778488E+04  0.11688778488E+04  0.50400000000E-02 0. -1.
         -1   -1    0    0    0  501 -0.00000000000E+00 -0.00000000000E+00 -0.55935110265E+02  0.55935110492E+02  0.50400000000E-02 0.  1.
    5000001    1    1    2    0    0  0.36783715883E+02  0.16265275949E+03  0.62021499808E+03  0.67032798373E+03  0.19200000000E+03 0.  0.
   -5000001    1    1    2    0    0 -0.36783715883E+02 -0.16265275949E+03  0.49272774044E+03  0.55448497557E+03  0.19200000000E+03 0.  0.
<mgrwt>
<rscale>  0 0.51139539E+03</rscale>
<asrwt>0</asrwt>
<pdfrwt beam="1">  1        1 0.16698254E+00 0.51139539E+03</pdfrwt>
<pdfrwt beam="2">  1       -1 0.79907304E-02 0.51139539E+03</pdfrwt>
<totfact> 0.11858671E+03</totfact>
</mgrwt>
</event>
<event>
 4    1  0.7145298E-006  0.4620318E+03  0.7818608E-02  0.1024194E+00
          1   -1    0    0  501    0  0.00000000000E+00  0.00000000000E+00  0.97761335929E+03  0.97761335931E+03  0.50400000000E-02 0.  1.
         -1   -1    0    0    0  501 -0.00000000000E+00 -0.00000000000E+00 -0.54590433118E+02  0.54590433351E+02  0.50400000000E-02 0. -1.
    5000001    1    1    2    0    0 -0.67925948691E+02  0.30685644173E+02  0.22774793446E+03  0.30706459405E+03  0.19200000000E+03 0.  0.
   -5000001    1    1    2    0    0  0.67925948691E+02 -0.30685644173E+02  0.69527499171E+03  0.72513919861E+03  0.19200000000E+03 0.  0.
<mgrwt>
<rscale>  0 0.46203176E+03</rscale>
<asrwt>0</asrwt>
<pdfrwt beam="1">  1        1 0.13965904E+00 0.46203176E+03</pdfrwt>
<pdfrwt beam="2">  1       -1 0.77986337E-02 0.46203176E+03</pdfrwt>
<totfact> 0.16868741E+03</totfact>
</mgrwt>
</event>
<event>
 4    1  0.7145298E-006  0.6027255E+03  0.7818608E-02  0.9899768E-01
         -1   -1    0    0    0  501 -0.00000000000E+00  0.00000000000E+00  0.40527585465E+03  0.40527585468E+03  0.50400000000E-02 0. -1.
          1   -1    0    0  501    0  0.00000000000E+00 -0.00000000000E+00 -0.22409305010E+03  0.22409305016E+03  0.50400000000E-02 0.  1.
    5000001    1    1    2    0    0 -0.84405919781E+02  0.21139817294E+03  0.42264277183E+02  0.30077203318E+03  0.19200000000E+03 0.  0.
   -5000001    1    1    2    0    0  0.84405919781E+02 -0.21139817294E+03  0.13891852737E+03  0.32859687166E+03  0.19200000000E+03 0.  0.
<mgrwt>
<rscale>  0 0.60272548E+03</rscale>
<asrwt>0</asrwt>
<pdfrwt beam="1">  1        1 0.32013293E-01 0.60272548E+03</pdfrwt>
<pdfrwt beam="2">  1       -1 0.57896551E-01 0.60272548E+03</pdfrwt>
<totfact> 0.43185915E+02</totfact>
</mgrwt>
</event>
<event>
 4    1  0.7145298E-006  0.4540662E+03  0.7818608E-02  0.1026516E+00
          1   -1    0    0  501    0  0.00000000000E+00  0.00000000000E+00  0.17921559267E+03  0.17921559274E+03  0.50400000000E-02 0.  1.
         -1   -1    0    0    0  501 -0.00000000000E+00 -0.00000000000E+00 -0.28760910814E+03  0.28760910818E+03  0.50400000000E-02 0. -1.
    5000001    1    1    2    0    0 -0.18933293294E+02  0.11918341685E+03 -0.43081862508E+02  0.23083154750E+03  0.19200000000E+03 0.  0.
   -5000001    1    1    2    0    0  0.18933293294E+02 -0.11918341685E+03 -0.65311652959E+02  0.23599315341E+03  0.19200000000E+03 0.  0.
<mgrwt>
<rscale>  0 0.45406624E+03</rscale>
<asrwt>0</asrwt>
<pdfrwt beam="1">  1        1 0.25602228E-01 0.45406624E+03</pdfrwt>
<pdfrwt beam="2">  1       -1 0.41087015E-01 0.45406624E+03</pdfrwt>
<totfact> 0.10973607E+03</totfact>
</mgrwt>
</event>
<event>
 4    1  0.7145298E-006  0.5077421E+03  0.7818608E-02  0.1011778E+00
         -1   -1    0    0    0  501 -0.00000000000E+00  0.00000000000E+00  0.36025238510E+02  0.36025238862E+02  0.50400000000E-02 0. -1.
          1   -1    0    0  501    0  0.00000000000E+00 -0.00000000000E+00 -0.17890375352E+04  0.17890375352E+04  0.50400000000E-02 0.  1.
    5000001    1    1    2    0    0 -0.81950466695E+02 -0.98428390264E+02 -0.12566112186E+04  0.12776305341E+04  0.19200000000E+03 0.  0.
   -5000001    1    1    2    0    0  0.81950466695E+02  0.98428390264E+02 -0.49640107802E+03  0.54743223988E+03  0.19200000000E+03 0.  0.
<mgrwt>
<rscale>  0 0.50774208E+03</rscale>
<asrwt>0</asrwt>
<pdfrwt beam="1">  1        1 0.25557673E+00 0.50774208E+03</pdfrwt>
<pdfrwt beam="2">  1       -1 0.51464638E-02 0.50774208E+03</pdfrwt>
<totfact> 0.92981900E+02</totfact>
</mgrwt>
</event>
<event>
 4    1  0.7145298E-006  0.1394051E+04  0.7818608E-02  0.8958136E-01
         -1   -1    0    0    0  501 -0.00000000000E+00  0.00000000000E+00  0.26831979617E+03  0.26831979622E+03  0.50400000000E-02 0. -1.
          1   -1    0    0  501    0  0.00000000000E+00 -0.00000000000E+00 -0.18106925231E+04  0.18106925232E+04  0.50400000000E-02 0.  1.
    5000001    1    1    2    0    0 -0.26004683412E+03  0.46483935254E+03 -0.16488382499E+03  0.58970387089E+03  0.19200000000E+03 0.  0.
   -5000001    1    1    2    0    0  0.26004683412E+03 -0.46483935254E+03 -0.13774889020E+04  0.14893084485E+04  0.19200000000E+03 0.  0.
<mgrwt>
<rscale>  0 0.13940511E+04</rscale>
<asrwt>0</asrwt>
<pdfrwt beam="1">  1        1 0.25867035E+00 0.13940511E+04</pdfrwt>
<pdfrwt beam="2">  1       -1 0.38331400E-01 0.13940511E+04</pdfrwt>
<totfact> 0.31556611E+01</totfact>
</mgrwt>
</event>
<event>
 4    1  0.7145298E-006  0.4465580E+03  0.7818608E-02  0.1028753E+00
          1   -1    0    0  501    0  0.00000000000E+00  0.00000000000E+00  0.29593255030E+03  0.29593255035E+03  0.50400000000E-02 0. -1.
         -1   -1    0    0    0  501 -0.00000000000E+00 -0.00000000000E+00 -0.16846242633E+03  0.16846242641E+03  0.50400000000E-02 0.  1.
    5000001    1    1    2    0    0 -0.10927882445E+03 -0.28294167251E+01  0.97266553402E+02  0.24140142809E+03  0.19200000000E+03 0.  0.
   -5000001    1    1    2    0    0  0.10927882445E+03  0.28294167251E+01  0.30203570567E+02  0.22299354867E+03  0.19200000000E+03 0.  0.
<mgrwt>
<rscale>  0 0.44655802E+03</rscale>
<asrwt>0</asrwt>
<pdfrwt beam="1">  1        1 0.42276078E-01 0.44655802E+03</pdfrwt>
<pdfrwt beam="2">  1       -1 0.24066061E-01 0.44655802E+03</pdfrwt>
<totfact> 0.14620860E+03</totfact>
</mgrwt>
</event>
<event>
 4    1  0.7145298E-006  0.6572940E+03  0.7818608E-02  0.9793188E-01
         -1   -1    0    0    0  501 -0.00000000000E+00  0.00000000000E+00  0.46748008547E+02  0.46748008819E+02  0.50400000000E-02 0. -1.
          1   -1    0    0  501    0  0.00000000000E+00 -0.00000000000E+00 -0.23104484738E+04  0.23104484738E+04  0.50400000000E-02 0.  1.
    5000001    1    1    2    0    0  0.20855879648E+03  0.13583595701E+03 -0.14757657556E+04  0.15088726732E+04  0.19200000000E+03 0.  0.
   -5000001    1    1    2    0    0 -0.20855879648E+03 -0.13583595701E+03 -0.78793470970E+03  0.84832380938E+03  0.19200000000E+03 0.  0.
<mgrwt>
<rscale>  0 0.65729404E+03</rscale>
<asrwt>0</asrwt>
<pdfrwt beam="1">  1        1 0.33006400E+00 0.65729404E+03</pdfrwt>
<pdfrwt beam="2">  1       -1 0.66782884E-02 0.65729404E+03</pdfrwt>
<totfact> 0.29355386E+02</totfact>
</mgrwt>
</event>
<event>
 4    1  0.7145298E-006  0.4308705E+03  0.7818608E-02  0.1033585E+00
         -1   -1    0    0    0  501 -0.00000000000E+00  0.00000000000E+00  0.84447344785E+02  0.84447344936E+02  0.50400000000E-02 0. -1.
          1   -1    0    0  501    0  0.00000000000E+00 -0.00000000000E+00 -0.54960095653E+03  0.54960095655E+03  0.50400000000E-02 0.  1.
    5000001    1    1    2    0    0 -0.21943055244E+02  0.62711170294E+02 -0.12713568589E+03  0.23966992131E+03  0.19200000000E+03 0.  0.
   -5000001    1    1    2    0    0  0.21943055244E+02 -0.62711170294E+02 -0.33801792585E+03  0.39437838018E+03  0.19200000000E+03 0.  0.
<mgrwt>
<rscale>  0 0.43087047E+03</rscale>
<asrwt>0</asrwt>
<pdfrwt beam="1">  1        1 0.78514421E-01 0.43087047E+03</pdfrwt>
<pdfrwt beam="2">  1       -1 0.12063907E-01 0.43087047E+03</pdfrwt>
<totfact> 0.20055414E+03</totfact>
</mgrwt>
</event>
<event>
 4    1  0.7145298E-006  0.6186651E+03  0.7818608E-02  0.9867421E-01
         -1   -1    0    0    0  501 -0.00000000000E+00  0.00000000000E+00  0.23417157510E+03  0.23417157515E+03  0.50400000000E-02 0. -1.
          1   -1    0    0  501    0  0.00000000000E+00 -0.00000000000E+00 -0.40861758148E+03  0.40861758151E+03  0.50400000000E-02 0.  1.
    5000001    1    1    2    0    0  0.21799570454E+03  0.43796100723E+01 -0.19757819927E+03  0.35134378180E+03  0.19200000000E+03 0.  0.
   -5000001    1    1    2    0    0 -0.21799570454E+03 -0.43796100723E+01  0.23132192884E+02  0.29144537486E+03  0.19200000000E+03 0.  0.
<mgrwt>
<rscale>  0 0.61866509E+03</rscale>
<asrwt>0</asrwt>
<pdfrwt beam="1">  1        1 0.58373940E-01 0.61866509E+03</pdfrwt>
<pdfrwt beam="2">  1       -1 0.33453082E-01 0.61866509E+03</pdfrwt>
<totfact> 0.54643660E+02</totfact>
</mgrwt>
</event>
<event>
 4    1  0.7145298E-006  0.6856586E+03  0.7818608E-02  0.9742077E-01
          1   -1    0    0  501    0  0.00000000000E+00  0.00000000000E+00  0.78474305743E+03  0.78474305744E+03  0.50400000000E-02 0.  1.
         -1   -1    0    0    0  501 -0.00000000000E+00 -0.00000000000E+00 -0.14977122671E+03  0.14977122679E+03  0.50400000000E-02 0. -1.
    5000001    1    1    2    0    0 -0.17795193364E+03  0.21016289523E+03  0.22273829477E+03  0.40287923895E+03  0.19200000000E+03 0.  0.
   -5000001    1    1    2    0    0  0.17795193364E+03 -0.21016289523E+03  0.41223353595E+03  0.53163504529E+03  0.19200000000E+03 0.  0.
<mgrwt>
<rscale>  0 0.68565860E+03</rscale>
<asrwt>0</asrwt>
<pdfrwt beam="1">  1        1 0.11210615E+00 0.68565860E+03</pdfrwt>
<pdfrwt beam="2">  1       -1 0.21395890E-01 0.68565860E+03</pdfrwt>
<totfact> 0.47186273E+02</totfact>
</mgrwt>
</event>
<event>
 4    1  0.7145298E-006  0.4718189E+03  0.7818608E-02  0.1021408E+00
          1   -1    0    0  501    0  0.00000000000E+00  0.00000000000E+00  0.65506430214E+03  0.65506430216E+03  0.50400000000E-02 0.  1.
         -1   -1    0    0    0  501 -0.00000000000E+00 -0.00000000000E+00 -0.84958495603E+02  0.84958495753E+02  0.50400000000E-02 0. -1.
    5000001    1    1    2    0    0  0.13451952287E+03  0.25773690353E+02  0.29357067266E+03  0.37657339921E+03  0.19200000000E+03 0.  0.
   -5000001    1    1    2    0    0 -0.13451952287E+03 -0.25773690353E+02  0.27653513388E+03  0.36344939870E+03  0.19200000000E+03 0.  0.
<mgrwt>
<rscale>  0 0.47181894E+03</rscale>
<asrwt>0</asrwt>
<pdfrwt beam="1">  1        1 0.93580615E-01 0.47181894E+03</pdfrwt>
<pdfrwt beam="2">  1       -1 0.12136928E-01 0.47181894E+03</pdfrwt>
<totfact> 0.15572983E+03</totfact>
</mgrwt>
</event>
<event>
 4    1  0.7145298E-006  0.4613664E+03  0.7818608E-02  0.1024386E+00
          1   -1    0    0  501    0  0.00000000000E+00  0.00000000000E+00  0.41285671905E+02  0.41285672213E+02  0.50400000000E-02 0.  1.
         -1   -1    0    0    0  501 -0.00000000000E+00 -0.00000000000E+00 -0.12889398552E+04  0.12889398552E+04  0.50400000000E-02 0. -1.
    5000001    1    1    2    0    0  0.93107819140E+02  0.28666368186E+02 -0.86262958136E+03  0.88909202071E+03  0.19200000000E+03 0.  0.
   -5000001    1    1    2    0    0 -0.93107819140E+02 -0.28666368186E+02 -0.38502460193E+03  0.44113350671E+03  0.19200000000E+03 0.  0.
<mgrwt>
<rscale>  0 0.46136644E+03</rscale>
<asrwt>0</asrwt>
<pdfrwt beam="1">  1        1 0.58979539E-02 0.46136644E+03</pdfrwt>
<pdfrwt beam="2">  1       -1 0.18413424E+00 0.46136644E+03</pdfrwt>
<totfact> 0.28129789E+02</totfact>
</mgrwt>
</event>
<event>
 4    1  0.7145298E-006  0.4705057E+03  0.7818608E-02  0.1021778E+00
          1   -1    0    0  501    0  0.00000000000E+00  0.00000000000E+00  0.11602959825E+03  0.11602959836E+03  0.50400000000E-02 0.  1.
         -1   -1    0    0    0  501 -0.00000000000E+00 -0.00000000000E+00 -0.47698095699E+03  0.47698095702E+03  0.50400000000E-02 0. -1.
    5000001    1    1    2    0    0  0.10592656465E+03 -0.69237751439E+02 -0.24305910203E+03  0.33459831202E+03  0.19200000000E+03 0.  0.
   -5000001    1    1    2    0    0 -0.10592656465E+03  0.69237751439E+02 -0.11789225671E+03  0.25841224335E+03  0.19200000000E+03 0.  0.
<mgrwt>
<rscale>  0 0.47050572E+03</rscale>
<asrwt>0</asrwt>
<pdfrwt beam="1">  1        1 0.16575657E-01 0.47050572E+03</pdfrwt>
<pdfrwt beam="2">  1       -1 0.68140135E-01 0.47050572E+03</pdfrwt>
<totfact> 0.74084133E+02</totfact>
</mgrwt>
</event>
<event>
 4    1  0.7145298E-006  0.4179724E+03  0.7818608E-02  0.1037728E+00
         -1   -1    0    0    0  501 -0.00000000000E+00  0.00000000000E+00  0.27751237263E+03  0.27751237268E+03  0.50400000000E-02 0. -1.
          1   -1    0    0  501    0  0.00000000000E+00 -0.00000000000E+00 -0.15738117555E+03  0.15738117563E+03  0.50400000000E-02 0.  1.
    5000001    1    1    2    0    0 -0.56713329841E+02  0.56802495936E+02  0.40097571246E+02  0.21193098062E+03  0.19200000000E+03 0.  0.
   -5000001    1    1    2    0    0  0.56713329841E+02 -0.56802495936E+02  0.80033625837E+02  0.22296256769E+03  0.19200000000E+03 0.  0.
<mgrwt>
<rscale>  0 0.41797236E+03</rscale>
<asrwt>0</asrwt>
<pdfrwt beam="1">  1        1 0.22483025E-01 0.41797236E+03</pdfrwt>
<pdfrwt beam="2">  1       -1 0.39644625E-01 0.41797236E+03</pdfrwt>
<totfact> 0.13841573E+03</totfact>
</mgrwt>
</event>
<event>
 4    1  0.7145298E-006  0.6236078E+03  0.7818608E-02  0.9857603E-01
         -1   -1    0    0    0  501 -0.00000000000E+00  0.00000000000E+00  0.94479806317E+02  0.94479806451E+02  0.50400000000E-02 0. -1.
          1   -1    0    0  501    0  0.00000000000E+00 -0.00000000000E+00 -0.10290207841E+04  0.10290207841E+04  0.50400000000E-02 0.  1.
    5000001    1    1    2    0    0 -0.15059179612E+03 -0.19377117702E+03 -0.48801068583E+03  0.57900223452E+03  0.19200000000E+03 0.  0.
   -5000001    1    1    2    0    0  0.15059179612E+03  0.19377117702E+03 -0.44653029199E+03  0.54449835608E+03  0.19200000000E+03 0.  0.
<mgrwt>
<rscale>  0 0.62360784E+03</rscale>
<asrwt>0</asrwt>
<pdfrwt beam="1">  1        1 0.14700296E+00 0.62360784E+03</pdfrwt>
<pdfrwt beam="2">  1       -1 0.13497116E-01 0.62360784E+03</pdfrwt>
<totfact> 0.64839057E+02</totfact>
</mgrwt>
</event>
<event>
 4    1  0.7145298E-006  0.1477570E+04  0.7818608E-02  0.8899507E-01
         -1   -1    0    0    0  501 -0.00000000000E+00  0.00000000000E+00  0.14577171866E+04  0.14577171867E+04  0.50400000000E-02 0. -1.
          1   -1    0    0  501    0  0.00000000000E+00 -0.00000000000E+00 -0.37442339060E+03  0.37442339064E+03  0.50400000000E-02 0.  1.
    5000001    1    1    2    0    0 -0.39548505236E+03  0.45611228690E+03  0.70307842110E+02  0.63738060652E+03  0.19200000000E+03 0.  0.
   -5000001    1    1    2    0    0  0.39548505236E+03 -0.45611228690E+03  0.10129859539E+04  0.11947599708E+04  0.19200000000E+03 0.  0.
<mgrwt>
<rscale>  0 0.14775702E+04</rscale>
<asrwt>0</asrwt>
<pdfrwt beam="1">  1        1 0.53489056E-01 0.14775702E+04</pdfrwt>
<pdfrwt beam="2">  1       -1 0.20824531E+00 0.14775702E+04</pdfrwt>
<totfact> 0.92681581E+00</totfact>
</mgrwt>
</event>
<event>
 4    1  0.7145298E-006  0.5527486E+03  0.7818608E-02  0.1000860E+00
          1   -1    0    0  501    0  0.00000000000E+00  0.00000000000E+00  0.23900680030E+04  0.23900680030E+04  0.50400000000E-02 0.  1.
         -1   -1    0    0    0  501 -0.00000000000E+00 -0.00000000000E+00 -0.31958404953E+02  0.31958405351E+02  0.50400000000E-02 0. -1.
    5000001    1    1    2    0    0 -0.82071616361E+02 -0.15383203389E+03  0.15974802209E+04  0.16183964598E+04  0.19200000000E+03 0.  0.
   -5000001    1    1    2    0    0  0.82071616361E+02  0.15383203389E+03  0.76062937706E+03  0.80362994849E+03  0.19200000000E+03 0.  0.
<mgrwt>
<rscale>  0 0.55274863E+03</rscale>
<asrwt>0</asrwt>
<pdfrwt beam="1">  1        1 0.34143842E+00 0.55274863E+03</pdfrwt>
<pdfrwt beam="2">  1       -1 0.45654847E-02 0.55274863E+03</pdfrwt>
<totfact> 0.47407732E+02</totfact>
</mgrwt>
</event>
<event>
 4    1  0.7145298E-006  0.4503501E+03  0.7818608E-02  0.1027618E+00
         -1   -1    0    0    0  501 -0.00000000000E+00  0.00000000000E+00  0.62768733962E+02  0.62768734165E+02  0.50400000000E-02 0.  1.
          1   -1    0    0  501    0  0.00000000000E+00 -0.00000000000E+00 -0.80778765493E+03  0.80778765494E+03  0.50400000000E-02 0. -1.
    5000001    1    1    2    0    0  0.14580326887E+02  0.69607467690E+02 -0.19135713806E+03  0.28024871057E+03  0.19200000000E+03 0.  0.
   -5000001    1    1    2    0    0 -0.14580326887E+02 -0.69607467690E+02 -0.55366178290E+03  0.59030767853E+03  0.19200000000E+03 0.  0.
<mgrwt>
<rscale>  0 0.45035012E+03</rscale>
<asrwt>0</asrwt>
<pdfrwt beam="1">  1        1 0.11539823E+00 0.45035012E+03</pdfrwt>
<pdfrwt beam="2">  1       -1 0.89669625E-02 0.45035012E+03</pdfrwt>
<totfact> 0.18409582E+03</totfact>
</mgrwt>
</event>
<event>
 4    1  0.7145298E-006  0.5006559E+03  0.7818608E-02  0.1013608E+00
         -1   -1    0    0    0  501 -0.00000000000E+00  0.00000000000E+00  0.27290691908E+03  0.27290691913E+03  0.50400000000E-02 0. -1.
          1   -1    0    0  501    0  0.00000000000E+00 -0.00000000000E+00 -0.22961706587E+03  0.22961706593E+03  0.50400000000E-02 0.  1.
    5000001    1    1    2    0    0 -0.11197106069E+03 -0.83707680915E+02 -0.57742485369E+02  0.24442317585E+03  0.19200000000E+03 0.  0.
   -5000001    1    1    2    0    0  0.11197106069E+03  0.83707680915E+02  0.10103233858E+03  0.25810080921E+03  0.19200000000E+03 0.  0.
<mgrwt>
<rscale>  0 0.50065591E+03</rscale>
<asrwt>0</asrwt>
<pdfrwt beam="1">  1        1 0.32802438E-01 0.50065591E+03</pdfrwt>
<pdfrwt beam="2">  1       -1 0.38986703E-01 0.50065591E+03</pdfrwt>
<totfact> 0.87685297E+02</totfact>
</mgrwt>
</event>
<event>
 4    1  0.7145298E-006  0.4279549E+03  0.7818608E-02  0.1034508E+00
         -1   -1    0    0    0  501 -0.00000000000E+00  0.00000000000E+00  0.16700511067E+03  0.16700511074E+03  0.50400000000E-02 0. -1.
          1   -1    0    0  501    0  0.00000000000E+00 -0.00000000000E+00 -0.27416133875E+03  0.27416133880E+03  0.50400000000E-02 0.  1.
    5000001    1    1    2    0    0  0.37801543372E+02  0.86145151719E+02 -0.62349666785E+02  0.22271377325E+03  0.19200000000E+03 0.  0.
   -5000001    1    1    2    0    0 -0.37801543372E+02 -0.86145151719E+02 -0.44806561300E+02  0.21845267630E+03  0.19200000000E+03 0.  0.
<mgrwt>
<rscale>  0 0.42795488E+03</rscale>
<asrwt>0</asrwt>
<pdfrwt beam="1">  1        1 0.39165905E-01 0.42795488E+03</pdfrwt>
<pdfrwt beam="2">  1       -1 0.23857873E-01 0.42795488E+03</pdfrwt>
<totfact> 0.16348413E+03</totfact>
</mgrwt>
</event>
<event>
 4    1  0.7145298E-006  0.4268638E+03  0.7818608E-02  0.1034855E+00
         -1   -1    0    0    0  501 -0.00000000000E+00  0.00000000000E+00  0.12213295790E+03  0.12213295800E+03  0.50400000000E-02 0. -1.
          1   -1    0    0  501    0  0.00000000000E+00 -0.00000000000E+00 -0.37298024638E+03  0.37298024641E+03  0.50400000000E-02 0.  1.
    5000001    1    1    2    0    0  0.50698966970E+02 -0.76753392559E+02 -0.10792081129E+03  0.23868885611E+03  0.19200000000E+03 0.  0.
   -5000001    1    1    2    0    0 -0.50698966970E+02  0.76753392559E+02 -0.14292647719E+03  0.25642434831E+03  0.19200000000E+03 0.  0.
<mgrwt>
<rscale>  0 0.42686382E+03</rscale>
<asrwt>0</asrwt>
<pdfrwt beam="1">  1        1 0.53282892E-01 0.42686382E+03</pdfrwt>
<pdfrwt beam="2">  1       -1 0.17447566E-01 0.42686382E+03</pdfrwt>
<totfact> 0.18483771E+03</totfact>
</mgrwt>
</event>
<event>
 4    1  0.7145298E-006  0.6315443E+03  0.7818608E-02  0.9842040E-01
         -1   -1    0    0    0  501 -0.00000000000E+00  0.00000000000E+00  0.57006995974E+03  0.57006995976E+03  0.50400000000E-02 0.  1.
          1   -1    0    0  501    0  0.00000000000E+00 -0.00000000000E+00 -0.17491195976E+03  0.17491195983E+03  0.50400000000E-02 0. -1.
    5000001    1    1    2    0    0 -0.17563775550E+03 -0.15732487527E+03  0.97149690612E+02  0.31922061324E+03  0.19200000000E+03 0.  0.
   -5000001    1    1    2    0    0  0.17563775550E+03  0.15732487527E+03  0.29800830936E+03  0.42576130635E+03  0.19200000000E+03 0.  0.
<mgrwt>
<rscale>  0 0.63154431E+03</rscale>
<asrwt>0</asrwt>
<pdfrwt beam="1">  1        1 0.24987423E-01 0.63154431E+03</pdfrwt>
<pdfrwt beam="2">  1       -1 0.81438566E-01 0.63154431E+03</pdfrwt>
<totfact> 0.29755422E+02</totfact>
</mgrwt>
</event>
<event>
 4    1  0.7145298E-006  0.1097208E+04  0.7818608E-02  0.9207917E-01
         -1   -1    0    0    0  501 -0.00000000000E+00  0.00000000000E+00  0.57564581718E+03  0.57564581720E+03  0.50400000000E-02 0. -1.
          1   -1    0    0  501    0  0.00000000000E+00 -0.00000000000E+00 -0.52283296937E+03  0.52283296939E+03  0.50400000000E-02 0.  1.
    5000001    1    1    2    0    0 -0.37219421764E+03 -0.33223072578E+03 -0.97011687087E+02  0.54330567660E+03  0.19200000000E+03 0.  0.
   -5000001    1    1    2    0    0  0.37219421764E+03  0.33223072578E+03  0.14982453490E+03  0.55517310999E+03  0.19200000000E+03 0.  0.
<mgrwt>
<rscale>  0 0.10972085E+04</rscale>
<asrwt>0</asrwt>
<pdfrwt beam="1">  1        1 0.74690424E-01 0.10972085E+04</pdfrwt>
<pdfrwt beam="2">  1       -1 0.82235117E-01 0.10972085E+04</pdfrwt>
<totfact> 0.67739412E+01</totfact>
</mgrwt>
</event>
<event>
 4    1  0.7145298E-006  0.1123359E+04  0.7818608E-02  0.9182719E-01
          1   -1    0    0  501    0  0.00000000000E+00  0.00000000000E+00  0.11269902963E+04  0.11269902963E+04  0.50400000000E-02 0.  1.
         -1   -1    0    0    0  501 -0.00000000000E+00 -0.00000000000E+00 -0.27993493450E+03  0.27993493454E+03  0.50400000000E-02 0. -1.
    5000001    1    1    2    0    0 -0.32193349898E+03 -0.41166681266E+03  0.51648790068E+03  0.75943037467E+03  0.19200000000E+03 0.  0.
   -5000001    1    1    2    0    0  0.32193349898E+03  0.41166681266E+03  0.33056746108E+03  0.64749485615E+03  0.19200000000E+03 0.  0.
<mgrwt>
<rscale>  0 0.11233592E+04</rscale>
<asrwt>0</asrwt>
<pdfrwt beam="1">  1        1 0.16099862E+00 0.11233592E+04</pdfrwt>
<pdfrwt beam="2">  1       -1 0.39990705E-01 0.11233592E+04</pdfrwt>
<totfact> 0.84387801E+01</totfact>
</mgrwt>
</event>
<event>
 4    1  0.7145298E-006  0.8552913E+03  0.7818608E-02  0.9483262E-01
         -1   -1    0    0    0  501 -0.00000000000E+00  0.00000000000E+00  0.97393874729E+02  0.97393874859E+02  0.50400000000E-02 0. -1.
          1   -1    0    0  501    0  0.00000000000E+00 -0.00000000000E+00 -0.18777445796E+04  0.18777445796E+04  0.50400000000E-02 0.  1.
    5000001    1    1    2    0    0 -0.10697261747E+03  0.14415772857E+03 -0.16691795004E+04  0.16897481458E+04  0.19200000000E+03 0.  0.
   -5000001    1    1    2    0    0  0.10697261747E+03 -0.14415772857E+03 -0.11117120448E+03  0.28539030870E+03  0.19200000000E+03 0.  0.
<mgrwt>
<rscale>  0 0.85529134E+03</rscale>
<asrwt>0</asrwt>
<pdfrwt beam="1">  1        1 0.26824920E+00 0.85529134E+03</pdfrwt>
<pdfrwt beam="2">  1       -1 0.13913412E-01 0.85529134E+03</pdfrwt>
<totfact> 0.16798548E+02</totfact>
</mgrwt>
</event>
<event>
 4    1  0.7145298E-006  0.5141852E+03  0.7818608E-02  0.1010141E+00
          1   -1    0    0  501    0  0.00000000000E+00  0.00000000000E+00  0.25426973783E+04  0.25426973783E+04  0.50400000000E-02 0.  1.
         -1   -1    0    0    0  501 -0.00000000000E+00 -0.00000000000E+00 -0.25994676223E+02  0.25994676711E+02  0.50400000000E-02 0. -1.
    5000001    1    1    2    0    0  0.59159509612E+02  0.13278955527E+03  0.80875115793E+03  0.84384557178E+03  0.19200000000E+03 0.  0.
   -5000001    1    1    2    0    0 -0.59159509612E+02 -0.13278955527E+03  0.17079515442E+04  0.17248464833E+04  0.19200000000E+03 0.  0.
<mgrwt>
<rscale>  0 0.51418516E+03</rscale>
<asrwt>0</asrwt>
<pdfrwt beam="1">  1        1 0.36324249E+00 0.51418516E+03</pdfrwt>
<pdfrwt beam="2">  1       -1 0.37135251E-02 0.51418516E+03</pdfrwt>
<totfact> 0.52307285E+02</totfact>
</mgrwt>
</event>
<event>
 4    1  0.7145298E-006  0.7234000E+03  0.7818608E-02  0.9678031E-01
          1   -1    0    0  501    0  0.00000000000E+00  0.00000000000E+00  0.13425106863E+04  0.13425106863E+04  0.50400000000E-02 0.  1.
         -1   -1    0    0    0  501 -0.00000000000E+00 -0.00000000000E+00 -0.97449421008E+02  0.97449421138E+02  0.50400000000E-02 0. -1.
    5000001    1    1    2    0    0 -0.25285371414E+03  0.10954919916E+03  0.88978943462E+03  0.95106533201E+03  0.19200000000E+03 0.  0.
   -5000001    1    1    2    0    0  0.25285371414E+03 -0.10954919916E+03  0.35527183070E+03  0.48889477547E+03  0.19200000000E+03 0.  0.
<mgrwt>
<rscale>  0 0.72340000E+03</rscale>
<asrwt>0</asrwt>
<pdfrwt beam="1">  1        1 0.19178723E+00 0.72340000E+03</pdfrwt>
<pdfrwt beam="2">  1       -1 0.13921347E-01 0.72340000E+03</pdfrwt>
<totfact> 0.37235048E+02</totfact>
</mgrwt>
</event>
<event>
 4    1  0.7145298E-006  0.6904599E+03  0.7818608E-02  0.9733688E-01
         -1   -1    0    0    0  501 -0.00000000000E+00  0.00000000000E+00  0.13663409619E+03  0.13663409628E+03  0.50400000000E-02 0. -1.
          1   -1    0    0  501    0  0.00000000000E+00 -0.00000000000E+00 -0.87228382675E+03  0.87228382676E+03  0.50400000000E-02 0.  1.
    5000001    1    1    2    0    0 -0.77278421823E+02 -0.27502475511E+03 -0.32891282762E+03  0.47608635622E+03  0.19200000000E+03 0.  0.
   -5000001    1    1    2    0    0  0.77278421823E+02  0.27502475511E+03 -0.40673690293E+03  0.53283156683E+03  0.19200000000E+03 0.  0.
<mgrwt>
<rscale>  0 0.69045988E+03</rscale>
<asrwt>0</asrwt>
<pdfrwt beam="1">  1        1 0.12461197E+00 0.69045988E+03</pdfrwt>
<pdfrwt beam="2">  1       -1 0.19519157E-01 0.69045988E+03</pdfrwt>
<totfact> 0.46597970E+02</totfact>
</mgrwt>
</event>
<event>
 4    1  0.7145298E-006  0.6172018E+03  0.7818608E-02  0.9870347E-01
          1   -1    0    0  501    0  0.00000000000E+00  0.00000000000E+00  0.57411455081E+02  0.57411455302E+02  0.50400000000E-02 0.  1.
         -1   -1    0    0    0  501 -0.00000000000E+00 -0.00000000000E+00 -0.16588067868E+04  0.16588067868E+04  0.50400000000E-02 0. -1.
    5000001    1    1    2    0    0  0.19500257485E+03  0.43106813144E+01 -0.11971313077E+04  0.12280195251E+04  0.19200000000E+03 0.  0.
   -5000001    1    1    2    0    0 -0.19500257485E+03 -0.43106813144E+01 -0.40426402405E+03  0.48819871703E+03  0.19200000000E+03 0.  0.
<mgrwt>
<rscale>  0 0.61720179E+03</rscale>
<asrwt>0</asrwt>
<pdfrwt beam="1">  1        1 0.82016375E-02 0.61720179E+03</pdfrwt>
<pdfrwt beam="2">  1       -1 0.23697237E+00 0.61720179E+03</pdfrwt>
<totfact> 0.77889937E+01</totfact>
</mgrwt>
</event>
<event>
 4    1  0.7145298E-006  0.4757795E+03  0.7818608E-02  0.1020302E+00
          1   -1    0    0  501    0  0.00000000000E+00  0.00000000000E+00  0.39839564196E+03  0.39839564199E+03  0.50400000000E-02 0.  1.
         -1   -1    0    0    0  501 -0.00000000000E+00 -0.00000000000E+00 -0.14204856589E+03  0.14204856598E+03  0.50400000000E-02 0. -1.
    5000001    1    1    2    0    0  0.12691625344E+03 -0.60052141573E+02  0.12399459111E+03  0.26823991821E+03  0.19200000000E+03 0.  0.
   -5000001    1    1    2    0    0 -0.12691625344E+03  0.60052141573E+02  0.13235248495E+03  0.27220428977E+03  0.19200000000E+03 0.  0.
<mgrwt>
<rscale>  0 0.47577949E+03</rscale>
<asrwt>0</asrwt>
<pdfrwt beam="1">  1        1 0.56913664E-01 0.47577949E+03</pdfrwt>
<pdfrwt beam="2">  1       -1 0.20292652E-01 0.47577949E+03</pdfrwt>
<totfact> 0.13259226E+03</totfact>
</mgrwt>
</event>
<event>
 4    1  0.7145298E-006  0.9609138E+03  0.7818608E-02  0.9352484E-01
         -1   -1    0    0    0  501 -0.00000000000E+00  0.00000000000E+00  0.19328811704E+03  0.19328811711E+03  0.50400000000E-02 0. -1.
          1   -1    0    0  501    0  0.00000000000E+00 -0.00000000000E+00 -0.11942732514E+04  0.11942732514E+04  0.50400000000E-02 0.  1.
    5000001    1    1    2    0    0  0.67575285798E+02  0.35150720887E+03 -0.87104465198E+03  0.96109652111E+03  0.19200000000E+03 0.  0.
   -5000001    1    1    2    0    0 -0.67575285798E+02 -0.35150720887E+03 -0.12994048241E+03  0.42646484745E+03  0.19200000000E+03 0.  0.
<mgrwt>
<rscale>  0 0.96091379E+03</rscale>
<asrwt>0</asrwt>
<pdfrwt beam="1">  1        1 0.17061046E+00 0.96091379E+03</pdfrwt>
<pdfrwt beam="2">  1       -1 0.27612589E-01 0.96091379E+03</pdfrwt>
<totfact> 0.14763326E+02</totfact>
</mgrwt>
</event>
<event>
 4    1  0.7145298E-006  0.1724514E+04  0.7818608E-02  0.8747506E-01
          1   -1    0    0  501    0  0.00000000000E+00  0.00000000000E+00  0.11456652808E+04  0.11456652808E+04  0.50400000000E-02 0. -1.
         -1   -1    0    0    0  501 -0.00000000000E+00 -0.00000000000E+00 -0.64895635612E+03  0.64895635614E+03  0.50400000000E-02 0.  1.
    5000001    1    1    2    0    0 -0.52201435103E+03 -0.50615360989E+03 -0.19061437132E+03  0.77581460288E+03  0.19200000000E+03 0.  0.
   -5000001    1    1    2    0    0  0.52201435103E+03  0.50615360989E+03  0.68732329603E+03  0.10188070341E+04  0.19200000000E+03 0.  0.
<mgrwt>
<rscale>  0 0.17245136E+04</rscale>
<asrwt>0</asrwt>
<pdfrwt beam="1">  1        1 0.16366647E+00 0.17245136E+04</pdfrwt>
<pdfrwt beam="2">  1       -1 0.92708052E-01 0.17245136E+04</pdfrwt>
<totfact> 0.14557664E+01</totfact>
</mgrwt>
</event>
<event>
 4    1  0.7145298E-006  0.5047974E+03  0.7818608E-02  0.1012534E+00
          1   -1    0    0  501    0  0.00000000000E+00  0.00000000000E+00  0.55978543400E+02  0.55978543627E+02  0.50400000000E-02 0. -1.
         -1   -1    0    0    0  501 -0.00000000000E+00 -0.00000000000E+00 -0.11380270827E+04  0.11380270827E+04  0.50400000000E-02 0.  1.
    5000001    1    1    2    0    0  0.99811367103E+02 -0.10351109390E+03 -0.35531689197E+03  0.42870846654E+03  0.19200000000E+03 0.  0.
   -5000001    1    1    2    0    0 -0.99811367103E+02  0.10351109390E+03 -0.72673164729E+03  0.76529715976E+03  0.19200000000E+03 0.  0.
<mgrwt>
<rscale>  0 0.50479738E+03</rscale>
<asrwt>0</asrwt>
<pdfrwt beam="1">  1        1 0.79969355E-02 0.50479738E+03</pdfrwt>
<pdfrwt beam="2">  1       -1 0.16257528E+00 0.50479738E+03</pdfrwt>
<totfact> 0.26252807E+02</totfact>
</mgrwt>
</event>
<event>
 4    1  0.7145298E-006  0.4448458E+03  0.7818608E-02  0.1029270E+00
         -1   -1    0    0    0  501 -0.00000000000E+00  0.00000000000E+00  0.56671388023E+02  0.56671388247E+02  0.50400000000E-02 0. -1.
          1   -1    0    0  501    0  0.00000000000E+00 -0.00000000000E+00 -0.87296160832E+03  0.87296160833E+03  0.50400000000E-02 0.  1.
    5000001    1    1    2    0    0 -0.93969003081E+02  0.60524184139E+02 -0.38577406505E+03  0.44517297725E+03  0.19200000000E+03 0.  0.
   -5000001    1    1    2    0    0  0.93969003081E+02 -0.60524184139E+02 -0.43051615524E+03  0.48446001933E+03  0.19200000000E+03 0.  0.
<mgrwt>
<rscale>  0 0.44484580E+03</rscale>
<asrwt>0</asrwt>
<pdfrwt beam="1">  1        1 0.12470879E+00 0.44484580E+03</pdfrwt>
<pdfrwt beam="2">  1       -1 0.80959131E-02 0.44484580E+03</pdfrwt>
<totfact> 0.19128635E+03</totfact>
</mgrwt>
</event>
<event>
 4    1  0.7145298E-006  0.4562176E+03  0.7818608E-02  0.1025884E+00
         -1   -1    0    0    0  501 -0.00000000000E+00  0.00000000000E+00  0.25280621294E+03  0.25280621299E+03  0.50400000000E-02 0. -1.
          1   -1    0    0  501    0  0.00000000000E+00 -0.00000000000E+00 -0.20582411549E+03  0.20582411555E+03  0.50400000000E-02 0.  1.
    5000001    1    1    2    0    0 -0.64592469759E+02  0.68096780852E+02 -0.56681942843E+02  0.22110224186E+03  0.19200000000E+03 0.  0.
   -5000001    1    1    2    0    0  0.64592469759E+02 -0.68096780852E+02  0.10366404029E+03  0.23752808668E+03  0.19200000000E+03 0.  0.
<mgrwt>
<rscale>  0 0.45621756E+03</rscale>
<asrwt>0</asrwt>
<pdfrwt beam="1">  1        1 0.29403445E-01 0.45621756E+03</pdfrwt>
<pdfrwt beam="2">  1       -1 0.36115173E-01 0.45621756E+03</pdfrwt>
<totfact> 0.11563849E+03</totfact>
</mgrwt>
</event>
<event>
 4    1  0.7145298E-006  0.4201301E+03  0.7818608E-02  0.1037024E+00
          1   -1    0    0  501    0  0.00000000000E+00  0.00000000000E+00  0.14883056839E+04  0.14883056839E+04  0.50400000000E-02 0. -1.
         -1   -1    0    0    0  501 -0.00000000000E+00 -0.00000000000E+00 -0.29649376204E+02  0.29649376632E+02  0.50400000000E-02 0.  1.
    5000001    1    1    2    0    0 -0.35078460480E+02 -0.40776658074E+02  0.49048059056E+03  0.52946052162E+03  0.19200000000E+03 0.  0.
   -5000001    1    1    2    0    0  0.35078460480E+02  0.40776658074E+02  0.96817571712E+03  0.98849453891E+03  0.19200000000E+03 0.  0.
<mgrwt>
<rscale>  0 0.42013015E+03</rscale>
<asrwt>0</asrwt>
<pdfrwt beam="1">  1        1 0.21261508E+00 0.42013015E+03</pdfrwt>
<pdfrwt beam="2">  1       -1 0.42356255E-02 0.42013015E+03</pdfrwt>
<totfact> 0.19342306E+03</totfact>
</mgrwt>
</event>
<event>
 4    1  0.7145298E-006  0.4698148E+03  0.7818608E-02  0.1021972E+00
         -1   -1    0    0    0  501 -0.00000000000E+00  0.00000000000E+00  0.11878005229E+03  0.11878005240E+03  0.50400000000E-02 0. -1.
          1   -1    0    0  501    0  0.00000000000E+00 -0.00000000000E+00 -0.46456861585E+03  0.46456861588E+03  0.50400000000E-02 0.  1.
    5000001    1    1    2    0    0 -0.20941443322E+02 -0.84623476685E+02 -0.30143907939E+03  0.36787116690E+03  0.19200000000E+03 0.  0.
   -5000001    1    1    2    0    0  0.20941443322E+02  0.84623476685E+02 -0.44349484175E+02  0.21547750138E+03  0.19200000000E+03 0.  0.
<mgrwt>
<rscale>  0 0.46981479E+03</rscale>
<asrwt>0</asrwt>
<pdfrwt beam="1">  1        1 0.66366944E-01 0.46981479E+03</pdfrwt>
<pdfrwt beam="2">  1       -1 0.16968579E-01 0.46981479E+03</pdfrwt>
<totfact> 0.14538161E+03</totfact>
</mgrwt>
</event>
<event>
 4    1  0.7145298E-006  0.3960187E+03  0.7818608E-02  0.1045167E+00
          1   -1    0    0  501    0  0.00000000000E+00  0.00000000000E+00  0.11184424748E+04  0.11184424748E+04  0.50400000000E-02 0. -1.
         -1   -1    0    0    0  501 -0.00000000000E+00 -0.00000000000E+00 -0.35055629847E+02  0.35055630209E+02  0.50400000000E-02 0.  1.
    5000001    1    1    2    0    0 -0.42745751425E+02  0.54294097584E+01  0.60597374981E+03  0.63712232986E+03  0.19200000000E+03 0.  0.
   -5000001    1    1    2    0    0  0.42745751425E+02 -0.54294097584E+01  0.47741309518E+03  0.51637577519E+03  0.19200000000E+03 0.  0.
<mgrwt>
<rscale>  0 0.39601871E+03</rscale>
<asrwt>0</asrwt>
<pdfrwt beam="1">  1        1 0.15977748E+00 0.39601871E+03</pdfrwt>
<pdfrwt beam="2">  1       -1 0.50079478E-02 0.39601871E+03</pdfrwt>
<totfact> 0.26347230E+03</totfact>
</mgrwt>
</event>
<event>
 4    1  0.7145298E-006  0.6136046E+03  0.7818608E-02  0.9877576E-01
          1   -1    0    0  501    0  0.00000000000E+00  0.00000000000E+00  0.26735469463E+03  0.26735469468E+03  0.50400000000E-02 0.  1.
         -1   -1    0    0    0  501 -0.00000000000E+00 -0.00000000000E+00 -0.35207030115E+03  0.35207030118E+03  0.50400000000E-02 0. -1.
    5000001    1    1    2    0    0  0.16759432183E+03 -0.93164042483E+01  0.12981497681E+03  0.28616530241E+03  0.19200000000E+03 0.  0.
   -5000001    1    1    2    0    0 -0.16759432183E+03  0.93164042483E+01 -0.21453058333E+03  0.33325969345E+03  0.19200000000E+03 0.  0.
<mgrwt>
<rscale>  0 0.61360459E+03</rscale>
<asrwt>0</asrwt>
<pdfrwt beam="1">  1        1 0.38193528E-01 0.61360459E+03</pdfrwt>
<pdfrwt beam="2">  1       -1 0.50295757E-01 0.61360459E+03</pdfrwt>
<totfact> 0.45033765E+02</totfact>
</mgrwt>
</event>
<event>
 4    1  0.7145298E-006  0.5539693E+03  0.7818608E-02  0.1000579E+00
          1   -1    0    0  501    0  0.00000000000E+00  0.00000000000E+00  0.72724739577E+03  0.72724739579E+03  0.50400000000E-02 0.  1.
         -1   -1    0    0    0  501 -0.00000000000E+00 -0.00000000000E+00 -0.10549437045E+03  0.10549437057E+03  0.50400000000E-02 0. -1.
    5000001    1    1    2    0    0  0.31238593538E+02 -0.19518248722E+03  0.35297903735E+03  0.44780604491E+03  0.19200000000E+03 0.  0.
   -5000001    1    1    2    0    0 -0.31238593538E+02  0.19518248722E+03  0.26877398796E+03  0.38493572145E+03  0.19200000000E+03 0.  0.
<mgrwt>
<rscale>  0 0.55396934E+03</rscale>
<asrwt>0</asrwt>
<pdfrwt beam="1">  1        1 0.10389248E+00 0.55396934E+03</pdfrwt>
<pdfrwt beam="2">  1       -1 0.15070624E-01 0.55396934E+03</pdfrwt>
<totfact> 0.94523249E+02</totfact>
</mgrwt>
</event>
<event>
 4    1  0.7145298E-006  0.5002798E+03  0.7818608E-02  0.1013706E+00
         -1   -1    0    0    0  501 -0.00000000000E+00  0.00000000000E+00  0.14658970528E+03  0.14658970536E+03  0.50400000000E-02 0. -1.
          1   -1    0    0  501    0  0.00000000000E+00 -0.00000000000E+00 -0.42683743186E+03  0.42683743189E+03  0.50400000000E-02 0.  1.
    5000001    1    1    2    0    0 -0.15029556760E+03  0.86234559208E+01 -0.20335131189E+03  0.31761435371E+03  0.19200000000E+03 0.  0.
   -5000001    1    1    2    0    0  0.15029556760E+03 -0.86234559208E+01 -0.76896414689E+02  0.25581278354E+03  0.19200000000E+03 0.  0.
<mgrwt>
<rscale>  0 0.50027982E+03</rscale>
<asrwt>0</asrwt>
<pdfrwt beam="1">  1        1 0.60976776E-01 0.50027982E+03</pdfrwt>
<pdfrwt beam="2">  1       -1 0.20941387E-01 0.50027982E+03</pdfrwt>
<totfact> 0.11504473E+03</totfact>
</mgrwt>
</event>
<event>
 4    1  0.7145298E-006  0.6670682E+03  0.7818608E-02  0.9775269E-01
          1   -1    0    0  501    0  0.00000000000E+00  0.00000000000E+00  0.39104291714E+03  0.39104291717E+03  0.50400000000E-02 0.  1.
         -1   -1    0    0    0  501 -0.00000000000E+00 -0.00000000000E+00 -0.28448279673E+03  0.28448279677E+03  0.50400000000E-02 0. -1.
    5000001    1    1    2    0    0  0.19611143483E+03  0.93699747700E+02 -0.11355593528E+03  0.31144548163E+03  0.19200000000E+03 0.  0.
   -5000001    1    1    2    0    0 -0.19611143483E+03 -0.93699747700E+02  0.22011605569E+03  0.36408023232E+03  0.19200000000E+03 0.  0.
<mgrwt>
<rscale>  0 0.66706816E+03</rscale>
<asrwt>0</asrwt>
<pdfrwt beam="1">  1        1 0.55863274E-01 0.66706816E+03</pdfrwt>
<pdfrwt beam="2">  1       -1 0.40640399E-01 0.66706816E+03</pdfrwt>
<totfact> 0.40801060E+02</totfact>
</mgrwt>
</event>
<event>
 4    1  0.7145298E-006  0.5190370E+03  0.7818608E-02  0.1008926E+00
         -1   -1    0    0    0  501 -0.00000000000E+00  0.00000000000E+00  0.27131068471E+02  0.27131068939E+02  0.50400000000E-02 0. -1.
          1   -1    0    0  501    0  0.00000000000E+00 -0.00000000000E+00 -0.24823889271E+04  0.24823889271E+04  0.50400000000E-02 0.  1.
    5000001    1    1    2    0    0  0.12795175171E+03 -0.86049188927E+02 -0.83158304993E+03  0.86727762718E+03  0.19200000000E+03 0.  0.
   -5000001    1    1    2    0    0 -0.12795175171E+03  0.86049188927E+02 -0.16236748087E+04  0.16422423689E+04  0.19200000000E+03 0.  0.
<mgrwt>
<rscale>  0 0.51903705E+03</rscale>
<asrwt>0</asrwt>
<pdfrwt beam="1">  1        1 0.35462684E+00 0.51903705E+03</pdfrwt>
<pdfrwt beam="2">  1       -1 0.38758685E-02 0.51903705E+03</pdfrwt>
<totfact> 0.53429390E+02</totfact>
</mgrwt>
</event>
<event>
 4    1  0.7145298E-006  0.4937839E+03  0.7818608E-02  0.1015414E+00
         -1   -1    0    0    0  501 -0.00000000000E+00  0.00000000000E+00  0.32019001380E+03  0.32019001384E+03  0.50400000000E-02 0. -1.
          1   -1    0    0  501    0  0.00000000000E+00 -0.00000000000E+00 -0.19037335039E+03  0.19037335045E+03  0.50400000000E-02 0.  1.
    5000001    1    1    2    0    0  0.12189924594E+03  0.12682368714E+02 -0.33571952861E+02  0.23024192636E+03  0.19200000000E+03 0.  0.
   -5000001    1    1    2    0    0 -0.12189924594E+03 -0.12682368714E+02  0.16338861627E+03  0.28032143793E+03  0.19200000000E+03 0.  0.
<mgrwt>
<rscale>  0 0.49378394E+03</rscale>
<asrwt>0</asrwt>
<pdfrwt beam="1">  1        1 0.27196193E-01 0.49378394E+03</pdfrwt>
<pdfrwt beam="2">  1       -1 0.45741430E-01 0.49378394E+03</pdfrwt>
<totfact> 0.83433955E+02</totfact>
</mgrwt>
</event>
<event>
 4    1  0.7145298E-006  0.8009006E+03  0.7818608E-02  0.9558714E-01
         -1   -1    0    0    0  501 -0.00000000000E+00  0.00000000000E+00  0.19727002728E+03  0.19727002735E+03  0.50400000000E-02 0.  1.
          1   -1    0    0  501    0  0.00000000000E+00 -0.00000000000E+00 -0.81289815829E+03  0.81289815831E+03  0.50400000000E-02 0. -1.
    5000001    1    1    2    0    0  0.16335205940E+03 -0.30748785509E+03 -0.36782505584E+03  0.54165666990E+03  0.19200000000E+03 0.  0.
   -5000001    1    1    2    0    0 -0.16335205940E+03  0.30748785509E+03 -0.24780307517E+03  0.46851151576E+03  0.19200000000E+03 0.  0.
<mgrwt>
<rscale>  0 0.80090060E+03</rscale>
<asrwt>0</asrwt>
<pdfrwt beam="1">  1        1 0.11612831E+00 0.80090060E+03</pdfrwt>
<pdfrwt beam="2">  1       -1 0.28181433E-01 0.80090060E+03</pdfrwt>
<totfact> 0.27826728E+02</totfact>
</mgrwt>
</event>
<event>
 4    1  0.7145298E-006  0.4324301E+03  0.7818608E-02  0.1033095E+00
         -1   -1    0    0    0  501 -0.00000000000E+00  0.00000000000E+00  0.22392365364E+02  0.22392365931E+02  0.50400000000E-02 0. -1.
          1   -1    0    0  501    0  0.00000000000E+00 -0.00000000000E+00 -0.20877177414E+04  0.20877177414E+04  0.50400000000E-02 0.  1.
    5000001    1    1    2    0    0 -0.13796430683E+02 -0.95323145989E+02 -0.91233236118E+03  0.93727860368E+03  0.19200000000E+03 0.  0.
   -5000001    1    1    2    0    0  0.13796430683E+02  0.95323145989E+02 -0.11529930148E+04  0.11728315036E+04  0.19200000000E+03 0.  0.
<mgrwt>
<rscale>  0 0.43243006E+03</rscale>
<asrwt>0</asrwt>
<pdfrwt beam="1">  1        1 0.29824527E+00 0.43243006E+03</pdfrwt>
<pdfrwt beam="2">  1       -1 0.31989107E-02 0.43243006E+03</pdfrwt>
<totfact> 0.12552422E+03</totfact>
</mgrwt>
</event>
<event>
 4    1  0.7145298E-006  0.6382960E+03  0.7818608E-02  0.9828992E-01
          1   -1    0    0  501    0  0.00000000000E+00  0.00000000000E+00  0.14298462265E+04  0.14298462265E+04  0.50400000000E-02 0.  1.
         -1   -1    0    0    0  501 -0.00000000000E+00 -0.00000000000E+00 -0.71235244106E+02  0.71235244285E+02  0.50400000000E-02 0. -1.
    5000001    1    1    2    0    0  0.89757485294E+02  0.20390435800E+03  0.97074619440E+03  0.10143202489E+04  0.19200000000E+03 0.  0.
   -5000001    1    1    2    0    0 -0.89757485294E+02 -0.20390435800E+03  0.38786478798E+03  0.48676122189E+03  0.19200000000E+03 0.  0.
<mgrwt>
<rscale>  0 0.63829600E+03</rscale>
<asrwt>0</asrwt>
<pdfrwt beam="1">  1        1 0.20426376E+00 0.63829600E+03</pdfrwt>
<pdfrwt beam="2">  1       -1 0.10176463E-01 0.63829600E+03</pdfrwt>
<totfact> 0.54089669E+02</totfact>
</mgrwt>
</event>
<event>
 4    1  0.7145298E-006  0.6219494E+03  0.7818608E-02  0.9860886E-01
          1   -1    0    0  501    0  0.00000000000E+00  0.00000000000E+00  0.12246548781E+04  0.12246548781E+04  0.50400000000E-02 0. -1.
         -1   -1    0    0    0  501 -0.00000000000E+00 -0.00000000000E+00 -0.78965330681E+02  0.78965330842E+02  0.50400000000E-02 0.  1.
    5000001    1    1    2    0    0  0.18241653514E+03  0.41713299996E+02  0.90309633472E+03  0.94205243032E+03  0.19200000000E+03 0.  0.
   -5000001    1    1    2    0    0 -0.18241653514E+03 -0.41713299996E+02  0.24259321267E+03  0.36156777860E+03  0.19200000000E+03 0.  0.
<mgrwt>
<rscale>  0 0.62194944E+03</rscale>
<asrwt>0</asrwt>
<pdfrwt beam="1">  1        1 0.17495070E+00 0.62194944E+03</pdfrwt>
<pdfrwt beam="2">  1       -1 0.11280761E-01 0.62194944E+03</pdfrwt>
<totfact> 0.62918468E+02</totfact>
</mgrwt>
</event>
<event>
 4    1  0.7145298E-006  0.4145851E+03  0.7818608E-02  0.1038843E+00
          1   -1    0    0  501    0  0.00000000000E+00  0.00000000000E+00  0.11750305501E+04  0.11750305502E+04  0.50400000000E-02 0. -1.
         -1   -1    0    0    0  501 -0.00000000000E+00 -0.00000000000E+00 -0.36569435328E+02  0.36569435676E+02  0.50400000000E-02 0.  1.
    5000001    1    1    2    0    0 -0.48588241602E+02 -0.42215379066E+02  0.69871965109E+03  0.72747240929E+03  0.19200000000E+03 0.  0.
   -5000001    1    1    2    0    0  0.48588241602E+02  0.42215379066E+02  0.43974146372E+03  0.48412757654E+03  0.19200000000E+03 0.  0.
<mgrwt>
<rscale>  0 0.41458511E+03</rscale>
<asrwt>0</asrwt>
<pdfrwt beam="1">  1        1 0.16786146E+00 0.41458511E+03</pdfrwt>
<pdfrwt beam="2">  1       -1 0.52242066E-02 0.41458511E+03</pdfrwt>
<totfact> 0.22593149E+03</totfact>
</mgrwt>
</event>
<event>
 4    1  0.7145298E-006  0.1032001E+04  0.7818608E-02  0.9274126E-01
         -1   -1    0    0    0  501 -0.00000000000E+00  0.00000000000E+00  0.29808819502E+03  0.29808819506E+03  0.50400000000E-02 0.  1.
          1   -1    0    0  501    0  0.00000000000E+00 -0.00000000000E+00 -0.89321435559E+03  0.89321435560E+03  0.50400000000E-02 0. -1.
    5000001    1    1    2    0    0 -0.29917417591E+03 -0.13438753086E+03  0.10535284502E+03  0.39437091416E+03  0.19200000000E+03 0.  0.
   -5000001    1    1    2    0    0  0.29917417591E+03  0.13438753086E+03 -0.70047900559E+03  0.79693163650E+03  0.19200000000E+03 0.  0.
<mgrwt>
<rscale>  0 0.10320013E+04</rscale>
<asrwt>0</asrwt>
<pdfrwt beam="1">  1        1 0.12760205E+00 0.10320013E+04</pdfrwt>
<pdfrwt beam="2">  1       -1 0.42584028E-01 0.10320013E+04</pdfrwt>
<totfact> 0.11317068E+02</totfact>
</mgrwt>
</event>
<event>
 4    1  0.7145298E-006  0.5444959E+03  0.7818608E-02  0.1002776E+00
          1   -1    0    0  501    0  0.00000000000E+00  0.00000000000E+00  0.42870914353E+03  0.42870914356E+03  0.50400000000E-02 0. -1.
         -1   -1    0    0    0  501 -0.00000000000E+00 -0.00000000000E+00 -0.17288862124E+03  0.17288862131E+03  0.50400000000E-02 0.  1.
    5000001    1    1    2    0    0 -0.10110495705E+03 -0.16216904536E+03  0.97978219393E+02  0.28807072585E+03  0.19200000000E+03 0.  0.
   -5000001    1    1    2    0    0  0.10110495705E+03  0.16216904536E+03  0.15784230290E+03  0.31352703903E+03  0.19200000000E+03 0.  0.
<mgrwt>
<rscale>  0 0.54449585E+03</rscale>
<asrwt>0</asrwt>
<pdfrwt beam="1">  1        1 0.61244163E-01 0.54449585E+03</pdfrwt>
<pdfrwt beam="2">  1       -1 0.24698375E-01 0.54449585E+03</pdfrwt>
<totfact> 0.86729849E+02</totfact>
</mgrwt>
</event>
<event>
 4    1  0.7145298E-006  0.5787940E+03  0.7818608E-02  0.9950405E-01
         -1   -1    0    0    0  501 -0.00000000000E+00  0.00000000000E+00  0.68419340144E+02  0.68419340329E+02  0.50400000000E-02 0. -1.
          1   -1    0    0  501    0  0.00000000000E+00 -0.00000000000E+00 -0.12240783065E+04  0.12240783065E+04  0.50400000000E-02 0.  1.
    5000001    1    1    2    0    0  0.15512253548E+03 -0.14974355111E+03 -0.53313994020E+03  0.60629062993E+03  0.19200000000E+03 0.  0.
   -5000001    1    1    2    0    0 -0.15512253548E+03  0.14974355111E+03 -0.62251902611E+03  0.68620701686E+03  0.19200000000E+03 0.  0.
<mgrwt>
<rscale>  0 0.57879402E+03</rscale>
<asrwt>0</asrwt>
<pdfrwt beam="1">  1        1 0.17486832E+00 0.57879402E+03</pdfrwt>
<pdfrwt beam="2">  1       -1 0.97741922E-02 0.57879402E+03</pdfrwt>
<totfact> 0.79151115E+02</totfact>
</mgrwt>
</event>
<event>
 4    1  0.7145298E-006  0.8400797E+03  0.7818608E-02  0.9503749E-01
          1   -1    0    0  501    0  0.00000000000E+00  0.00000000000E+00  0.45857454432E+03  0.45857454435E+03  0.50400000000E-02 0.  1.
         -1   -1    0    0    0  501 -0.00000000000E+00 -0.00000000000E+00 -0.38474327939E+03  0.38474327943E+03  0.50400000000E-02 0. -1.
    5000001    1    1    2    0    0  0.21096104157E+03  0.12098519693E+03  0.32160618962E+03  0.44658316150E+03  0.19200000000E+03 0.  0.
   -5000001    1    1    2    0    0 -0.21096104157E+03 -0.12098519693E+03 -0.24777492470E+03  0.39673466227E+03  0.19200000000E+03 0.  0.
<mgrwt>
<rscale>  0 0.84007970E+03</rscale>
<asrwt>0</asrwt>
<pdfrwt beam="1">  1        1 0.65510649E-01 0.84007970E+03</pdfrwt>
<pdfrwt beam="2">  1       -1 0.54963326E-01 0.84007970E+03</pdfrwt>
<totfact> 0.18636230E+02</totfact>
</mgrwt>
</event>
<event>
 4    1  0.7145298E-006  0.6694551E+03  0.7818608E-02  0.9770943E-01
          1   -1    0    0  501    0  0.00000000000E+00  0.00000000000E+00  0.12901643310E+03  0.12901643320E+03  0.50400000000E-02 0.  1.
         -1   -1    0    0    0  501 -0.00000000000E+00 -0.00000000000E+00 -0.86843618463E+03  0.86843618464E+03  0.50400000000E-02 0. -1.
    5000001    1    1    2    0    0  0.22210483140E+03  0.15771631999E+03 -0.41619873387E+03  0.53318887816E+03  0.19200000000E+03 0.  0.
   -5000001    1    1    2    0    0 -0.22210483140E+03 -0.15771631999E+03 -0.32322101765E+03  0.46426373967E+03  0.19200000000E+03 0.  0.
<mgrwt>
<rscale>  0 0.66945512E+03</rscale>
<asrwt>0</asrwt>
<pdfrwt beam="1">  1        1 0.18430919E-01 0.66945512E+03</pdfrwt>
<pdfrwt beam="2">  1       -1 0.12406231E+00 0.66945512E+03</pdfrwt>
<totfact> 0.16968406E+02</totfact>
</mgrwt>
</event>
<event>
 4    1  0.7145298E-006  0.5404213E+03  0.7818608E-02  0.1003736E+00
         -1   -1    0    0    0  501 -0.00000000000E+00  0.00000000000E+00  0.27038646723E+03  0.27038646727E+03  0.50400000000E-02 0. -1.
          1   -1    0    0  501    0  0.00000000000E+00 -0.00000000000E+00 -0.27003491393E+03  0.27003491398E+03  0.50400000000E-02 0.  1.
    5000001    1    1    2    0    0  0.12052863022E+03  0.58491150910E+02 -0.13473689399E+03  0.27012292764E+03  0.19200000000E+03 0.  0.
   -5000001    1    1    2    0    0 -0.12052863022E+03 -0.58491150910E+02  0.13508844728E+03  0.27029845361E+03  0.19200000000E+03 0.  0.
<mgrwt>
<rscale>  0 0.54042127E+03</rscale>
<asrwt>0</asrwt>
<pdfrwt beam="1">  1        1 0.38576416E-01 0.54042127E+03</pdfrwt>
<pdfrwt beam="2">  1       -1 0.38626639E-01 0.54042127E+03</pdfrwt>
<totfact> 0.72385196E+02</totfact>
</mgrwt>
</event>
<event>
 4    1  0.7145298E-006  0.8035212E+03  0.7818608E-02  0.9554934E-01
          1   -1    0    0  501    0  0.00000000000E+00  0.00000000000E+00  0.46638956144E+03  0.46638956147E+03  0.50400000000E-02 0.  1.
         -1   -1    0    0    0  501 -0.00000000000E+00 -0.00000000000E+00 -0.34608742284E+03  0.34608742288E+03  0.50400000000E-02 0. -1.
    5000001    1    1    2    0    0  0.12915748092E+03 -0.32792783139E+03  0.41803749595E+02  0.40352183454E+03  0.19200000000E+03 0.  0.
   -5000001    1    1    2    0    0 -0.12915748092E+03  0.32792783139E+03  0.78498389005E+02  0.40895514980E+03  0.19200000000E+03 0.  0.
<mgrwt>
<rscale>  0 0.80352115E+03</rscale>
<asrwt>0</asrwt>
<pdfrwt beam="1">  1        1 0.66627080E-01 0.80352115E+03</pdfrwt>
<pdfrwt beam="2">  1       -1 0.49441060E-01 0.80352115E+03</pdfrwt>
<totfact> 0.22345339E+02</totfact>
</mgrwt>
</event>
<event>
 4    1  0.7145298E-006  0.5685295E+03  0.7818608E-02  0.9972938E-01
          1   -1    0    0  501    0  0.00000000000E+00  0.00000000000E+00  0.17254406204E+03  0.17254406211E+03  0.50400000000E-02 0.  1.
         -1   -1    0    0    0  501 -0.00000000000E+00 -0.00000000000E+00 -0.46832355358E+03  0.46832355360E+03  0.50400000000E-02 0. -1.
    5000001    1    1    2    0    0 -0.18050171932E+03  0.10643892967E+03 -0.14148014718E+03  0.31747558721E+03  0.19200000000E+03 0.  0.
   -5000001    1    1    2    0    0  0.18050171932E+03 -0.10643892967E+03 -0.15429934436E+03  0.32339202850E+03  0.19200000000E+03 0.  0.
<mgrwt>
<rscale>  0 0.56852950E+03</rscale>
<asrwt>0</asrwt>
<pdfrwt beam="1">  1        1 0.24649152E-01 0.56852950E+03</pdfrwt>
<pdfrwt beam="2">  1       -1 0.66903365E-01 0.56852950E+03</pdfrwt>
<totfact> 0.45560829E+02</totfact>
</mgrwt>
</event>
<event>
 4    1  0.7145298E-006  0.5169885E+03  0.7818608E-02  0.1009437E+00
          1   -1    0    0  501    0  0.00000000000E+00  0.00000000000E+00  0.32747045466E+03  0.32747045470E+03  0.50400000000E-02 0.  1.
         -1   -1    0    0    0  501 -0.00000000000E+00 -0.00000000000E+00 -0.20404670441E+03  0.20404670447E+03  0.50400000000E-02 0. -1.
    5000001    1    1    2    0    0  0.33232146793E+02 -0.12341371288E+03  0.18169609955E+03  0.29362015036E+03  0.19200000000E+03 0.  0.
   -5000001    1    1    2    0    0 -0.33232146793E+02  0.12341371288E+03 -0.58272349293E+02  0.23789700881E+03  0.19200000000E+03 0.  0.
<mgrwt>
<rscale>  0 0.51698846E+03</rscale>
<asrwt>0</asrwt>
<pdfrwt beam="1">  1        1 0.46781494E-01 0.51698846E+03</pdfrwt>
<pdfrwt beam="2">  1       -1 0.29149529E-01 0.51698846E+03</pdfrwt>
<totfact> 0.92729984E+02</totfact>
</mgrwt>
</event>
<event>
 4    1  0.7145298E-006  0.6819160E+03  0.7818608E-02  0.9748668E-01
         -1   -1    0    0    0  501 -0.00000000000E+00  0.00000000000E+00  0.48930395737E+03  0.48930395740E+03  0.50400000000E-02 0. -1.
          1   -1    0    0  501    0  0.00000000000E+00 -0.00000000000E+00 -0.23758722039E+03  0.23758722045E+03  0.50400000000E-02 0.  1.
    5000001    1    1    2    0    0 -0.27018613889E+03  0.51577714551E+02  0.60777904469E+02  0.34090873259E+03  0.19200000000E+03 0.  0.
   -5000001    1    1    2    0    0  0.27018613889E+03 -0.51577714551E+02  0.19093883251E+03  0.38598244525E+03  0.19200000000E+03 0.  0.
<mgrwt>
<rscale>  0 0.68191603E+03</rscale>
<asrwt>0</asrwt>
<pdfrwt beam="1">  1        1 0.33941032E-01 0.68191603E+03</pdfrwt>
<pdfrwt beam="2">  1       -1 0.69900565E-01 0.68191603E+03</pdfrwt>
<totfact> 0.27439335E+02</totfact>
</mgrwt>
</event>
<event>
 4    1  0.7145298E-006  0.6099470E+03  0.7818608E-02  0.9884981E-01
         -1   -1    0    0    0  501 -0.00000000000E+00  0.00000000000E+00  0.61252692278E+03  0.61252692280E+03  0.50400000000E-02 0.  1.
          1   -1    0    0  501    0  0.00000000000E+00 -0.00000000000E+00 -0.15184448064E+03  0.15184448073E+03  0.50400000000E-02 0. -1.
    5000001    1    1    2    0    0 -0.15642041509E+03 -0.11091398419E+03  0.40477863179E+03  0.48731817009E+03  0.19200000000E+03 0.  0.
   -5000001    1    1    2    0    0  0.15642041509E+03  0.11091398419E+03  0.55903810346E+02  0.27705323344E+03  0.19200000000E+03 0.  0.
<mgrwt>
<rscale>  0 0.60994699E+03</rscale>
<asrwt>0</asrwt>
<pdfrwt beam="1">  1        1 0.21692069E-01 0.60994699E+03</pdfrwt>
<pdfrwt beam="2">  1       -1 0.87503846E-01 0.60994699E+03</pdfrwt>
<totfact> 0.30710287E+02</totfact>
</mgrwt>
</event>
<event>
 4    1  0.7145298E-006  0.4238528E+03  0.7818608E-02  0.1035820E+00
          1   -1    0    0  501    0  0.00000000000E+00  0.00000000000E+00  0.42728698383E+03  0.42728698386E+03  0.50400000000E-02 0. -1.
         -1   -1    0    0    0  501 -0.00000000000E+00 -0.00000000000E+00 -0.10511153798E+03  0.10511153810E+03  0.50400000000E-02 0.  1.
    5000001    1    1    2    0    0  0.41147655272E+00  0.60482001416E+02  0.77857454610E+02  0.21583332701E+03  0.19200000000E+03 0.  0.
   -5000001    1    1    2    0    0 -0.41147655272E+00 -0.60482001416E+02  0.24431799124E+03  0.31656519495E+03  0.19200000000E+03 0.  0.
<mgrwt>
<rscale>  0 0.42385277E+03</rscale>
<asrwt>0</asrwt>
<pdfrwt beam="1">  1        1 0.61040999E-01 0.42385277E+03</pdfrwt>
<pdfrwt beam="2">  1       -1 0.15015934E-01 0.42385277E+03</pdfrwt>
<totfact> 0.19755308E+03</totfact>
</mgrwt>
</event>
<event>
 4    1  0.7145298E-006  0.1038696E+04  0.7818608E-02  0.9267093E-01
          1   -1    0    0  501    0  0.00000000000E+00  0.00000000000E+00  0.86271958815E+03  0.86271958816E+03  0.50400000000E-02 0.  1.
         -1   -1    0    0    0  501 -0.00000000000E+00 -0.00000000000E+00 -0.31264198881E+03  0.31264198885E+03  0.50400000000E-02 0. -1.
    5000001    1    1    2    0    0 -0.11609350490E+03  0.39036531984E+03  0.56792984726E+03  0.72475588734E+03  0.19200000000E+03 0.  0.
   -5000001    1    1    2    0    0  0.11609350490E+03 -0.39036531984E+03 -0.17852247922E+02  0.45060568968E+03  0.19200000000E+03 0.  0.
<mgrwt>
<rscale>  0 0.10386960E+04</rscale>
<asrwt>0</asrwt>
<pdfrwt beam="1">  1        1 0.12324566E+00 0.10386960E+04</pdfrwt>
<pdfrwt beam="2">  1       -1 0.44663141E-01 0.10386960E+04</pdfrwt>
<totfact> 0.10955156E+02</totfact>
</mgrwt>
</event>
<event>
 4    1  0.7145298E-006  0.6265348E+03  0.7818608E-02  0.9851834E-01
          1   -1    0    0  501    0  0.00000000000E+00  0.00000000000E+00  0.82579915920E+03  0.82579915922E+03  0.50400000000E-02 0.  1.
         -1   -1    0    0    0  501 -0.00000000000E+00 -0.00000000000E+00 -0.11883817460E+03  0.11883817470E+03  0.50400000000E-02 0. -1.
    5000001    1    1    2    0    0  0.18787465090E+03 -0.68730844424E+02  0.13368628302E+03  0.30782598281E+03  0.19200000000E+03 0.  0.
   -5000001    1    1    2    0    0 -0.18787465090E+03  0.68730844424E+02  0.57327470159E+03  0.63681135111E+03  0.19200000000E+03 0.  0.
<mgrwt>
<rscale>  0 0.62653480E+03</rscale>
<asrwt>0</asrwt>
<pdfrwt beam="1">  1        1 0.11797131E+00 0.62653480E+03</pdfrwt>
<pdfrwt beam="2">  1       -1 0.16976882E-01 0.62653480E+03</pdfrwt>
<totfact> 0.64095539E+02</totfact>
</mgrwt>
</event>
<event>
 4    1  0.7145298E-006  0.7214326E+03  0.7818608E-02  0.9681266E-01
          1   -1    0    0  501    0  0.00000000000E+00  0.00000000000E+00  0.24276387266E+03  0.24276387272E+03  0.50400000000E-02 0.  1.
         -1   -1    0    0    0  501 -0.00000000000E+00 -0.00000000000E+00 -0.53597870002E+03  0.53597870005E+03  0.50400000000E-02 0. -1.
    5000001    1    1    2    0    0  0.28189662649E+02  0.30231751909E+03 -0.11143483186E+03  0.37612798511E+03  0.19200000000E+03 0.  0.
   -5000001    1    1    2    0    0 -0.28189662649E+02 -0.30231751909E+03 -0.18177999550E+03  0.40261458766E+03  0.19200000000E+03 0.  0.
<mgrwt>
<rscale>  0 0.72143264E+03</rscale>
<asrwt>0</asrwt>
<pdfrwt beam="1">  1        1 0.34680553E-01 0.72143264E+03</pdfrwt>
<pdfrwt beam="2">  1       -1 0.76568385E-01 0.72143264E+03</pdfrwt>
<totfact> 0.22069087E+02</totfact>
</mgrwt>
</event>
<event>
 4    1  0.7145298E-006  0.5572011E+03  0.7818608E-02  0.9998408E-01
          1   -1    0    0  501    0  0.00000000000E+00  0.00000000000E+00  0.16650454783E+04  0.16650454783E+04  0.50400000000E-02 0. -1.
         -1   -1    0    0    0  501 -0.00000000000E+00 -0.00000000000E+00 -0.46616298762E+02  0.46616299035E+02  0.50400000000E-02 0.  1.
    5000001    1    1    2    0    0  0.26134552599E+02 -0.13212906929E+03  0.34727353440E+03  0.41905132560E+03  0.19200000000E+03 0.  0.
   -5000001    1    1    2    0    0 -0.26134552599E+02  0.13212906929E+03  0.12711556452E+04  0.12926104518E+04  0.19200000000E+03 0.  0.
<mgrwt>
<rscale>  0 0.55720107E+03</rscale>
<asrwt>0</asrwt>
<pdfrwt beam="1">  1        1 0.23786367E+00 0.55720107E+03</pdfrwt>
<pdfrwt beam="2">  1       -1 0.66594703E-02 0.55720107E+03</pdfrwt>
<totfact> 0.74596176E+02</totfact>
</mgrwt>
</event>
<event>
 4    1  0.7145298E-006  0.5112237E+03  0.7818608E-02  0.1010890E+00
         -1   -1    0    0    0  501 -0.00000000000E+00  0.00000000000E+00  0.83467555993E+03  0.83467555995E+03  0.50400000000E-02 0. -1.
          1   -1    0    0  501    0  0.00000000000E+00 -0.00000000000E+00 -0.78278808976E+02  0.78278809138E+02  0.50400000000E-02 0.  1.
    5000001    1    1    2    0    0 -0.48340545373E+01 -0.13408395310E+03  0.56094244022E+03  0.60788345578E+03  0.19200000000E+03 0.  0.
   -5000001    1    1    2    0    0  0.48340545373E+01  0.13408395310E+03  0.19545431073E+03  0.30507091331E+03  0.19200000000E+03 0.  0.
<mgrwt>
<rscale>  0 0.51122366E+03</rscale>
<asrwt>0</asrwt>
<pdfrwt beam="1">  1        1 0.11182687E-01 0.51122366E+03</pdfrwt>
<pdfrwt beam="2">  1       -1 0.11923936E+00 0.51122366E+03</pdfrwt>
<totfact> 0.36852316E+02</totfact>
</mgrwt>
</event>
<event>
 4    1  0.7145298E-006  0.6424237E+03  0.7818608E-02  0.9821100E-01
         -1   -1    0    0    0  501 -0.00000000000E+00  0.00000000000E+00  0.30082019547E+03  0.30082019551E+03  0.50400000000E-02 0. -1.
          1   -1    0    0  501    0  0.00000000000E+00 -0.00000000000E+00 -0.34298573931E+03  0.34298573935E+03  0.50400000000E-02 0.  1.
    5000001    1    1    2    0    0 -0.20530656673E+03  0.13695992452E+03 -0.94754416025E+02  0.32672803158E+03  0.19200000000E+03 0.  0.
   -5000001    1    1    2    0    0  0.20530656673E+03 -0.13695992452E+03  0.52588872178E+02  0.31707790327E+03  0.19200000000E+03 0.  0.
<mgrwt>
<rscale>  0 0.64242365E+03</rscale>
<asrwt>0</asrwt>
<pdfrwt beam="1">  1        1 0.48997963E-01 0.64242365E+03</pdfrwt>
<pdfrwt beam="2">  1       -1 0.42974314E-01 0.64242365E+03</pdfrwt>
<totfact> 0.43733792E+02</totfact>
</mgrwt>
</event>
<event>
 4    1  0.7145298E-006  0.1316350E+04  0.7818608E-02  0.9016699E-01
         -1   -1    0    0    0  501 -0.00000000000E+00  0.00000000000E+00  0.10132424614E+04  0.10132424614E+04  0.50400000000E-02 0. -1.
          1   -1    0    0  501    0  0.00000000000E+00 -0.00000000000E+00 -0.42753272935E+03  0.42753272938E+03  0.50400000000E-02 0.  1.
    5000001    1    1    2    0    0  0.15041272189E+03 -0.61104056869E+03  0.31291038358E+03  0.72854064516E+03  0.19200000000E+03 0.  0.
   -5000001    1    1    2    0    0 -0.15041272189E+03  0.61104056869E+03  0.27279934850E+03  0.71223454567E+03  0.19200000000E+03 0.  0.
<mgrwt>
<rscale>  0 0.13163500E+04</rscale>
<asrwt>0</asrwt>
<pdfrwt beam="1">  1        1 0.61076104E-01 0.13163500E+04</pdfrwt>
<pdfrwt beam="2">  1       -1 0.14474892E+00 0.13163500E+04</pdfrwt>
<totfact> 0.22864081E+01</totfact>
</mgrwt>
</event>
<event>
 4    1  0.7145298E-006  0.6232779E+03  0.7818608E-02  0.9858255E-01
         -1   -1    0    0    0  501 -0.00000000000E+00  0.00000000000E+00  0.11232508472E+03  0.11232508483E+03  0.50400000000E-02 0. -1.
          1   -1    0    0  501    0  0.00000000000E+00 -0.00000000000E+00 -0.86462277074E+03  0.86462277076E+03  0.50400000000E-02 0.  1.
    5000001    1    1    2    0    0 -0.16458770928E+03 -0.14907403835E+03 -0.21218397898E+03  0.36221295379E+03  0.19200000000E+03 0.  0.
   -5000001    1    1    2    0    0  0.16458770928E+03  0.14907403835E+03 -0.54011370704E+03  0.61473490180E+03  0.19200000000E+03 0.  0.
<mgrwt>
<rscale>  0 0.62327787E+03</rscale>
<asrwt>0</asrwt>
<pdfrwt beam="1">  1        1 0.12351754E+00 0.62327787E+03</pdfrwt>
<pdfrwt beam="2">  1       -1 0.16046441E-01 0.62327787E+03</pdfrwt>
<totfact> 0.65380249E+02</totfact>
</mgrwt>
</event>
<event>
 4    1  0.7145298E-006  0.8860357E+03  0.7818608E-02  0.9443208E-01
          1   -1    0    0  501    0  0.00000000000E+00  0.00000000000E+00  0.32157384586E+03  0.32157384590E+03  0.50400000000E-02 0.  1.
         -1   -1    0    0    0  501 -0.00000000000E+00 -0.00000000000E+00 -0.61032576876E+03  0.61032576878E+03  0.50400000000E-02 0. -1.
    5000001    1    1    2    0    0 -0.11301715065E+03  0.37436938384E+03 -0.59740116113E+02  0.43972513389E+03  0.19200000000E+03 0.  0.
   -5000001    1    1    2    0    0  0.11301715065E+03 -0.37436938384E+03 -0.22901180678E+03  0.49217448079E+03  0.19200000000E+03 0.  0.
<mgrwt>
<rscale>  0 0.88603568E+03</rscale>
<asrwt>0</asrwt>
<pdfrwt beam="1">  1        1 0.45939121E-01 0.88603568E+03</pdfrwt>
<pdfrwt beam="2">  1       -1 0.87189395E-01 0.88603568E+03</pdfrwt>
<totfact> 0.11523419E+02</totfact>
</mgrwt>
</event>
<event>
 4    1  0.7145298E-006  0.5429522E+03  0.7818608E-02  0.1003138E+00
          1   -1    0    0  501    0  0.00000000000E+00  0.00000000000E+00  0.29532459051E+04  0.29532459051E+04  0.50400000000E-02 0.  1.
         -1   -1    0    0    0  501 -0.00000000000E+00 -0.00000000000E+00 -0.24955348160E+02  0.24955348669E+02  0.50400000000E-02 0. -1.
    5000001    1    1    2    0    0 -0.41895078408E+02 -0.70671037527E+02  0.24155655306E+04  0.24245763394E+04  0.19200000000E+03 0.  0.
   -5000001    1    1    2    0    0  0.41895078408E+02  0.70671037527E+02  0.51272502637E+03  0.55362491437E+03  0.19200000000E+03 0.  0.
<mgrwt>
<rscale>  0 0.54295223E+03</rscale>
<asrwt>0</asrwt>
<pdfrwt beam="1">  1        1 0.42189213E+00 0.54295223E+03</pdfrwt>
<pdfrwt beam="2">  1       -1 0.35650510E-02 0.54295223E+03</pdfrwt>
<totfact> 0.30535727E+02</totfact>
</mgrwt>
</event>
<event>
 4    1  0.7145298E-006  0.6151793E+03  0.7818608E-02  0.9874405E-01
          1   -1    0    0  501    0  0.00000000000E+00  0.00000000000E+00  0.11102445857E+04  0.11102445857E+04  0.50400000000E-02 0.  1.
         -1   -1    0    0    0  501 -0.00000000000E+00 -0.00000000000E+00 -0.85216714152E+02  0.85216714301E+02  0.50400000000E-02 0. -1.
    5000001    1    1    2    0    0  0.10561230451E+03  0.20831281261E+03  0.40259940845E+03  0.50348631604E+03  0.19200000000E+03 0.  0.
   -5000001    1    1    2    0    0 -0.10561230451E+03 -0.20831281261E+03  0.62242846309E+03  0.69197498396E+03  0.19200000000E+03 0.  0.
<mgrwt>
<rscale>  0 0.61517931E+03</rscale>
<asrwt>0</asrwt>
<pdfrwt beam="1">  1        1 0.15860638E+00 0.61517931E+03</pdfrwt>
<pdfrwt beam="2">  1       -1 0.12173816E-01 0.61517931E+03</pdfrwt>
<totfact> 0.66907686E+02</totfact>
</mgrwt>
</event>
<event>
 4    1  0.7145298E-006  0.6330137E+03  0.7818608E-02  0.9839185E-01
         -1   -1    0    0    0  501 -0.00000000000E+00  0.00000000000E+00  0.26144640803E+03  0.26144640808E+03  0.50400000000E-02 0. -1.
          1   -1    0    0  501    0  0.00000000000E+00 -0.00000000000E+00 -0.38316293535E+03  0.38316293538E+03  0.50400000000E-02 0.  1.
    5000001    1    1    2    0    0  0.74506823208E+01 -0.16743461684E+03  0.13025678964E+03  0.28621791493E+03  0.19200000000E+03 0.  0.
   -5000001    1    1    2    0    0 -0.74506823208E+01  0.16743461684E+03 -0.25197331695E+03  0.35839142852E+03  0.19200000000E+03 0.  0.
<mgrwt>
<rscale>  0 0.63301366E+03</rscale>
<asrwt>0</asrwt>
<pdfrwt beam="1">  1        1 0.54737562E-01 0.63301366E+03</pdfrwt>
<pdfrwt beam="2">  1       -1 0.37349487E-01 0.63301366E+03</pdfrwt>
<totfact> 0.48852375E+02</totfact>
</mgrwt>
</event>
<event>
 4    1  0.7145298E-006  0.8351574E+03  0.7818608E-02  0.9510478E-01
          1   -1    0    0  501    0  0.00000000000E+00  0.00000000000E+00  0.69627803877E+03  0.69627803879E+03  0.50400000000E-02 0.  1.
         -1   -1    0    0    0  501 -0.00000000000E+00 -0.00000000000E+00 -0.25043439832E+03  0.25043439837E+03  0.50400000000E-02 0. -1.
    5000001    1    1    2    0    0 -0.17497775895E+03 -0.32534620778E+03  0.18635461225E+03  0.45613530071E+03  0.19200000000E+03 0.  0.
   -5000001    1    1    2    0    0  0.17497775895E+03  0.32534620778E+03  0.25948902821E+03  0.49057713645E+03  0.19200000000E+03 0.  0.
<mgrwt>
<rscale>  0 0.83515740E+03</rscale>
<asrwt>0</asrwt>
<pdfrwt beam="1">  1        1 0.99468292E-01 0.83515740E+03</pdfrwt>
<pdfrwt beam="2">  1       -1 0.35776342E-01 0.83515740E+03</pdfrwt>
<totfact> 0.23083815E+02</totfact>
</mgrwt>
</event>
<event>
 4    1  0.7145298E-006  0.4458907E+03  0.7818608E-02  0.1028955E+00
         -1   -1    0    0    0  501 -0.00000000000E+00  0.00000000000E+00  0.15111381915E+03  0.15111381924E+03  0.50400000000E-02 0. -1.
          1   -1    0    0  501    0  0.00000000000E+00 -0.00000000000E+00 -0.32892185211E+03  0.32892185215E+03  0.50400000000E-02 0.  1.
    5000001    1    1    2    0    0 -0.96613756281E+02  0.27558409234E+02 -0.32479127507E+02  0.21911772531E+03  0.19200000000E+03 0.  0.
   -5000001    1    1    2    0    0  0.96613756281E+02 -0.27558409234E+02 -0.14532890545E+03  0.26091794607E+03  0.19200000000E+03 0.  0.
<mgrwt>
<rscale>  0 0.44589074E+03</rscale>
<asrwt>0</asrwt>
<pdfrwt beam="1">  1        1 0.46988836E-01 0.44589074E+03</pdfrwt>
<pdfrwt beam="2">  1       -1 0.21587689E-01 0.44589074E+03</pdfrwt>
<totfact> 0.15314629E+03</totfact>
</mgrwt>
</event>
<event>
 4    1  0.7145298E-006  0.5508744E+03  0.7818608E-02  0.1001292E+00
         -1   -1    0    0    0  501 -0.00000000000E+00  0.00000000000E+00  0.18726949412E+03  0.18726949419E+03  0.50400000000E-02 0. -1.
          1   -1    0    0  501    0  0.00000000000E+00 -0.00000000000E+00 -0.40511479672E+03  0.40511479675E+03  0.50400000000E-02 0.  1.
    5000001    1    1    2    0    0  0.19523260671E+03 -0.27882917855E+02 -0.12011950841E+03  0.30030971368E+03  0.19200000000E+03 0.  0.
   -5000001    1    1    2    0    0 -0.19523260671E+03  0.27882917855E+02 -0.97725794182E+02  0.29207457726E+03  0.19200000000E+03 0.  0.
<mgrwt>
<rscale>  0 0.55087437E+03</rscale>
<asrwt>0</asrwt>
<pdfrwt beam="1">  1        1 0.57873542E-01 0.55087437E+03</pdfrwt>
<pdfrwt beam="2">  1       -1 0.26752785E-01 0.55087437E+03</pdfrwt>
<totfact> 0.81537726E+02</totfact>
</mgrwt>
</event>
<event>
 4    1  0.7145298E-006  0.5228080E+03  0.7818608E-02  0.1007991E+00
          1   -1    0    0  501    0  0.00000000000E+00  0.00000000000E+00  0.14171876884E+03  0.14171876893E+03  0.50400000000E-02 0. -1.
         -1   -1    0    0    0  501 -0.00000000000E+00 -0.00000000000E+00 -0.48216654725E+03  0.48216654728E+03  0.50400000000E-02 0.  1.
    5000001    1    1    2    0    0 -0.93230888744E+02  0.14995714920E+03 -0.14994054652E+03  0.30087424733E+03  0.19200000000E+03 0.  0.
   -5000001    1    1    2    0    0  0.93230888744E+02 -0.14995714920E+03 -0.19050723189E+03  0.32301106887E+03  0.19200000000E+03 0.  0.
<mgrwt>
<rscale>  0 0.52280799E+03</rscale>
<asrwt>0</asrwt>
<pdfrwt beam="1">  1        1 0.20245539E-01 0.52280799E+03</pdfrwt>
<pdfrwt beam="2">  1       -1 0.68880934E-01 0.52280799E+03</pdfrwt>
<totfact> 0.55628332E+02</totfact>
</mgrwt>
</event>
<event>
 4    1  0.7145298E-006  0.8973028E+03  0.7818608E-02  0.9428959E-01
         -1   -1    0    0    0  501 -0.00000000000E+00  0.00000000000E+00  0.52924578464E+03  0.52924578466E+03  0.50400000000E-02 0. -1.
          1   -1    0    0  501    0  0.00000000000E+00 -0.00000000000E+00 -0.38033002672E+03  0.38033002675E+03  0.50400000000E-02 0.  1.
    5000001    1    1    2    0    0 -0.20419836609E+03 -0.86036044600E+02 -0.26978219003E+03  0.39842891931E+03  0.19200000000E+03 0.  0.
   -5000001    1    1    2    0    0  0.20419836609E+03  0.86036044600E+02  0.41869794796E+03  0.51114689210E+03  0.19200000000E+03 0.  0.
<mgrwt>
<rscale>  0 0.89730277E+03</rscale>
<asrwt>0</asrwt>
<pdfrwt beam="1">  1        1 0.54332862E-01 0.89730277E+03</pdfrwt>
<pdfrwt beam="2">  1       -1 0.75606539E-01 0.89730277E+03</pdfrwt>
<totfact> 0.12542983E+02</totfact>
</mgrwt>
</event>
<event>
 4    1  0.7145298E-006  0.5630551E+03  0.7818608E-02  0.9985166E-01
          1   -1    0    0  501    0  0.00000000000E+00  0.00000000000E+00  0.29671828222E+02  0.29671828650E+02  0.50400000000E-02 0.  1.
         -1   -1    0    0    0  501 -0.00000000000E+00 -0.00000000000E+00 -0.26711450265E+04  0.26711450265E+04  0.50400000000E-02 0. -1.
    5000001    1    1    2    0    0  0.16614844252E+02 -0.17717042971E+03 -0.18175697555E+04  0.18363249250E+04  0.19200000000E+03 0.  0.
   -5000001    1    1    2    0    0 -0.16614844252E+02  0.17717042971E+03 -0.82390344281E+03  0.86449193015E+03  0.19200000000E+03 0.  0.
<mgrwt>
<rscale>  0 0.56305508E+03</rscale>
<asrwt>0</asrwt>
<pdfrwt beam="1">  1        1 0.42388343E-02 0.56305508E+03</pdfrwt>
<pdfrwt beam="2">  1       -1 0.38159200E+00 0.56305508E+03</pdfrwt>
<totfact> 0.23193185E+01</totfact>
</mgrwt>
</event>
<event>
 4    1  0.7145298E-006  0.4867736E+03  0.7818608E-02  0.1017290E+00
          1   -1    0    0  501    0  0.00000000000E+00  0.00000000000E+00  0.10357475625E+04  0.10357475626E+04  0.50400000000E-02 0. -1.
         -1   -1    0    0    0  501 -0.00000000000E+00 -0.00000000000E+00 -0.57192641793E+02  0.57192642015E+02  0.50400000000E-02 0.  1.
    5000001    1    1    2    0    0 -0.12029213066E+03 -0.87845246171E+02  0.51991171301E+03  0.57389822555E+03  0.19200000000E+03 0.  0.
   -5000001    1    1    2    0    0  0.12029213066E+03  0.87845246171E+02  0.45864320775E+03  0.51904197902E+03  0.19200000000E+03 0.  0.
<mgrwt>
<rscale>  0 0.48677362E+03</rscale>
<asrwt>0</asrwt>
<pdfrwt beam="1">  1        1 0.14796393E+00 0.48677362E+03</pdfrwt>
<pdfrwt beam="2">  1       -1 0.81703777E-02 0.48677362E+03</pdfrwt>
<totfact> 0.14224936E+03</totfact>
</mgrwt>
</event>
<event>
 4    1  0.7145298E-006  0.1000947E+04  0.7818608E-02  0.9307507E-01
         -1   -1    0    0    0  501 -0.00000000000E+00  0.00000000000E+00  0.15670968264E+03  0.15670968272E+03  0.50400000000E-02 0. -1.
          1   -1    0    0  501    0  0.00000000000E+00 -0.00000000000E+00 -0.15983298718E+04  0.15983298718E+04  0.50400000000E-02 0.  1.
    5000001    1    1    2    0    0  0.33350886596E+03 -0.27344773551E+03 -0.10121451771E+04  0.11168275100E+04  0.19200000000E+03 0.  0.
   -5000001    1    1    2    0    0 -0.33350886596E+03  0.27344773551E+03 -0.42947501215E+03  0.63821204453E+03  0.19200000000E+03 0.  0.
<mgrwt>
<rscale>  0 0.10009471E+04</rscale>
<asrwt>0</asrwt>
<pdfrwt beam="1">  1        1 0.22833283E+00 0.10009471E+04</pdfrwt>
<pdfrwt beam="2">  1       -1 0.22387098E-01 0.10009471E+04</pdfrwt>
<totfact> 0.11369348E+02</totfact>
</mgrwt>
</event>
<event>
 4    1  0.7145298E-006  0.5563763E+03  0.7818608E-02  0.1000029E+00
          1   -1    0    0  501    0  0.00000000000E+00  0.00000000000E+00  0.44718668836E+03  0.44718668839E+03  0.50400000000E-02 0.  1.
         -1   -1    0    0    0  501 -0.00000000000E+00 -0.00000000000E+00 -0.17305669737E+03  0.17305669744E+03  0.50400000000E-02 0. -1.
    5000001    1    1    2    0    0 -0.13846727677E+03  0.73777425245E+02 -0.35417513217E+01  0.24797749739E+03  0.19200000000E+03 0.  0.
   -5000001    1    1    2    0    0  0.13846727677E+03 -0.73777425245E+02  0.27767174232E+03  0.37226588844E+03  0.19200000000E+03 0.  0.
<mgrwt>
<rscale>  0 0.55637632E+03</rscale>
<asrwt>0</asrwt>
<pdfrwt beam="1">  1        1 0.63883813E-01 0.55637632E+03</pdfrwt>
<pdfrwt beam="2">  1       -1 0.24722385E-01 0.55637632E+03</pdfrwt>
<totfact> 0.81893341E+02</totfact>
</mgrwt>
</event>
<event>
 4    1  0.7145298E-006  0.4249780E+03  0.7818608E-02  0.1035458E+00
          1   -1    0    0  501    0  0.00000000000E+00  0.00000000000E+00  0.24041184496E+03  0.24041184501E+03  0.50400000000E-02 0.  1.
         -1   -1    0    0    0  501 -0.00000000000E+00 -0.00000000000E+00 -0.18780929703E+03  0.18780929710E+03  0.50400000000E-02 0. -1.
    5000001    1    1    2    0    0  0.28445382669E+02  0.85787385579E+02  0.15310963192E+02  0.21276052480E+03  0.19200000000E+03 0.  0.
   -5000001    1    1    2    0    0 -0.28445382669E+02 -0.85787385579E+02  0.37291584732E+02  0.21546061731E+03  0.19200000000E+03 0.  0.
<mgrwt>
<rscale>  0 0.42497802E+03</rscale>
<asrwt>0</asrwt>
<pdfrwt beam="1">  1        1 0.34344549E-01 0.42497802E+03</pdfrwt>
<pdfrwt beam="2">  1       -1 0.26829900E-01 0.42497802E+03</pdfrwt>
<totfact> 0.15856877E+03</totfact>
</mgrwt>
</event>
<event>
 4    1  0.7145298E-006  0.6892589E+03  0.7818608E-02  0.9735779E-01
         -1   -1    0    0    0  501 -0.00000000000E+00  0.00000000000E+00  0.47994457455E+03  0.47994457457E+03  0.50400000000E-02 0. -1.
          1   -1    0    0  501    0  0.00000000000E+00 -0.00000000000E+00 -0.24746491916E+03  0.24746491921E+03  0.50400000000E-02 0.  1.
    5000001    1    1    2    0    0 -0.43408690239E+02 -0.20035728988E+03  0.32698797498E+03  0.43105973342E+03  0.19200000000E+03 0.  0.
   -5000001    1    1    2    0    0  0.43408690239E+02  0.20035728988E+03 -0.94508319588E+02  0.29634976036E+03  0.19200000000E+03 0.  0.
<mgrwt>
<rscale>  0 0.68925886E+03</rscale>
<asrwt>0</asrwt>
<pdfrwt beam="1">  1        1 0.35352132E-01 0.68925886E+03</pdfrwt>
<pdfrwt beam="2">  1       -1 0.68563510E-01 0.68925886E+03</pdfrwt>
<totfact> 0.27069344E+02</totfact>
</mgrwt>
</event>
<event>
 4    1  0.7145298E-006  0.4612937E+03  0.7818608E-02  0.1024407E+00
         -1   -1    0    0    0  501 -0.00000000000E+00  0.00000000000E+00  0.31332305523E+03  0.31332305527E+03  0.50400000000E-02 0. -1.
          1   -1    0    0  501    0  0.00000000000E+00 -0.00000000000E+00 -0.16978633351E+03  0.16978633358E+03  0.50400000000E-02 0.  1.
    5000001    1    1    2    0    0 -0.12504087426E+03  0.63692549239E+01  0.98636771367E+02  0.24953757294E+03  0.19200000000E+03 0.  0.
   -5000001    1    1    2    0    0  0.12504087426E+03 -0.63692549239E+01  0.44899950356E+02  0.23357181591E+03  0.19200000000E+03 0.  0.
<mgrwt>
<rscale>  0 0.46129371E+03</rscale>
<asrwt>0</asrwt>
<pdfrwt beam="1">  1        1 0.24255191E-01 0.46129371E+03</pdfrwt>
<pdfrwt beam="2">  1       -1 0.44760436E-01 0.46129371E+03</pdfrwt>
<totfact> 0.10069226E+03</totfact>
</mgrwt>
</event>
<event>
 4    1  0.7145298E-006  0.5093852E+03  0.7818608E-02  0.1011358E+00
          1   -1    0    0  501    0  0.00000000000E+00  0.00000000000E+00  0.55956140665E+03  0.55956140667E+03  0.50400000000E-02 0.  1.
         -1   -1    0    0    0  501 -0.00000000000E+00 -0.00000000000E+00 -0.11592709791E+03  0.11592709802E+03  0.50400000000E-02 0. -1.
    5000001    1    1    2    0    0 -0.63892115548E+02  0.14204402683E+03  0.30297557439E+03  0.39104591375E+03  0.19200000000E+03 0.  0.
   -5000001    1    1    2    0    0  0.63892115548E+02 -0.14204402683E+03  0.14065873435E+03  0.28444259093E+03  0.19200000000E+03 0.  0.
<mgrwt>
<rscale>  0 0.50938524E+03</rscale>
<asrwt>0</asrwt>
<pdfrwt beam="1">  1        1 0.79937342E-01 0.50938524E+03</pdfrwt>
<pdfrwt beam="2">  1       -1 0.16561014E-01 0.50938524E+03</pdfrwt>
<totfact> 0.11778487E+03</totfact>
</mgrwt>
</event>
<event>
 4    1  0.7145298E-006  0.5240669E+03  0.7818608E-02  0.1007681E+00
          1   -1    0    0  501    0  0.00000000000E+00  0.00000000000E+00  0.14821643725E+04  0.14821643725E+04  0.50400000000E-02 0.  1.
         -1   -1    0    0    0  501 -0.00000000000E+00 -0.00000000000E+00 -0.46325171946E+02  0.46325172220E+02  0.50400000000E-02 0. -1.
    5000001    1    1    2    0    0 -0.48464125203E+02 -0.89528846832E+02  0.11449124817E+04  0.11653552147E+04  0.19200000000E+03 0.  0.
   -5000001    1    1    2    0    0  0.48464125203E+02  0.89528846832E+02  0.29092671885E+03  0.36313432995E+03  0.19200000000E+03 0.  0.
<mgrwt>
<rscale>  0 0.52406686E+03</rscale>
<asrwt>0</asrwt>
<pdfrwt beam="1">  1        1 0.21173777E+00 0.52406686E+03</pdfrwt>
<pdfrwt beam="2">  1       -1 0.66178815E-02 0.52406686E+03</pdfrwt>
<totfact> 0.98497326E+02</totfact>
</mgrwt>
</event>
<event>
 4    1  0.7145298E-006  0.7885648E+03  0.7818608E-02  0.9576718E-01
         -1   -1    0    0    0  501 -0.00000000000E+00  0.00000000000E+00  0.16246140239E+03  0.16246140247E+03  0.50400000000E-02 0. -1.
          1   -1    0    0  501    0  0.00000000000E+00 -0.00000000000E+00 -0.95689576515E+03  0.95689576517E+03  0.50400000000E-02 0.  1.
    5000001    1    1    2    0    0  0.72454397346E+02  0.26501628039E+03 -0.69194907369E+03  0.76885680666E+03  0.19200000000E+03 0.  0.
   -5000001    1    1    2    0    0 -0.72454397346E+02 -0.26501628039E+03 -0.10248528906E+03  0.35050036097E+03  0.19200000000E+03 0.  0.
<mgrwt>
<rscale>  0 0.78856484E+03</rscale>
<asrwt>0</asrwt>
<pdfrwt beam="1">  1        1 0.13669939E+00 0.78856484E+03</pdfrwt>
<pdfrwt beam="2">  1       -1 0.23208772E-01 0.78856484E+03</pdfrwt>
<totfact> 0.29823565E+02</totfact>
</mgrwt>
</event>
<event>
 4    1  0.7145298E-006  0.1029977E+04  0.7818608E-02  0.9276264E-01
          1   -1    0    0  501    0  0.00000000000E+00  0.00000000000E+00  0.12823549805E+04  0.12823549805E+04  0.50400000000E-02 0.  1.
         -1   -1    0    0    0  501 -0.00000000000E+00 -0.00000000000E+00 -0.20681732906E+03  0.20681732912E+03  0.50400000000E-02 0. -1.
    5000001    1    1    2    0    0  0.45669319952E+03 -0.11091201470E+03  0.66280665039E+03  0.83489329216E+03  0.19200000000E+03 0.  0.
   -5000001    1    1    2    0    0 -0.45669319952E+03  0.11091201470E+03  0.41273100108E+03  0.65427901750E+03  0.19200000000E+03 0.  0.
<mgrwt>
<rscale>  0 0.10299771E+04</rscale>
<asrwt>0</asrwt>
<pdfrwt beam="1">  1        1 0.18319356E+00 0.10299771E+04</pdfrwt>
<pdfrwt beam="2">  1       -1 0.29545333E-01 0.10299771E+04</pdfrwt>
<totfact> 0.11367846E+02</totfact>
</mgrwt>
</event>
<event>
 4    1  0.7145298E-006  0.6698749E+03  0.7818608E-02  0.9770184E-01
         -1   -1    0    0    0  501 -0.00000000000E+00  0.00000000000E+00  0.15866753387E+03  0.15866753395E+03  0.50400000000E-02 0. -1.
          1   -1    0    0  501    0  0.00000000000E+00 -0.00000000000E+00 -0.70703234639E+03  0.70703234640E+03  0.50400000000E-02 0.  1.
    5000001    1    1    2    0    0  0.25224804920E+03 -0.97212112790E+02 -0.33534400772E+03  0.47159185395E+03  0.19200000000E+03 0.  0.
   -5000001    1    1    2    0    0 -0.25224804920E+03  0.97212112790E+02 -0.21302080480E+03  0.39410802640E+03  0.19200000000E+03 0.  0.
<mgrwt>
<rscale>  0 0.66987485E+03</rscale>
<asrwt>0</asrwt>
<pdfrwt beam="1">  1        1 0.10100462E+00 0.66987485E+03</pdfrwt>
<pdfrwt beam="2">  1       -1 0.22666791E-01 0.66987485E+03</pdfrwt>
<totfact> 0.50117835E+02</totfact>
</mgrwt>
</event>
<event>
 4    1  0.7145298E-006  0.4879839E+03  0.7818608E-02  0.1016964E+00
         -1   -1    0    0    0  501 -0.00000000000E+00  0.00000000000E+00  0.13495575584E+02  0.13495576525E+02  0.50400000000E-02 0. -1.
          1   -1    0    0  501    0  0.00000000000E+00 -0.00000000000E+00 -0.44112286688E+04  0.44112286688E+04  0.50400000000E-02 0.  1.
    5000001    1    1    2    0    0 -0.13900259084E+03 -0.56851926414E+02 -0.21019644487E+04  0.21160511348E+04  0.19200000000E+03 0.  0.
   -5000001    1    1    2    0    0  0.13900259084E+03  0.56851926414E+02 -0.22957686446E+04  0.23086731105E+04  0.19200000000E+03 0.  0.
<mgrwt>
<rscale>  0 0.48798390E+03</rscale>
<asrwt>0</asrwt>
<pdfrwt beam="1">  1        1 0.63017460E+00 0.48798390E+03</pdfrwt>
<pdfrwt beam="2">  1       -1 0.19279423E-02 0.48798390E+03</pdfrwt>
<totfact> 0.71033611E+01</totfact>
</mgrwt>
</event>
<event>
 4    1  0.7145298E-006  0.5488439E+03  0.7818608E-02  0.1001762E+00
         -1   -1    0    0    0  501 -0.00000000000E+00  0.00000000000E+00  0.15136110073E+03  0.15136110082E+03  0.50400000000E-02 0. -1.
          1   -1    0    0  501    0  0.00000000000E+00 -0.00000000000E+00 -0.49753470371E+03  0.49753470374E+03  0.50400000000E-02 0.  1.
    5000001    1    1    2    0    0  0.93997943779E+02  0.17184825356E+03 -0.18339142716E+03  0.32994522460E+03  0.19200000000E+03 0.  0.
   -5000001    1    1    2    0    0 -0.93997943779E+02 -0.17184825356E+03 -0.16278217583E+03  0.31895057995E+03  0.19200000000E+03 0.  0.
<mgrwt>
<rscale>  0 0.54884388E+03</rscale>
<asrwt>0</asrwt>
<pdfrwt beam="1">  1        1 0.71076386E-01 0.54884388E+03</pdfrwt>
<pdfrwt beam="2">  1       -1 0.21623015E-01 0.54884388E+03</pdfrwt>
<totfact> 0.88994947E+02</totfact>
</mgrwt>
</event>
<event>
 4    1  0.7145298E-006  0.1152296E+04  0.7818608E-02  0.9155668E-01
         -1   -1    0    0    0  501 -0.00000000000E+00  0.00000000000E+00  0.21848192634E+03  0.21848192640E+03  0.50400000000E-02 0.  1.
          1   -1    0    0  501    0  0.00000000000E+00 -0.00000000000E+00 -0.15193314903E+04  0.15193314903E+04  0.50400000000E-02 0. -1.
    5000001    1    1    2    0    0 -0.53491914980E+03 -0.73660083315E+02 -0.73987827268E+03  0.93586759912E+03  0.19200000000E+03 0.  0.
   -5000001    1    1    2    0    0  0.53491914980E+03  0.73660083315E+02 -0.56097129126E+03  0.80194581757E+03  0.19200000000E+03 0.  0.
<mgrwt>
<rscale>  0 0.11522959E+04</rscale>
<asrwt>0</asrwt>
<pdfrwt beam="1">  1        1 0.21704735E+00 0.11522959E+04</pdfrwt>
<pdfrwt beam="2">  1       -1 0.31211705E-01 0.11522959E+04</pdfrwt>
<totfact> 0.71307162E+01</totfact>
</mgrwt>
</event>
<event>
 4    1  0.7145298E-006  0.4396690E+03  0.7818608E-02  0.1030848E+00
         -1   -1    0    0    0  501 -0.00000000000E+00  0.00000000000E+00  0.41248096346E+03  0.41248096349E+03  0.50400000000E-02 0. -1.
          1   -1    0    0  501    0  0.00000000000E+00 -0.00000000000E+00 -0.11716228262E+03  0.11716228273E+03  0.50400000000E-02 0.  1.
    5000001    1    1    2    0    0 -0.26772273407E+02 -0.93001795913E+02  0.20282508506E+03  0.29558095980E+03  0.19200000000E+03 0.  0.
   -5000001    1    1    2    0    0  0.26772273407E+02  0.93001795913E+02  0.92493595781E+02  0.23406228643E+03  0.19200000000E+03 0.  0.
<mgrwt>
<rscale>  0 0.43966902E+03</rscale>
<asrwt>0</asrwt>
<pdfrwt beam="1">  1        1 0.16737469E-01 0.43966902E+03</pdfrwt>
<pdfrwt beam="2">  1       -1 0.58925851E-01 0.43966902E+03</pdfrwt>
<totfact> 0.97455811E+02</totfact>
</mgrwt>
</event>
<event>
 4    1  0.7145298E-006  0.4966361E+03  0.7818608E-02  0.1014661E+00
          1   -1    0    0  501    0  0.00000000000E+00  0.00000000000E+00  0.29165817909E+03  0.29165817913E+03  0.50400000000E-02 0. -1.
         -1   -1    0    0    0  501 -0.00000000000E+00 -0.00000000000E+00 -0.21141825660E+03  0.21141825666E+03  0.50400000000E-02 0.  1.
    5000001    1    1    2    0    0 -0.98015934666E+02  0.36174513966E+02 -0.79230456103E+02  0.23250200877E+03  0.19200000000E+03 0.  0.
   -5000001    1    1    2    0    0  0.98015934666E+02 -0.36174513966E+02  0.15947037859E+03  0.27057442702E+03  0.19200000000E+03 0.  0.
<mgrwt>
<rscale>  0 0.49663614E+03</rscale>
<asrwt>0</asrwt>
<pdfrwt beam="1">  1        1 0.41665454E-01 0.49663614E+03</pdfrwt>
<pdfrwt beam="2">  1       -1 0.30202608E-01 0.49663614E+03</pdfrwt>
<totfact> 0.10119380E+03</totfact>
</mgrwt>
</event>
<event>
 4    1  0.7145298E-006  0.4374958E+03  0.7818608E-02  0.1031518E+00
         -1   -1    0    0    0  501 -0.00000000000E+00  0.00000000000E+00  0.82433606632E+02  0.82433606786E+02  0.50400000000E-02 0. -1.
          1   -1    0    0  501    0  0.00000000000E+00 -0.00000000000E+00 -0.58047496573E+03  0.58047496575E+03  0.50400000000E-02 0.  1.
    5000001    1    1    2    0    0  0.98363606516E+02 -0.36200996447E+02 -0.25031867204E+03  0.33242946440E+03  0.19200000000E+03 0.  0.
   -5000001    1    1    2    0    0 -0.98363606516E+02  0.36200996447E+02 -0.24772268705E+03  0.33047910813E+03  0.19200000000E+03 0.  0.
<mgrwt>
<rscale>  0 0.43749581E+03</rscale>
<asrwt>0</asrwt>
<pdfrwt beam="1">  1        1 0.82924993E-01 0.43749581E+03</pdfrwt>
<pdfrwt beam="2">  1       -1 0.11776230E-01 0.43749581E+03</pdfrwt>
<totfact> 0.19339046E+03</totfact>
</mgrwt>
</event>
<event>
 4    1  0.7145298E-006  0.4325127E+03  0.7818608E-02  0.1033069E+00
          1   -1    0    0  501    0  0.00000000000E+00  0.00000000000E+00  0.55492900956E+03  0.55492900958E+03  0.50400000000E-02 0.  1.
         -1   -1    0    0    0  501 -0.00000000000E+00 -0.00000000000E+00 -0.84275306545E+02  0.84275306695E+02  0.50400000000E-02 0. -1.
    5000001    1    1    2    0    0 -0.51296367176E+02 -0.83742939293E+02  0.21156020489E+03  0.30210249496E+03  0.19200000000E+03 0.  0.
   -5000001    1    1    2    0    0  0.51296367176E+02  0.83742939293E+02  0.25909349812E+03  0.33710182132E+03  0.19200000000E+03 0.  0.
<mgrwt>
<rscale>  0 0.43251272E+03</rscale>
<asrwt>0</asrwt>
<pdfrwt beam="1">  1        1 0.79275571E-01 0.43251272E+03</pdfrwt>
<pdfrwt beam="2">  1       -1 0.12039330E-01 0.43251272E+03</pdfrwt>
<totfact> 0.19858739E+03</totfact>
</mgrwt>
</event>
<event>
 4    1  0.7145298E-006  0.5293857E+03  0.7818608E-02  0.1006381E+00
         -1   -1    0    0    0  501 -0.00000000000E+00  0.00000000000E+00  0.14896171149E+03  0.14896171157E+03  0.50400000000E-02 0. -1.
          1   -1    0    0  501    0  0.00000000000E+00 -0.00000000000E+00 -0.47033769559E+03  0.47033769562E+03  0.50400000000E-02 0.  1.
    5000001    1    1    2    0    0 -0.95380562045E+02 -0.15453415301E+03 -0.14333432777E+03  0.30064428413E+03  0.19200000000E+03 0.  0.
   -5000001    1    1    2    0    0  0.95380562045E+02  0.15453415301E+03 -0.17804165633E+03  0.31865512306E+03  0.19200000000E+03 0.  0.
<mgrwt>
<rscale>  0 0.52938571E+03</rscale>
<asrwt>0</asrwt>
<pdfrwt beam="1">  1        1 0.67191099E-01 0.52938571E+03</pdfrwt>
<pdfrwt beam="2">  1       -1 0.21280245E-01 0.52938571E+03</pdfrwt>
<totfact> 0.98542760E+02</totfact>
</mgrwt>
</event>
<event>
 4    1  0.7145298E-006  0.4838669E+03  0.7818608E-02  0.1018078E+00
         -1   -1    0    0    0  501 -0.00000000000E+00  0.00000000000E+00  0.49547836706E+03  0.49547836708E+03  0.50400000000E-02 0. -1.
          1   -1    0    0  501    0  0.00000000000E+00 -0.00000000000E+00 -0.11813186808E+03  0.11813186819E+03  0.50400000000E-02 0.  1.
    5000001    1    1    2    0    0 -0.10594402040E+03 -0.19916802502E+02  0.61561914008E+02  0.22863657568E+03  0.19200000000E+03 0.  0.
   -5000001    1    1    2    0    0  0.10594402040E+03  0.19916802502E+02  0.31578458497E+03  0.38497365960E+03  0.19200000000E+03 0.  0.
<mgrwt>
<rscale>  0 0.48386686E+03</rscale>
<asrwt>0</asrwt>
<pdfrwt beam="1">  1        1 0.16875981E-01 0.48386686E+03</pdfrwt>
<pdfrwt beam="2">  1       -1 0.70782624E-01 0.48386686E+03</pdfrwt>
<totfact> 0.66974463E+02</totfact>
</mgrwt>
</event>
<event>
 4    1  0.7145298E-006  0.4762704E+03  0.7818608E-02  0.1020165E+00
         -1   -1    0    0    0  501 -0.00000000000E+00  0.00000000000E+00  0.76080703972E+02  0.76080704139E+02  0.50400000000E-02 0. -1.
          1   -1    0    0  501    0  0.00000000000E+00 -0.00000000000E+00 -0.74537136627E+03  0.74537136629E+03  0.50400000000E-02 0.  1.
    5000001    1    1    2    0    0 -0.13017241962E+03  0.53285907231E+02 -0.34801990664E+03  0.42162317554E+03  0.19200000000E+03 0.  0.
   -5000001    1    1    2    0    0  0.13017241962E+03 -0.53285907231E+02 -0.32127075567E+03  0.39982889489E+03  0.19200000000E+03 0.  0.
<mgrwt>
<rscale>  0 0.47627042E+03</rscale>
<asrwt>0</asrwt>
<pdfrwt beam="1">  1        1 0.10648162E+00 0.47627042E+03</pdfrwt>
<pdfrwt beam="2">  1       -1 0.10868672E-01 0.47627042E+03</pdfrwt>
<totfact> 0.15370762E+03</totfact>
</mgrwt>
</event>
<event>
 4    1  0.7145298E-006  0.4692960E+03  0.7818608E-02  0.1022119E+00
          1   -1    0    0  501    0  0.00000000000E+00  0.00000000000E+00  0.20353850434E+03  0.20353850441E+03  0.50400000000E-02 0.  1.
         -1   -1    0    0    0  501 -0.00000000000E+00 -0.00000000000E+00 -0.27051242945E+03  0.27051242950E+03  0.50400000000E-02 0. -1.
    5000001    1    1    2    0    0  0.46866388813E+01 -0.13155578614E+03 -0.37470948950E+01  0.23282381788E+03  0.19200000000E+03 0.  0.
   -5000001    1    1    2    0    0 -0.46866388813E+01  0.13155578614E+03 -0.63226830214E+02  0.24122711603E+03  0.19200000000E+03 0.  0.
<mgrwt>
<rscale>  0 0.46929605E+03</rscale>
<asrwt>0</asrwt>
<pdfrwt beam="1">  1        1 0.29076929E-01 0.46929605E+03</pdfrwt>
<pdfrwt beam="2">  1       -1 0.38644633E-01 0.46929605E+03</pdfrwt>
<totfact> 0.10400036E+03</totfact>
</mgrwt>
</event>
<event>
 4    1  0.7145298E-006  0.4712204E+03  0.7818608E-02  0.1021576E+00
          1   -1    0    0  501    0  0.00000000000E+00  0.00000000000E+00  0.18346256456E+03  0.18346256463E+03  0.50400000000E-02 0.  1.
         -1   -1    0    0    0  501 -0.00000000000E+00 -0.00000000000E+00 -0.30258036821E+03  0.30258036825E+03  0.50400000000E-02 0. -1.
    5000001    1    1    2    0    0  0.13353047436E+03 -0.76450195826E+00 -0.30073010153E+02  0.23579516107E+03  0.19200000000E+03 0.  0.
   -5000001    1    1    2    0    0 -0.13353047436E+03  0.76450195826E+00 -0.89044793504E+02  0.25024777181E+03  0.19200000000E+03 0.  0.
<mgrwt>
<rscale>  0 0.47122042E+03</rscale>
<asrwt>0</asrwt>
<pdfrwt beam="1">  1        1 0.26208938E-01 0.47122042E+03</pdfrwt>
<pdfrwt beam="2">  1       -1 0.43225767E-01 0.47122042E+03</pdfrwt>
<totfact> 0.97095506E+02</totfact>
</mgrwt>
</event>
<event>
 4    1  0.7145298E-006  0.5242649E+03  0.7818608E-02  0.1007633E+00
         -1   -1    0    0    0  501 -0.00000000000E+00  0.00000000000E+00  0.49853949910E+02  0.49853950164E+02  0.50400000000E-02 0. -1.
          1   -1    0    0  501    0  0.00000000000E+00 -0.00000000000E+00 -0.13782942588E+04  0.13782942588E+04  0.50400000000E-02 0.  1.
    5000001    1    1    2    0    0  0.14763515319E+03 -0.12674591123E+02 -0.39327686861E+03  0.46204705291E+03  0.19200000000E+03 0.  0.
   -5000001    1    1    2    0    0 -0.14763515319E+03  0.12674591123E+02 -0.93516344032E+03  0.96610115610E+03  0.19200000000E+03 0.  0.
<mgrwt>
<rscale>  0 0.52426487E+03</rscale>
<asrwt>0</asrwt>
<pdfrwt beam="1">  1        1 0.19689916E+00 0.52426487E+03</pdfrwt>
<pdfrwt beam="2">  1       -1 0.71219937E-02 0.52426487E+03</pdfrwt>
<totfact> 0.10263564E+03</totfact>
</mgrwt>
</event>
<event>
 4    1  0.7145298E-006  0.4853679E+03  0.7818608E-02  0.1017670E+00
         -1   -1    0    0    0  501 -0.00000000000E+00  0.00000000000E+00  0.11344952070E+03  0.11344952082E+03  0.50400000000E-02 0.  1.
          1   -1    0    0  501    0  0.00000000000E+00 -0.00000000000E+00 -0.51913402991E+03  0.51913402993E+03  0.50400000000E-02 0. -1.
    5000001    1    1    2    0    0 -0.54231000676E+02 -0.12073141408E+03 -0.11527366936E+03  0.26013284035E+03  0.19200000000E+03 0.  0.
   -5000001    1    1    2    0    0  0.54231000676E+02  0.12073141408E+03 -0.29041083985E+03  0.37245071040E+03  0.19200000000E+03 0.  0.
<mgrwt>
<rscale>  0 0.48536793E+03</rscale>
<asrwt>0</asrwt>
<pdfrwt beam="1">  1        1 0.74162003E-01 0.48536793E+03</pdfrwt>
<pdfrwt beam="2">  1       -1 0.16207075E-01 0.48536793E+03</pdfrwt>
<totfact> 0.13508181E+03</totfact>
</mgrwt>
</event>
<event>
 4    1  0.7145298E-006  0.6268652E+03  0.7818608E-02  0.9851185E-01
          1   -1    0    0  501    0  0.00000000000E+00  0.00000000000E+00  0.47482846157E+03  0.47482846160E+03  0.50400000000E-02 0.  1.
         -1   -1    0    0    0  501 -0.00000000000E+00 -0.00000000000E+00 -0.20689578727E+03  0.20689578733E+03  0.50400000000E-02 0. -1.
    5000001    1    1    2    0    0  0.16578544901E+03  0.16459230072E+03  0.22364872021E+03  0.37610928014E+03  0.19200000000E+03 0.  0.
   -5000001    1    1    2    0    0 -0.16578544901E+03 -0.16459230072E+03  0.44283954091E+02  0.30561496879E+03  0.19200000000E+03 0.  0.
<mgrwt>
<rscale>  0 0.62686524E+03</rscale>
<asrwt>0</asrwt>
<pdfrwt beam="1">  1        1 0.67832638E-01 0.62686524E+03</pdfrwt>
<pdfrwt beam="2">  1       -1 0.29556541E-01 0.62686524E+03</pdfrwt>
<totfact> 0.55610770E+02</totfact>
</mgrwt>
</event>
<event>
 4    1  0.7145298E-006  0.4776007E+03  0.7818608E-02  0.1019797E+00
         -1   -1    0    0    0  501 -0.00000000000E+00  0.00000000000E+00  0.88536353921E+02  0.88536354065E+02  0.50400000000E-02 0. -1.
          1   -1    0    0  501    0  0.00000000000E+00 -0.00000000000E+00 -0.64409254565E+03  0.64409254567E+03  0.50400000000E-02 0.  1.
    5000001    1    1    2    0    0 -0.64240066730E+02 -0.12583902289E+03 -0.25611912216E+03  0.34989034081E+03  0.19200000000E+03 0.  0.
   -5000001    1    1    2    0    0  0.64240066730E+02  0.12583902289E+03 -0.29943706956E+03  0.38273855892E+03  0.19200000000E+03 0.  0.
<mgrwt>
<rscale>  0 0.47760069E+03</rscale>
<asrwt>0</asrwt>
<pdfrwt beam="1">  1        1 0.92013218E-01 0.47760069E+03</pdfrwt>
<pdfrwt beam="2">  1       -1 0.12648051E-01 0.47760069E+03</pdfrwt>
<totfact> 0.14938987E+03</totfact>
</mgrwt>
</event>
<event>
 4    1  0.7145298E-006  0.5946778E+03  0.7818608E-02  0.9916510E-01
         -1   -1    0    0    0  501 -0.00000000000E+00  0.00000000000E+00  0.20260712289E+03  0.20260712296E+03  0.50400000000E-02 0. -1.
          1   -1    0    0  501    0  0.00000000000E+00 -0.00000000000E+00 -0.43636383057E+03  0.43636383060E+03  0.50400000000E-02 0.  1.
    5000001    1    1    2    0    0 -0.19376181721E+03  0.27249194174E+02  0.68517595949E+01  0.27422090912E+03  0.19200000000E+03 0.  0.
   -5000001    1    1    2    0    0  0.19376181721E+03 -0.27249194174E+02 -0.24060846727E+03  0.36475004444E+03  0.19200000000E+03 0.  0.
<mgrwt>
<rscale>  0 0.59467780E+03</rscale>
<asrwt>0</asrwt>
<pdfrwt beam="1">  1        1 0.62337690E-01 0.59467780E+03</pdfrwt>
<pdfrwt beam="2">  1       -1 0.28943875E-01 0.59467780E+03</pdfrwt>
<totfact> 0.64560282E+02</totfact>
</mgrwt>
</event>
<event>
 4    1  0.7145298E-006  0.7694952E+03  0.7818608E-02  0.9605252E-01
         -1   -1    0    0    0  501 -0.00000000000E+00  0.00000000000E+00  0.98694625630E+02  0.98694625758E+02  0.50400000000E-02 0. -1.
          1   -1    0    0  501    0  0.00000000000E+00 -0.00000000000E+00 -0.14998861894E+04  0.14998861894E+04  0.50400000000E-02 0.  1.
    5000001    1    1    2    0    0  0.20654203913E+03 -0.11655484488E+03 -0.21373801152E+03  0.37254876642E+03  0.19200000000E+03 0.  0.
   -5000001    1    1    2    0    0 -0.20654203913E+03  0.11655484488E+03 -0.11874535523E+04  0.12260320488E+04  0.19200000000E+03 0.  0.
<mgrwt>
<rscale>  0 0.76949517E+03</rscale>
<asrwt>0</asrwt>
<pdfrwt beam="1">  1        1 0.21426944E+00 0.76949517E+03</pdfrwt>
<pdfrwt beam="2">  1       -1 0.14099233E-01 0.76949517E+03</pdfrwt>
<totfact> 0.28701090E+02</totfact>
</mgrwt>
</event>
<event>
 4    1  0.7145298E-006  0.4640624E+03  0.7818608E-02  0.1023610E+00
         -1   -1    0    0    0  501 -0.00000000000E+00  0.00000000000E+00  0.28844631117E+03  0.28844631122E+03  0.50400000000E-02 0.  1.
          1   -1    0    0  501    0  0.00000000000E+00 -0.00000000000E+00 -0.18664989969E+03  0.18664989975E+03  0.50400000000E-02 0. -1.
    5000001    1    1    2    0    0  0.10167602060E+03 -0.11932902814E+02  0.13340003977E+03  0.25522534738E+03  0.19200000000E+03 0.  0.
   -5000001    1    1    2    0    0 -0.10167602060E+03  0.11932902814E+02 -0.31603628284E+02  0.21987086359E+03  0.19200000000E+03 0.  0.
<mgrwt>
<rscale>  0 0.46406239E+03</rscale>
<asrwt>0</asrwt>
<pdfrwt beam="1">  1        1 0.26664271E-01 0.46406239E+03</pdfrwt>
<pdfrwt beam="2">  1       -1 0.41206616E-01 0.46406239E+03</pdfrwt>
<totfact> 0.10358369E+03</totfact>
</mgrwt>
</event>
<event>
 4    1  0.7145298E-006  0.5327477E+03  0.7818608E-02  0.1005568E+00
         -1   -1    0    0    0  501 -0.00000000000E+00  0.00000000000E+00  0.10301974791E+03  0.10301974803E+03  0.50400000000E-02 0. -1.
          1   -1    0    0  501    0  0.00000000000E+00 -0.00000000000E+00 -0.68875165571E+03  0.68875165573E+03  0.50400000000E-02 0.  1.
    5000001    1    1    2    0    0 -0.60542563575E+02  0.17301890876E+03 -0.32576706001E+03  0.42022508514E+03  0.19200000000E+03 0.  0.
   -5000001    1    1    2    0    0  0.60542563575E+02 -0.17301890876E+03 -0.25996484779E+03  0.37154631862E+03  0.19200000000E+03 0.  0.
<mgrwt>
<rscale>  0 0.53274768E+03</rscale>
<asrwt>0</asrwt>
<pdfrwt beam="1">  1        1 0.98393091E-01 0.53274768E+03</pdfrwt>
<pdfrwt beam="2">  1       -1 0.14717107E-01 0.53274768E+03</pdfrwt>
<totfact> 0.10640370E+03</totfact>
</mgrwt>
</event>
<event>
 4    1  0.7145298E-006  0.1675328E+04  0.7818608E-02  0.8775562E-01
         -1   -1    0    0    0  501 -0.00000000000E+00  0.00000000000E+00  0.57260585027E+03  0.57260585029E+03  0.50400000000E-02 0. -1.
          1   -1    0    0  501    0  0.00000000000E+00 -0.00000000000E+00 -0.12254170134E+04  0.12254170134E+04  0.50400000000E-02 0.  1.
    5000001    1    1    2    0    0 -0.22006297648E+03  0.77323459507E+03 -0.18043952717E+03  0.84601529277E+03  0.19200000000E+03 0.  0.
   -5000001    1    1    2    0    0  0.22006297648E+03 -0.77323459507E+03 -0.47237163595E+03  0.95200757092E+03  0.19200000000E+03 0.  0.
<mgrwt>
<rscale>  0 0.16753280E+04</rscale>
<asrwt>0</asrwt>
<pdfrwt beam="1">  1        1 0.17505957E+00 0.16753280E+04</pdfrwt>
<pdfrwt beam="2">  1       -1 0.81800836E-01 0.16753280E+04</pdfrwt>
<totfact> 0.16898062E+01</totfact>
</mgrwt>
</event>
<event>
 4    1  0.7145298E-006  0.6188414E+03  0.7818608E-02  0.9867069E-01
          1   -1    0    0  501    0  0.00000000000E+00  0.00000000000E+00  0.13817068344E+04  0.13817068344E+04  0.50400000000E-02 0. -1.
         -1   -1    0    0    0  501 -0.00000000000E+00 -0.00000000000E+00 -0.69291950394E+02  0.69291950577E+02  0.50400000000E-02 0.  1.
    5000001    1    1    2    0    0 -0.20212066213E+03  0.47105448493E+02  0.36143186373E+03  0.45887762797E+03  0.19200000000E+03 0.  0.
   -5000001    1    1    2    0    0  0.20212066213E+03 -0.47105448493E+02  0.95098302026E+03  0.99212115699E+03  0.19200000000E+03 0.  0.
<mgrwt>
<rscale>  0 0.61884137E+03</rscale>
<asrwt>0</asrwt>
<pdfrwt beam="1">  1        1 0.19738667E+00 0.61884137E+03</pdfrwt>
<pdfrwt beam="2">  1       -1 0.98988511E-02 0.61884137E+03</pdfrwt>
<totfact> 0.60804343E+02</totfact>
</mgrwt>
</event>
<event>
 4    1  0.7145298E-006  0.7492841E+03  0.7818608E-02  0.9636474E-01
          1   -1    0    0  501    0  0.00000000000E+00  0.00000000000E+00  0.33082030111E+03  0.33082030114E+03  0.50400000000E-02 0.  1.
         -1   -1    0    0    0  501 -0.00000000000E+00 -0.00000000000E+00 -0.42426859322E+03  0.42426859325E+03  0.50400000000E-02 0. -1.
    5000001    1    1    2    0    0 -0.23181560192E+03 -0.22165073125E+03 -0.71920722890E+02  0.38066272517E+03  0.19200000000E+03 0.  0.
   -5000001    1    1    2    0    0  0.23181560192E+03  0.22165073125E+03 -0.21527569221E+02  0.37442616922E+03  0.19200000000E+03 0.  0.
<mgrwt>
<rscale>  0 0.74928410E+03</rscale>
<asrwt>0</asrwt>
<pdfrwt beam="1">  1        1 0.47260043E-01 0.74928410E+03</pdfrwt>
<pdfrwt beam="2">  1       -1 0.60609799E-01 0.74928410E+03</pdfrwt>
<totfact> 0.23749156E+02</totfact>
</mgrwt>
</event>
<event>
 4    1  0.7145298E-006  0.1461865E+04  0.7818608E-02  0.8910216E-01
         -1   -1    0    0    0  501 -0.00000000000E+00  0.00000000000E+00  0.44568988034E+03  0.44568988037E+03  0.50400000000E-02 0. -1.
          1   -1    0    0  501    0  0.00000000000E+00 -0.00000000000E+00 -0.11987308262E+04  0.11987308262E+04  0.50400000000E-02 0.  1.
    5000001    1    1    2    0    0 -0.56487252938E+03 -0.42169867470E+03 -0.40135589572E+03  0.83358341018E+03  0.19200000000E+03 0.  0.
   -5000001    1    1    2    0    0  0.56487252938E+03  0.42169867470E+03 -0.35168505010E+03  0.81083729635E+03  0.19200000000E+03 0.  0.
<mgrwt>
<rscale>  0 0.14618648E+04</rscale>
<asrwt>0</asrwt>
<pdfrwt beam="1">  1        1 0.17124726E+00 0.14618648E+04</pdfrwt>
<pdfrwt beam="2">  1       -1 0.63669983E-01 0.14618648E+04</pdfrwt>
<totfact> 0.30150142E+01</totfact>
</mgrwt>
</event>
<event>
 4    1  0.7145298E-006  0.5193443E+03  0.7818608E-02  0.1008850E+00
         -1   -1    0    0    0  501 -0.00000000000E+00  0.00000000000E+00  0.18950603699E+02  0.18950604369E+02  0.50400000000E-02 0.  1.
          1   -1    0    0  501    0  0.00000000000E+00 -0.00000000000E+00 -0.35581776274E+04  0.35581776274E+04  0.50400000000E-02 0. -1.
    5000001    1    1    2    0    0 -0.17085193194E+03 -0.12737060278E+02 -0.15297249364E+04  0.15512172628E+04  0.19200000000E+03 0.  0.
   -5000001    1    1    2    0    0  0.17085193194E+03  0.12737060278E+02 -0.20095020872E+04  0.20259109689E+04  0.19200000000E+03 0.  0.
<mgrwt>
<rscale>  0 0.51934426E+03</rscale>
<asrwt>0</asrwt>
<pdfrwt beam="1">  1        1 0.50831066E+00 0.51934426E+03</pdfrwt>
<pdfrwt beam="2">  1       -1 0.27072314E-02 0.51934426E+03</pdfrwt>
<totfact> 0.18376542E+02</totfact>
</mgrwt>
</event>
<event>
 4    1  0.7145298E-006  0.1243344E+04  0.7818608E-02  0.9075741E-01
         -1   -1    0    0    0  501 -0.00000000000E+00  0.00000000000E+00  0.51622087924E+03  0.51622087927E+03  0.50400000000E-02 0.  1.
          1   -1    0    0  501    0  0.00000000000E+00 -0.00000000000E+00 -0.74866463482E+03  0.74866463484E+03  0.50400000000E-02 0. -1.
    5000001    1    1    2    0    0 -0.10756738004E+03 -0.57918067087E+03 -0.64434878231E+02  0.62292603437E+03  0.19200000000E+03 0.  0.
   -5000001    1    1    2    0    0  0.10756738004E+03  0.57918067087E+03 -0.16800887734E+03  0.64195947974E+03  0.19200000000E+03 0.  0.
<mgrwt>
<rscale>  0 0.12433444E+04</rscale>
<asrwt>0</asrwt>
<pdfrwt beam="1">  1        1 0.10695209E+00 0.12433444E+04</pdfrwt>
<pdfrwt beam="2">  1       -1 0.73745840E-01 0.12433444E+04</pdfrwt>
<totfact> 0.50400046E+01</totfact>
</mgrwt>
</event>
<event>
 4    1  0.7145298E-006  0.9998844E+03  0.7818608E-02  0.9308672E-01
         -1   -1    0    0    0  501 -0.00000000000E+00  0.00000000000E+00  0.76307356168E+03  0.76307356170E+03  0.50400000000E-02 0. -1.
          1   -1    0    0  501    0  0.00000000000E+00 -0.00000000000E+00 -0.32754664002E+03  0.32754664006E+03  0.50400000000E-02 0.  1.
    5000001    1    1    2    0    0  0.31952909925E+03 -0.31590142215E+03  0.33312311355E+03  0.59137768183E+03  0.19200000000E+03 0.  0.
   -5000001    1    1    2    0    0 -0.31952909925E+03  0.31590142215E+03  0.10240380811E+03  0.49924251993E+03  0.19200000000E+03 0.  0.
<mgrwt>
<rscale>  0 0.99988436E+03</rscale>
<asrwt>0</asrwt>
<pdfrwt beam="1">  1        1 0.46792376E-01 0.99988436E+03</pdfrwt>
<pdfrwt beam="2">  1       -1 0.10901051E+00 0.99988436E+03</pdfrwt>
<totfact> 0.67347609E+01</totfact>
</mgrwt>
</event>
<event>
 4    1  0.7145298E-006  0.4668875E+03  0.7818608E-02  0.1022802E+00
         -1   -1    0    0    0  501 -0.00000000000E+00  0.00000000000E+00  0.90119270202E+02  0.90119270343E+02  0.50400000000E-02 0. -1.
          1   -1    0    0  501    0  0.00000000000E+00 -0.00000000000E+00 -0.60470958844E+03  0.60470958846E+03  0.50400000000E-02 0.  1.
    5000001    1    1    2    0    0  0.78190121956E+02  0.10653039126E+03 -0.23791591668E+03  0.33306216063E+03  0.19200000000E+03 0.  0.
   -5000001    1    1    2    0    0 -0.78190121956E+02 -0.10653039126E+03 -0.27667440156E+03  0.36176669818E+03  0.19200000000E+03 0.  0.
<mgrwt>
<rscale>  0 0.46688751E+03</rscale>
<asrwt>0</asrwt>
<pdfrwt beam="1">  1        1 0.86387081E-01 0.46688751E+03</pdfrwt>
<pdfrwt beam="2">  1       -1 0.12874182E-01 0.46688751E+03</pdfrwt>
<totfact> 0.15868686E+03</totfact>
</mgrwt>
</event>
<event>
 4    1  0.7145298E-006  0.4710559E+03  0.7818608E-02  0.1021623E+00
         -1   -1    0    0    0  501 -0.00000000000E+00  0.00000000000E+00  0.85266674066E+03  0.85266674067E+03  0.50400000000E-02 0.  1.
          1   -1    0    0  501    0  0.00000000000E+00 -0.00000000000E+00 -0.65058743421E+02  0.65058743616E+02  0.50400000000E-02 0. -1.
    5000001    1    1    2    0    0 -0.10851656052E+03 -0.52934811593E+02  0.51750494368E+03  0.56502504804E+03  0.19200000000E+03 0.  0.
   -5000001    1    1    2    0    0  0.10851656052E+03  0.52934811593E+02  0.27010305356E+03  0.35270043624E+03  0.19200000000E+03 0.  0.
<mgrwt>
<rscale>  0 0.47105595E+03</rscale>
<asrwt>0</asrwt>
<pdfrwt beam="1">  1        1 0.92941061E-02 0.47105595E+03</pdfrwt>
<pdfrwt beam="2">  1       -1 0.12180954E+00 0.47105595E+03</pdfrwt>
<totfact> 0.45111905E+02</totfact>
</mgrwt>
</event>
<event>
 4    1  0.7145298E-006  0.6344398E+03  0.7818608E-02  0.9836423E-01
         -1   -1    0    0    0  501 -0.00000000000E+00  0.00000000000E+00  0.11354015752E+03  0.11354015763E+03  0.50400000000E-02 0.  1.
          1   -1    0    0  501    0  0.00000000000E+00 -0.00000000000E+00 -0.88628075493E+03  0.88628075494E+03  0.50400000000E-02 0. -1.
    5000001    1    1    2    0    0  0.57624282095E+02 -0.19530906548E+03 -0.62169492451E+03  0.68178792018E+03  0.19200000000E+03 0.  0.
   -5000001    1    1    2    0    0 -0.57624282095E+02  0.19530906548E+03 -0.15104567290E+03  0.31803299239E+03  0.19200000000E+03 0.  0.
<mgrwt>
<rscale>  0 0.63443977E+03</rscale>
<asrwt>0</asrwt>
<pdfrwt beam="1">  1        1 0.12661153E+00 0.63443977E+03</pdfrwt>
<pdfrwt beam="2">  1       -1 0.16220023E-01 0.63443977E+03</pdfrwt>
<totfact> 0.61728734E+02</totfact>
</mgrwt>
</event>
<event>
 4    1  0.7145298E-006  0.5589190E+03  0.7818608E-02  0.9994504E-01
         -1   -1    0    0    0  501 -0.00000000000E+00  0.00000000000E+00  0.43059349357E+02  0.43059349652E+02  0.50400000000E-02 0. -1.
          1   -1    0    0  501    0  0.00000000000E+00 -0.00000000000E+00 -0.18137200483E+04  0.18137200483E+04  0.50400000000E-02 0.  1.
    5000001    1    1    2    0    0 -0.10589249239E+03  0.80493378171E+02 -0.13950434163E+04  0.14144619250E+04  0.19200000000E+03 0.  0.
   -5000001    1    1    2    0    0  0.10589249239E+03 -0.80493378171E+02 -0.37561728262E+03  0.44231747295E+03  0.19200000000E+03 0.  0.
<mgrwt>
<rscale>  0 0.55891898E+03</rscale>
<asrwt>0</asrwt>
<pdfrwt beam="1">  1        1 0.25910282E+00 0.55891898E+03</pdfrwt>
<pdfrwt beam="2">  1       -1 0.61513368E-02 0.55891898E+03</pdfrwt>
<totfact> 0.68095123E+02</totfact>
</mgrwt>
</event>
<event>
 4    1  0.7145298E-006  0.4768700E+03  0.7818608E-02  0.1019999E+00
         -1   -1    0    0    0  501 -0.00000000000E+00  0.00000000000E+00  0.93801200641E+02  0.93801200776E+02  0.50400000000E-02 0.  1.
          1   -1    0    0  501    0  0.00000000000E+00 -0.00000000000E+00 -0.60608240222E+03  0.60608240225E+03  0.50400000000E-02 0. -1.
    5000001    1    1    2    0    0  0.60475400137E+02 -0.16536420556E+01 -0.44367558180E+03  0.48720840555E+03  0.19200000000E+03 0.  0.
   -5000001    1    1    2    0    0 -0.60475400137E+02  0.16536420556E+01 -0.68605619785E+02  0.21267519747E+03  0.19200000000E+03 0.  0.
<mgrwt>
<rscale>  0 0.47687003E+03</rscale>
<asrwt>0</asrwt>
<pdfrwt beam="1">  1        1 0.86583198E-01 0.47687003E+03</pdfrwt>
<pdfrwt beam="2">  1       -1 0.13400172E-01 0.47687003E+03</pdfrwt>
<totfact> 0.14840035E+03</totfact>
</mgrwt>
</event>
<event>
 4    1  0.7145298E-006  0.4205870E+03  0.7818608E-02  0.1036875E+00
         -1   -1    0    0    0  501 -0.00000000000E+00  0.00000000000E+00  0.55603025774E+03  0.55603025776E+03  0.50400000000E-02 0. -1.
          1   -1    0    0  501    0  0.00000000000E+00 -0.00000000000E+00 -0.79534081882E+02  0.79534082041E+02  0.50400000000E-02 0.  1.
    5000001    1    1    2    0    0  0.39527704425E+02  0.72854483004E+02  0.20482699035E+03  0.29272565841E+03  0.19200000000E+03 0.  0.
   -5000001    1    1    2    0    0 -0.39527704425E+02 -0.72854483004E+02  0.27166918550E+03  0.34283868140E+03  0.19200000000E+03 0.  0.
<mgrwt>
<rscale>  0 0.42058700E+03</rscale>
<asrwt>0</asrwt>
<pdfrwt beam="1">  1        1 0.11362012E-01 0.42058700E+03</pdfrwt>
<pdfrwt beam="2">  1       -1 0.79432892E-01 0.42058700E+03</pdfrwt>
<totfact> 0.89725146E+02</totfact>
</mgrwt>
</event>
<event>
 4    1  0.7145298E-006  0.5965558E+03  0.7818608E-02  0.9912577E-01
         -1   -1    0    0    0  501 -0.00000000000E+00  0.00000000000E+00  0.13989013183E+03  0.13989013192E+03  0.50400000000E-02 0. -1.
          1   -1    0    0  501    0  0.00000000000E+00 -0.00000000000E+00 -0.63599706594E+03  0.63599706596E+03  0.50400000000E-02 0.  1.
    5000001    1    1    2    0    0  0.22044758342E+03 -0.44985479888E+02 -0.19793548079E+03  0.35589785752E+03  0.19200000000E+03 0.  0.
   -5000001    1    1    2    0    0 -0.22044758342E+03  0.44985479888E+02 -0.29817145332E+03  0.41998934035E+03  0.19200000000E+03 0.  0.
<mgrwt>
<rscale>  0 0.59655583E+03</rscale>
<asrwt>0</asrwt>
<pdfrwt beam="1">  1        1 0.90856722E-01 0.59655583E+03</pdfrwt>
<pdfrwt beam="2">  1       -1 0.19984305E-01 0.59655583E+03</pdfrwt>
<totfact> 0.72261205E+02</totfact>
</mgrwt>
</event>
<event>
 4    1  0.7145298E-006  0.6319240E+03  0.7818608E-02  0.9841301E-01
         -1   -1    0    0    0  501 -0.00000000000E+00  0.00000000000E+00  0.22833653102E+03  0.22833653108E+03  0.50400000000E-02 0. -1.
          1   -1    0    0  501    0  0.00000000000E+00 -0.00000000000E+00 -0.43721430672E+03  0.43721430675E+03  0.50400000000E-02 0.  1.
    5000001    1    1    2    0    0 -0.16658372189E+03  0.75961554703E+02  0.76296034213E+02  0.27605321775E+03  0.19200000000E+03 0.  0.
   -5000001    1    1    2    0    0  0.16658372189E+03 -0.75961554703E+02 -0.28517380991E+03  0.38949762008E+03  0.19200000000E+03 0.  0.
<mgrwt>
<rscale>  0 0.63192404E+03</rscale>
<asrwt>0</asrwt>
<pdfrwt beam="1">  1        1 0.62459186E-01 0.63192404E+03</pdfrwt>
<pdfrwt beam="2">  1       -1 0.32619505E-01 0.63192404E+03</pdfrwt>
<totfact> 0.52239604E+02</totfact>
</mgrwt>
</event>
<event>
 4    1  0.7145298E-006  0.5732174E+03  0.7818608E-02  0.9962584E-01
         -1   -1    0    0    0  501 -0.00000000000E+00  0.00000000000E+00  0.30500167843E+02  0.30500168260E+02  0.50400000000E-02 0. -1.
          1   -1    0    0  501    0  0.00000000000E+00 -0.00000000000E+00 -0.26932485737E+04  0.26932485737E+04  0.50400000000E-02 0.  1.
    5000001    1    1    2    0    0  0.19249150131E+02  0.19535858143E+03 -0.17216212470E+04  0.17433815483E+04  0.19200000000E+03 0.  0.
   -5000001    1    1    2    0    0 -0.19249150131E+02 -0.19535858143E+03 -0.94112715893E+03  0.98036719365E+03  0.19200000000E+03 0.  0.
<mgrwt>
<rscale>  0 0.57321736E+03</rscale>
<asrwt>0</asrwt>
<pdfrwt beam="1">  1        1 0.38474965E+00 0.57321736E+03</pdfrwt>
<pdfrwt beam="2">  1       -1 0.43571686E-02 0.57321736E+03</pdfrwt>
<totfact> 0.32862334E+02</totfact>
</mgrwt>
</event>
<event>
 4    1  0.7145298E-006  0.8116413E+03  0.7818608E-02  0.9543318E-01
          1   -1    0    0  501    0  0.00000000000E+00  0.00000000000E+00  0.85360757696E+03  0.85360757698E+03  0.50400000000E-02 0.  1.
         -1   -1    0    0    0  501 -0.00000000000E+00 -0.00000000000E+00 -0.19293455208E+03  0.19293455214E+03  0.50400000000E-02 0. -1.
    5000001    1    1    2    0    0 -0.30652785732E+03  0.14073885713E+03  0.17744628732E+03  0.42675278336E+03  0.19200000000E+03 0.  0.
   -5000001    1    1    2    0    0  0.30652785732E+03 -0.14073885713E+03  0.48322673757E+03  0.61978934576E+03  0.19200000000E+03 0.  0.
<mgrwt>
<rscale>  0 0.81164129E+03</rscale>
<asrwt>0</asrwt>
<pdfrwt beam="1">  1        1 0.12194394E+00 0.81164129E+03</pdfrwt>
<pdfrwt beam="2">  1       -1 0.27562079E-01 0.81164129E+03</pdfrwt>
<totfact> 0.26760999E+02</totfact>
</mgrwt>
</event>
<event>
 4    1  0.7145298E-006  0.4085648E+03  0.7818608E-02  0.1040854E+00
         -1   -1    0    0    0  501 -0.00000000000E+00  0.00000000000E+00  0.12528207760E+03  0.12528207770E+03  0.50400000000E-02 0. -1.
          1   -1    0    0  501    0  0.00000000000E+00 -0.00000000000E+00 -0.33309867810E+03  0.33309867814E+03  0.50400000000E-02 0.  1.
    5000001    1    1    2    0    0  0.37275160432E+02 -0.55571838020E+02 -0.81762551544E+02  0.21915013484E+03  0.19200000000E+03 0.  0.
   -5000001    1    1    2    0    0 -0.37275160432E+02  0.55571838020E+02 -0.12605404895E+03  0.23923062100E+03  0.19200000000E+03 0.  0.
<mgrwt>
<rscale>  0 0.40856478E+03</rscale>
<asrwt>0</asrwt>
<pdfrwt beam="1">  1        1 0.47585525E-01 0.40856478E+03</pdfrwt>
<pdfrwt beam="2">  1       -1 0.17897440E-01 0.40856478E+03</pdfrwt>
<totfact> 0.20491470E+03</totfact>
</mgrwt>
</event>
<event>
 4    1  0.7145298E-006  0.4966033E+03  0.7818608E-02  0.1014669E+00
          1   -1    0    0  501    0  0.00000000000E+00  0.00000000000E+00  0.71343128401E+03  0.71343128403E+03  0.50400000000E-02 0.  1.
         -1   -1    0    0    0  501 -0.00000000000E+00 -0.00000000000E+00 -0.86418574122E+02  0.86418574269E+02  0.50400000000E-02 0. -1.
    5000001    1    1    2    0    0  0.57249635052E+01 -0.15311848001E+03  0.25517377489E+03  0.35419726074E+03  0.19200000000E+03 0.  0.
   -5000001    1    1    2    0    0 -0.57249635052E+01  0.15311848001E+03  0.37183893500E+03  0.44565259756E+03  0.19200000000E+03 0.  0.
<mgrwt>
<rscale>  0 0.49660332E+03</rscale>
<asrwt>0</asrwt>
<pdfrwt beam="1">  1        1 0.10191875E+00 0.49660332E+03</pdfrwt>
<pdfrwt beam="2">  1       -1 0.12345511E-01 0.49660332E+03</pdfrwt>
<totfact> 0.13399281E+03</totfact>
</mgrwt>
</event>
<event>
 4    1  0.7145298E-006  0.4567948E+03  0.7818608E-02  0.1025715E+00
         -1   -1    0    0    0  501 -0.00000000000E+00  0.00000000000E+00  0.92660725467E+02  0.92660725604E+02  0.50400000000E-02 0.  1.
          1   -1    0    0  501    0  0.00000000000E+00 -0.00000000000E+00 -0.56297185671E+03  0.56297185673E+03  0.50400000000E-02 0. -1.
    5000001    1    1    2    0    0 -0.11880023606E+03 -0.13313334665E+01 -0.28458688745E+03  0.36327532953E+03  0.19200000000E+03 0.  0.
   -5000001    1    1    2    0    0  0.11880023606E+03  0.13313334665E+01 -0.18572424379E+03  0.29235725280E+03  0.19200000000E+03 0.  0.
<mgrwt>
<rscale>  0 0.45679484E+03</rscale>
<asrwt>0</asrwt>
<pdfrwt beam="1">  1        1 0.80424549E-01 0.45679484E+03</pdfrwt>
<pdfrwt beam="2">  1       -1 0.13237247E-01 0.45679484E+03</pdfrwt>
<totfact> 0.16753588E+03</totfact>
</mgrwt>
</event>
<event>
 4    1  0.7145298E-006  0.7519952E+03  0.7818608E-02  0.9632225E-01
          1   -1    0    0  501    0  0.00000000000E+00  0.00000000000E+00  0.58042609654E+03  0.58042609656E+03  0.50400000000E-02 0.  1.
         -1   -1    0    0    0  501 -0.00000000000E+00 -0.00000000000E+00 -0.24356965856E+03  0.24356965862E+03  0.50400000000E-02 0. -1.
    5000001    1    1    2    0    0  0.69188331379E+02 -0.18798065613E+03 -0.10961166960E+03  0.29833281816E+03  0.19200000000E+03 0.  0.
   -5000001    1    1    2    0    0 -0.69188331379E+02  0.18798065613E+03  0.44646810757E+03  0.52566293702E+03  0.19200000000E+03 0.  0.
<mgrwt>
<rscale>  0 0.75199518E+03</rscale>
<asrwt>0</asrwt>
<pdfrwt beam="1">  1        1 0.82918015E-01 0.75199518E+03</pdfrwt>
<pdfrwt beam="2">  1       -1 0.34795665E-01 0.75199518E+03</pdfrwt>
<totfact> 0.31608729E+02</totfact>
</mgrwt>
</event>
<event>
 4    1  0.7145298E-006  0.7410099E+03  0.7818608E-02  0.9649561E-01
         -1   -1    0    0    0  501 -0.00000000000E+00  0.00000000000E+00  0.99962369994E+02  0.99962370121E+02  0.50400000000E-02 0.  1.
          1   -1    0    0  501    0  0.00000000000E+00 -0.00000000000E+00 -0.13732558709E+04  0.13732558709E+04  0.50400000000E-02 0. -1.
    5000001    1    1    2    0    0  0.61096719331E+02  0.29046729740E+03 -0.41610088321E+03  0.54599267850E+03  0.19200000000E+03 0.  0.
   -5000001    1    1    2    0    0 -0.61096719331E+02 -0.29046729740E+03 -0.85719261772E+03  0.92722556255E+03  0.19200000000E+03 0.  0.
<mgrwt>
<rscale>  0 0.74100988E+03</rscale>
<asrwt>0</asrwt>
<pdfrwt beam="1">  1        1 0.19617940E+00 0.74100988E+03</pdfrwt>
<pdfrwt beam="2">  1       -1 0.14280339E-01 0.74100988E+03</pdfrwt>
<totfact> 0.34062565E+02</totfact>
</mgrwt>
</event>
<event>
 4    1  0.7145298E-006  0.5689233E+03  0.7818608E-02  0.9972064E-01
         -1   -1    0    0    0  501 -0.00000000000E+00  0.00000000000E+00  0.20346894626E+03  0.20346894632E+03  0.50400000000E-02 0.  1.
          1   -1    0    0  501    0  0.00000000000E+00 -0.00000000000E+00 -0.39769421550E+03  0.39769421554E+03  0.50400000000E-02 0. -1.
    5000001    1    1    2    0    0  0.14131431878E+02 -0.20722572199E+03 -0.65198003642E+02  0.29027052365E+03  0.19200000000E+03 0.  0.
   -5000001    1    1    2    0    0 -0.14131431878E+02  0.20722572199E+03 -0.12902726560E+03  0.31089263821E+03  0.19200000000E+03 0.  0.
<mgrwt>
<rscale>  0 0.56892327E+03</rscale>
<asrwt>0</asrwt>
<pdfrwt beam="1">  1        1 0.56813459E-01 0.56892327E+03</pdfrwt>
<pdfrwt beam="2">  1       -1 0.29066992E-01 0.56892327E+03</pdfrwt>
<totfact> 0.72419131E+02</totfact>
</mgrwt>
</event>
<event>
 4    1  0.7145298E-006  0.4843809E+03  0.7818608E-02  0.1017938E+00
         -1   -1    0    0    0  501 -0.00000000000E+00  0.00000000000E+00  0.30807736675E+02  0.30807737087E+02  0.50400000000E-02 0. -1.
          1   -1    0    0  501    0  0.00000000000E+00 -0.00000000000E+00 -0.19039443212E+04  0.19039443212E+04  0.50400000000E-02 0.  1.
    5000001    1    1    2    0    0  0.14140761118E+03  0.38310492397E+02 -0.86418371012E+03  0.89729665728E+03  0.19200000000E+03 0.  0.
   -5000001    1    1    2    0    0 -0.14140761118E+03 -0.38310492397E+02 -0.10089528744E+04  0.10374554011E+04  0.19200000000E+03 0.  0.
<mgrwt>
<rscale>  0 0.48438091E+03</rscale>
<asrwt>0</asrwt>
<pdfrwt beam="1">  1        1 0.27199197E+00 0.48438091E+03</pdfrwt>
<pdfrwt beam="2">  1       -1 0.44011065E-02 0.48438091E+03</pdfrwt>
<totfact> 0.10031318E+03</totfact>
</mgrwt>
</event>
<event>
 4    1  0.7145298E-006  0.7015248E+03  0.7818608E-02  0.9714628E-01
          1   -1    0    0  501    0  0.00000000000E+00  0.00000000000E+00  0.21704640472E+04  0.21704640472E+04  0.50400000000E-02 0. -1.
         -1   -1    0    0    0  501 -0.00000000000E+00 -0.00000000000E+00 -0.56685700988E+02  0.56685701212E+02  0.50400000000E-02 0.  1.
    5000001    1    1    2    0    0 -0.15260250238E+03 -0.24833032763E+03  0.11675410828E+04  0.12185941307E+04  0.19200000000E+03 0.  0.
   -5000001    1    1    2    0    0  0.15260250238E+03  0.24833032763E+03  0.94623726345E+03  0.10085556177E+04  0.19200000000E+03 0.  0.
<mgrwt>
<rscale>  0 0.70152484E+03</rscale>
<asrwt>0</asrwt>
<pdfrwt beam="1">  1        1 0.31006625E+00 0.70152484E+03</pdfrwt>
<pdfrwt beam="2">  1       -1 0.80979585E-02 0.70152484E+03</pdfrwt>
<totfact> 0.26453823E+02</totfact>
</mgrwt>
</event>
<event>
 4    1  0.7145298E-006  0.4592175E+03  0.7818608E-02  0.1025008E+00
         -1   -1    0    0    0  501 -0.00000000000E+00  0.00000000000E+00  0.17840783178E+03  0.17840783185E+03  0.50400000000E-02 0. -1.
          1   -1    0    0  501    0  0.00000000000E+00 -0.00000000000E+00 -0.29550377510E+03  0.29550377514E+03  0.50400000000E-02 0.  1.
    5000001    1    1    2    0    0 -0.51101040395E+02 -0.11180204154E+03 -0.86719344657E+02  0.24391649711E+03  0.19200000000E+03 0.  0.
   -5000001    1    1    2    0    0  0.51101040395E+02  0.11180204154E+03 -0.30376598665E+02  0.22999510988E+03  0.19200000000E+03 0.  0.
<mgrwt>
<rscale>  0 0.45921754E+03</rscale>
<asrwt>0</asrwt>
<pdfrwt beam="1">  1        1 0.42214825E-01 0.45921754E+03</pdfrwt>
<pdfrwt beam="2">  1       -1 0.25486833E-01 0.45921754E+03</pdfrwt>
<totfact> 0.13300717E+03</totfact>
</mgrwt>
</event>
<event>
 4    1  0.7145298E-006  0.6343347E+03  0.7818608E-02  0.9836626E-01
          1   -1    0    0  501    0  0.00000000000E+00  0.00000000000E+00  0.27257314903E+03  0.27257314908E+03  0.50400000000E-02 0.  1.
         -1   -1    0    0    0  501 -0.00000000000E+00 -0.00000000000E+00 -0.36905737752E+03  0.36905737755E+03  0.50400000000E-02 0. -1.
    5000001    1    1    2    0    0 -0.67827930213E+02 -0.20015574387E+03  0.91433690194E+02  0.29981172363E+03  0.19200000000E+03 0.  0.
   -5000001    1    1    2    0    0  0.67827930213E+02  0.20015574387E+03 -0.18791791868E+03  0.34181880300E+03  0.19200000000E+03 0.  0.
<mgrwt>
<rscale>  0 0.63433471E+03</rscale>
<asrwt>0</asrwt>
<pdfrwt beam="1">  1        1 0.38939022E-01 0.63433471E+03</pdfrwt>
<pdfrwt beam="2">  1       -1 0.52722482E-01 0.63433471E+03</pdfrwt>
<totfact> 0.40143885E+02</totfact>
</mgrwt>
</event>
<event>
 4    1  0.7145298E-006  0.4924455E+03  0.7818608E-02  0.1015770E+00
          1   -1    0    0  501    0  0.00000000000E+00  0.00000000000E+00  0.10161715722E+03  0.10161715735E+03  0.50400000000E-02 0. -1.
         -1   -1    0    0    0  501 -0.00000000000E+00 -0.00000000000E+00 -0.59660821435E+03  0.59660821437E+03  0.50400000000E-02 0.  1.
    5000001    1    1    2    0    0 -0.14173697343E+03 -0.59705082849E+02 -0.23279031300E+03  0.33868775647E+03  0.19200000000E+03 0.  0.
   -5000001    1    1    2    0    0  0.14173697343E+03  0.59705082849E+02 -0.26220074413E+03  0.35953761525E+03  0.19200000000E+03 0.  0.
<mgrwt>
<rscale>  0 0.49244545E+03</rscale>
<asrwt>0</asrwt>
<pdfrwt beam="1">  1        1 0.14516737E-01 0.49244545E+03</pdfrwt>
<pdfrwt beam="2">  1       -1 0.85229743E-01 0.49244545E+03</pdfrwt>
<totfact> 0.55547577E+02</totfact>
</mgrwt>
</event>
<event>
 4    1  0.7145298E-006  0.8742602E+03  0.7818608E-02  0.9458342E-01
         -1   -1    0    0    0  501 -0.00000000000E+00  0.00000000000E+00  0.45098051485E+03  0.45098051488E+03  0.50400000000E-02 0. -1.
          1   -1    0    0  501    0  0.00000000000E+00 -0.00000000000E+00 -0.42370500954E+03  0.42370500957E+03  0.50400000000E-02 0.  1.
    5000001    1    1    2    0    0  0.99747465263E+02 -0.15137922289E+03 -0.33489000166E+03  0.42647454691E+03  0.19200000000E+03 0.  0.
   -5000001    1    1    2    0    0 -0.99747465263E+02  0.15137922289E+03  0.36216550697E+03  0.44821097754E+03  0.19200000000E+03 0.  0.
<mgrwt>
<rscale>  0 0.87426015E+03</rscale>
<asrwt>0</asrwt>
<pdfrwt beam="1">  1        1 0.60529287E-01 0.87426015E+03</pdfrwt>
<pdfrwt beam="2">  1       -1 0.64425787E-01 0.87426015E+03</pdfrwt>
<totfact> 0.15117134E+02</totfact>
</mgrwt>
</event>
<event>
 4    1  0.7145298E-006  0.7013950E+03  0.7818608E-02  0.9714850E-01
         -1   -1    0    0    0  501 -0.00000000000E+00  0.00000000000E+00  0.11847239923E+03  0.11847239934E+03  0.50400000000E-02 0. -1.
          1   -1    0    0  501    0  0.00000000000E+00 -0.00000000000E+00 -0.10381213201E+04  0.10381213202E+04  0.50400000000E-02 0.  1.
    5000001    1    1    2    0    0 -0.13228528167E+03  0.23466089574E+03 -0.65184226289E+03  0.73097706355E+03  0.19200000000E+03 0.  0.
   -5000001    1    1    2    0    0  0.13228528167E+03 -0.23466089574E+03 -0.26780665802E+03  0.42561665594E+03  0.19200000000E+03 0.  0.
<mgrwt>
<rscale>  0 0.70139496E+03</rscale>
<asrwt>0</asrwt>
<pdfrwt beam="1">  1        1 0.14830304E+00 0.70139496E+03</pdfrwt>
<pdfrwt beam="2">  1       -1 0.16924629E-01 0.70139496E+03</pdfrwt>
<totfact> 0.44072928E+02</totfact>
</mgrwt>
</event>
<event>
 4    1  0.7145298E-006  0.5590883E+03  0.7818608E-02  0.9994120E-01
         -1   -1    0    0    0  501 -0.00000000000E+00  0.00000000000E+00  0.42279168897E+02  0.42279169197E+02  0.50400000000E-02 0. -1.
          1   -1    0    0  501    0  0.00000000000E+00 -0.00000000000E+00 -0.18483081736E+04  0.18483081736E+04  0.50400000000E-02 0.  1.
    5000001    1    1    2    0    0 -0.13972598635E+03 -0.14606201021E+03 -0.97260156537E+03  0.10117683861E+04  0.19200000000E+03 0.  0.
   -5000001    1    1    2    0    0  0.13972598635E+03  0.14606201021E+03 -0.83342743937E+03  0.87881895678E+03  0.19200000000E+03 0.  0.
<mgrwt>
<rscale>  0 0.55908831E+03</rscale>
<asrwt>0</asrwt>
<pdfrwt beam="1">  1        1 0.26404397E+00 0.55908831E+03</pdfrwt>
<pdfrwt beam="2">  1       -1 0.60398825E-02 0.55908831E+03</pdfrwt>
<totfact> 0.66663508E+02</totfact>
</mgrwt>
</event>
<event>
 4    1  0.7145298E-006  0.4370698E+03  0.7818608E-02  0.1031650E+00
         -1   -1    0    0    0  501 -0.00000000000E+00  0.00000000000E+00  0.59974323037E+02  0.59974323249E+02  0.50400000000E-02 0. -1.
          1   -1    0    0  501    0  0.00000000000E+00 -0.00000000000E+00 -0.79629904860E+03  0.79629904861E+03  0.50400000000E-02 0.  1.
    5000001    1    1    2    0    0  0.82231479061E+02 -0.49484726917E+02 -0.28779671487E+03  0.35902883372E+03  0.19200000000E+03 0.  0.
   -5000001    1    1    2    0    0 -0.82231479061E+02  0.49484726917E+02 -0.44852801068E+03  0.49724453814E+03  0.19200000000E+03 0.  0.
<mgrwt>
<rscale>  0 0.43706977E+03</rscale>
<asrwt>0</asrwt>
<pdfrwt beam="1">  1        1 0.11375700E+00 0.43706977E+03</pdfrwt>
<pdfrwt beam="2">  1       -1 0.85677609E-02 0.43706977E+03</pdfrwt>
<totfact> 0.20195296E+03</totfact>
</mgrwt>
</event>
<event>
 4    1  0.7145298E-006  0.5064596E+03  0.7818608E-02  0.1012106E+00
         -1   -1    0    0    0  501 -0.00000000000E+00  0.00000000000E+00  0.56863214994E+02  0.56863215217E+02  0.50400000000E-02 0. -1.
          1   -1    0    0  501    0  0.00000000000E+00 -0.00000000000E+00 -0.11277118840E+04  0.11277118840E+04  0.50400000000E-02 0.  1.
    5000001    1    1    2    0    0 -0.15900818031E+03  0.12808325971E+02 -0.43581573957E+03  0.50224198697E+03  0.19200000000E+03 0.  0.
   -5000001    1    1    2    0    0  0.15900818031E+03 -0.12808325971E+02 -0.63503292946E+03  0.68233311228E+03  0.19200000000E+03 0.  0.
<mgrwt>
<rscale>  0 0.50645957E+03</rscale>
<asrwt>0</asrwt>
<pdfrwt beam="1">  1        1 0.16110168E+00 0.50645957E+03</pdfrwt>
<pdfrwt beam="2">  1       -1 0.81233171E-02 0.50645957E+03</pdfrwt>
<totfact> 0.12345493E+03</totfact>
</mgrwt>
</event>
<event>
 4    1  0.7145298E-006  0.6160116E+03  0.7818608E-02  0.9872733E-01
         -1   -1    0    0    0  501 -0.00000000000E+00  0.00000000000E+00  0.75057646914E+02  0.75057647083E+02  0.50400000000E-02 0. -1.
          1   -1    0    0  501    0  0.00000000000E+00 -0.00000000000E+00 -0.12639296395E+04  0.12639296395E+04  0.50400000000E-02 0.  1.
    5000001    1    1    2    0    0  0.23777347290E+03  0.33149475418E+02 -0.63616039936E+03  0.70654027900E+03  0.19200000000E+03 0.  0.
   -5000001    1    1    2    0    0 -0.23777347290E+03 -0.33149475418E+02 -0.55271159325E+03  0.63244700762E+03  0.19200000000E+03 0.  0.
<mgrwt>
<rscale>  0 0.61601164E+03</rscale>
<asrwt>0</asrwt>
<pdfrwt beam="1">  1        1 0.18056136E+00 0.61601164E+03</pdfrwt>
<pdfrwt beam="2">  1       -1 0.10722522E-01 0.61601164E+03</pdfrwt>
<totfact> 0.64163892E+02</totfact>
</mgrwt>
</event>
<event>
 4    1  0.7145298E-006  0.7374676E+03  0.7818608E-02  0.9655219E-01
         -1   -1    0    0    0  501 -0.00000000000E+00  0.00000000000E+00  0.15020011837E+03  0.15020011846E+03  0.50400000000E-02 0. -1.
          1   -1    0    0  501    0  0.00000000000E+00 -0.00000000000E+00 -0.90522321203E+03  0.90522321205E+03  0.50400000000E-02 0.  1.
    5000001    1    1    2    0    0  0.10139125299E+03 -0.29369526299E+03 -0.30505064041E+03  0.47587496982E+03  0.19200000000E+03 0.  0.
   -5000001    1    1    2    0    0 -0.10139125299E+03  0.29369526299E+03 -0.44997245325E+03  0.57954836069E+03  0.19200000000E+03 0.  0.
<mgrwt>
<rscale>  0 0.73746765E+03</rscale>
<asrwt>0</asrwt>
<pdfrwt beam="1">  1        1 0.12931760E+00 0.73746765E+03</pdfrwt>
<pdfrwt beam="2">  1       -1 0.21457160E-01 0.73746765E+03</pdfrwt>
<totfact> 0.37401803E+02</totfact>
</mgrwt>
</event>
<event>
 4    1  0.7145298E-006  0.4365844E+03  0.7818608E-02  0.1031800E+00
          1   -1    0    0  501    0  0.00000000000E+00  0.00000000000E+00  0.27210522323E+03  0.27210522328E+03  0.50400000000E-02 0.  1.
         -1   -1    0    0    0  501 -0.00000000000E+00 -0.00000000000E+00 -0.17512151360E+03  0.17512151367E+03  0.50400000000E-02 0. -1.
    5000001    1    1    2    0    0 -0.10663290381E+02 -0.75328603111E+02 -0.23937964688E+02  0.20790654237E+03  0.19200000000E+03 0.  0.
   -5000001    1    1    2    0    0  0.10663290381E+02  0.75328603111E+02  0.12092167432E+03  0.23932019457E+03  0.19200000000E+03 0.  0.
<mgrwt>
<rscale>  0 0.43658437E+03</rscale>
<asrwt>0</asrwt>
<pdfrwt beam="1">  1        1 0.38872175E-01 0.43658437E+03</pdfrwt>
<pdfrwt beam="2">  1       -1 0.25017359E-01 0.43658437E+03</pdfrwt>
<totfact> 0.15243437E+03</totfact>
</mgrwt>
</event>
<event>
 4    1  0.7145298E-006  0.5394257E+03  0.7818608E-02  0.1003972E+00
         -1   -1    0    0    0  501 -0.00000000000E+00  0.00000000000E+00  0.47189015316E+02  0.47189015585E+02  0.50400000000E-02 0. -1.
          1   -1    0    0  501    0  0.00000000000E+00 -0.00000000000E+00 -0.15415665711E+04  0.15415665711E+04  0.50400000000E-02 0.  1.
    5000001    1    1    2    0    0  0.58076753167E+02  0.17849395666E+03 -0.67221397726E+03  0.72385677661E+03  0.19200000000E+03 0.  0.
   -5000001    1    1    2    0    0 -0.58076753167E+02 -0.17849395666E+03 -0.82216357849E+03  0.86489881004E+03  0.19200000000E+03 0.  0.
<mgrwt>
<rscale>  0 0.53942565E+03</rscale>
<asrwt>0</asrwt>
<pdfrwt beam="1">  1        1 0.22022376E+00 0.53942565E+03</pdfrwt>
<pdfrwt beam="2">  1       -1 0.67412889E-02 0.53942565E+03</pdfrwt>
<totfact> 0.87670163E+02</totfact>
</mgrwt>
</event>
<event>
 4    1  0.7145298E-006  0.6525680E+03  0.7818608E-02  0.9801972E-01
         -1   -1    0    0    0  501 -0.00000000000E+00  0.00000000000E+00  0.86397440615E+02  0.86397440762E+02  0.50400000000E-02 0. -1.
          1   -1    0    0  501    0  0.00000000000E+00 -0.00000000000E+00 -0.12322269565E+04  0.12322269565E+04  0.50400000000E-02 0.  1.
    5000001    1    1    2    0    0  0.18461346634E+03 -0.17470060422E+03 -0.43010583557E+03  0.53521721092E+03  0.19200000000E+03 0.  0.
   -5000001    1    1    2    0    0 -0.18461346634E+03  0.17470060422E+03 -0.71572368030E+03  0.78340718634E+03  0.19200000000E+03 0.  0.
<mgrwt>
<rscale>  0 0.65256802E+03</rscale>
<asrwt>0</asrwt>
<pdfrwt beam="1">  1        1 0.17603241E+00 0.65256802E+03</pdfrwt>
<pdfrwt beam="2">  1       -1 0.12342492E-01 0.65256802E+03</pdfrwt>
<totfact> 0.53790638E+02</totfact>
</mgrwt>
</event>
<event>
 4    1  0.7145298E-006  0.4715284E+03  0.7818608E-02  0.1021490E+00
         -1   -1    0    0    0  501 -0.00000000000E+00  0.00000000000E+00  0.73242580016E+02  0.73242580190E+02  0.50400000000E-02 0.  1.
          1   -1    0    0  501    0  0.00000000000E+00 -0.00000000000E+00 -0.75891313646E+03  0.75891313647E+03  0.50400000000E-02 0. -1.
    5000001    1    1    2    0    0  0.10756399557E+03 -0.84390223947E+02 -0.33332607972E+03  0.40824257306E+03  0.19200000000E+03 0.  0.
   -5000001    1    1    2    0    0 -0.10756399557E+03  0.84390223947E+02 -0.35234447672E+03  0.42391314360E+03  0.19200000000E+03 0.  0.
<mgrwt>
<rscale>  0 0.47152839E+03</rscale>
<asrwt>0</asrwt>
<pdfrwt beam="1">  1        1 0.10841616E+00 0.47152839E+03</pdfrwt>
<pdfrwt beam="2">  1       -1 0.10463226E-01 0.47152839E+03</pdfrwt>
<totfact> 0.15887541E+03</totfact>
</mgrwt>
</event>
<event>
 4    1  0.7145298E-006  0.4943908E+03  0.7818608E-02  0.1015253E+00
          1   -1    0    0  501    0  0.00000000000E+00  0.00000000000E+00  0.73182279247E+02  0.73182279420E+02  0.50400000000E-02 0.  1.
         -1   -1    0    0    0  501 -0.00000000000E+00 -0.00000000000E+00 -0.83497756436E+03  0.83497756437E+03  0.50400000000E-02 0. -1.
    5000001    1    1    2    0    0  0.84182864686E+02  0.12702998838E+03 -0.32228300709E+03  0.40491197724E+03  0.19200000000E+03 0.  0.
   -5000001    1    1    2    0    0 -0.84182864686E+02 -0.12702998838E+03 -0.43951227802E+03  0.50324786655E+03  0.19200000000E+03 0.  0.
<mgrwt>
<rscale>  0 0.49439078E+03</rscale>
<asrwt>0</asrwt>
<pdfrwt beam="1">  1        1 0.10454612E-01 0.49439078E+03</pdfrwt>
<pdfrwt beam="2">  1       -1 0.11928250E+00 0.49439078E+03</pdfrwt>
<totfact> 0.40379504E+02</totfact>
</mgrwt>
</event>
<event>
 4    1  0.7145298E-006  0.5176511E+03  0.7818608E-02  0.1009272E+00
          1   -1    0    0  501    0  0.00000000000E+00  0.00000000000E+00  0.11724317419E+04  0.11724317419E+04  0.50400000000E-02 0.  1.
         -1   -1    0    0    0  501 -0.00000000000E+00 -0.00000000000E+00 -0.57138227016E+02  0.57138227239E+02  0.50400000000E-02 0. -1.
    5000001    1    1    2    0    0 -0.13354753892E+03  0.10501892177E+03  0.47324040456E+03  0.53822337332E+03  0.19200000000E+03 0.  0.
   -5000001    1    1    2    0    0  0.13354753892E+03 -0.10501892177E+03  0.64205311028E+03  0.69134659578E+03  0.19200000000E+03 0.  0.
<mgrwt>
<rscale>  0 0.51765112E+03</rscale>
<asrwt>0</asrwt>
<pdfrwt beam="1">  1        1 0.16749025E+00 0.51765112E+03</pdfrwt>
<pdfrwt beam="2">  1       -1 0.81626037E-02 0.51765112E+03</pdfrwt>
<totfact> 0.11406264E+03</totfact>
</mgrwt>
</event>
<event>
 4    1  0.7145298E-006  0.6701484E+03  0.7818608E-02  0.9769690E-01
         -1   -1    0    0    0  501 -0.00000000000E+00  0.00000000000E+00  0.14335084553E+03  0.14335084561E+03  0.50400000000E-02 0. -1.
          1   -1    0    0  501    0  0.00000000000E+00 -0.00000000000E+00 -0.78321626495E+03  0.78321626497E+03  0.50400000000E-02 0.  1.
    5000001    1    1    2    0    0 -0.16238650425E+03  0.97235812292E+02 -0.59502577665E+03  0.65325634695E+03  0.19200000000E+03 0.  0.
   -5000001    1    1    2    0    0  0.16238650425E+03 -0.97235812292E+02 -0.44839642780E+02  0.27331076363E+03  0.19200000000E+03 0.  0.
<mgrwt>
<rscale>  0 0.67014838E+03</rscale>
<asrwt>0</asrwt>
<pdfrwt beam="1">  1        1 0.11188804E+00 0.67014838E+03</pdfrwt>
<pdfrwt beam="2">  1       -1 0.20478693E-01 0.67014838E+03</pdfrwt>
<totfact> 0.50950338E+02</totfact>
</mgrwt>
</event>
<event>
 4    1  0.7145298E-006  0.4910881E+03  0.7818608E-02  0.1016132E+00
          1   -1    0    0  501    0  0.00000000000E+00  0.00000000000E+00  0.14880221667E+04  0.14880221667E+04  0.50400000000E-02 0.  1.
         -1   -1    0    0    0  501 -0.00000000000E+00 -0.00000000000E+00 -0.40518126573E+02  0.40518126887E+02  0.50400000000E-02 0. -1.
    5000001    1    1    2    0    0 -0.86813363626E+02  0.73612860141E+02  0.40522827111E+03  0.46263307814E+03  0.19200000000E+03 0.  0.
   -5000001    1    1    2    0    0  0.86813363626E+02 -0.73612860141E+02  0.10422757691E+04  0.10659072155E+04  0.19200000000E+03 0.  0.
<mgrwt>
<rscale>  0 0.49108806E+03</rscale>
<asrwt>0</asrwt>
<pdfrwt beam="1">  1        1 0.21257459E+00 0.49108806E+03</pdfrwt>
<pdfrwt beam="2">  1       -1 0.57883039E-02 0.49108806E+03</pdfrwt>
<totfact> 0.12012340E+03</totfact>
</mgrwt>
</event>
<event>
 4    1  0.7145298E-006  0.7178240E+03  0.7818608E-02  0.9687227E-01
         -1   -1    0    0    0  501 -0.00000000000E+00  0.00000000000E+00  0.48541858648E+02  0.48541858910E+02  0.50400000000E-02 0. -1.
          1   -1    0    0  501    0  0.00000000000E+00 -0.00000000000E+00 -0.26537472613E+04  0.26537472613E+04  0.50400000000E-02 0.  1.
    5000001    1    1    2    0    0 -0.26907967489E+03  0.72455939794E+02 -0.17527796197E+04  0.17851482095E+04  0.19200000000E+03 0.  0.
   -5000001    1    1    2    0    0  0.26907967489E+03 -0.72455939794E+02 -0.85242578287E+03  0.91714091063E+03  0.19200000000E+03 0.  0.
<mgrwt>
<rscale>  0 0.71782400E+03</rscale>
<asrwt>0</asrwt>
<pdfrwt beam="1">  1        1 0.37910666E+00 0.71782400E+03</pdfrwt>
<pdfrwt beam="2">  1       -1 0.69345529E-02 0.71782400E+03</pdfrwt>
<totfact> 0.16796450E+02</totfact>
</mgrwt>
</event>
<event>
 4    1  0.7145298E-006  0.7544641E+03  0.7818608E-02  0.9628373E-01
         -1   -1    0    0    0  501 -0.00000000000E+00  0.00000000000E+00  0.85494308584E+02  0.85494308732E+02  0.50400000000E-02 0. -1.
          1   -1    0    0  501    0  0.00000000000E+00 -0.00000000000E+00 -0.16644852938E+04  0.16644852938E+04  0.50400000000E-02 0.  1.
    5000001    1    1    2    0    0 -0.15732372229E+03 -0.26816736630E+03 -0.57220982864E+03  0.67893488490E+03  0.19200000000E+03 0.  0.
   -5000001    1    1    2    0    0  0.15732372229E+03  0.26816736630E+03 -0.10067811566E+04  0.10710447176E+04  0.19200000000E+03 0.  0.
<mgrwt>
<rscale>  0 0.75446410E+03</rscale>
<asrwt>0</asrwt>
<pdfrwt beam="1">  1        1 0.23778359E+00 0.75446410E+03</pdfrwt>
<pdfrwt beam="2">  1       -1 0.12213474E-01 0.75446410E+03</pdfrwt>
<totfact> 0.28422925E+02</totfact>
</mgrwt>
</event>
<event>
 4    1  0.7145298E-006  0.1011144E+04  0.7818608E-02  0.9296406E-01
          1   -1    0    0  501    0  0.00000000000E+00  0.00000000000E+00  0.96073255453E+03  0.96073255454E+03  0.50400000000E-02 0.  1.
         -1   -1    0    0    0  501 -0.00000000000E+00 -0.00000000000E+00 -0.26605004573E+03  0.26605004578E+03  0.50400000000E-02 0. -1.
    5000001    1    1    2    0    0 -0.44366876017E+03 -0.13758739327E+03  0.28125820387E+03  0.57597086453E+03  0.19200000000E+03 0.  0.
   -5000001    1    1    2    0    0  0.44366876017E+03  0.13758739327E+03  0.41342430492E+03  0.65081173579E+03  0.19200000000E+03 0.  0.
<mgrwt>
<rscale>  0 0.10111438E+04</rscale>
<asrwt>0</asrwt>
<pdfrwt beam="1">  1        1 0.13724750E+00 0.10111438E+04</pdfrwt>
<pdfrwt beam="2">  1       -1 0.38007151E-01 0.10111438E+04</pdfrwt>
<totfact> 0.12359260E+02</totfact>
</mgrwt>
</event>
<event>
 4    1  0.7145298E-006  0.9006836E+03  0.7818608E-02  0.9424727E-01
         -1   -1    0    0    0  501 -0.00000000000E+00  0.00000000000E+00  0.36709590983E+03  0.36709590987E+03  0.50400000000E-02 0. -1.
          1   -1    0    0  501    0  0.00000000000E+00 -0.00000000000E+00 -0.55246521800E+03  0.55246521803E+03  0.50400000000E-02 0.  1.
    5000001    1    1    2    0    0 -0.10561159990E+03 -0.35974172470E+03 -0.25532124614E+03  0.49256558676E+03  0.19200000000E+03 0.  0.
   -5000001    1    1    2    0    0  0.10561159990E+03  0.35974172470E+03  0.69951937971E+02  0.42699554114E+03  0.19200000000E+03 0.  0.
<mgrwt>
<rscale>  0 0.90068357E+03</rscale>
<asrwt>0</asrwt>
<pdfrwt beam="1">  1        1 0.78923602E-01 0.90068357E+03</pdfrwt>
<pdfrwt beam="2">  1       -1 0.52442273E-01 0.90068357E+03</pdfrwt>
<totfact> 0.15783018E+02</totfact>
</mgrwt>
</event>
<event>
 4    1  0.7145298E-006  0.4697280E+03  0.7818608E-02  0.1021997E+00
          1   -1    0    0  501    0  0.00000000000E+00  0.00000000000E+00  0.57684800359E+03  0.57684800361E+03  0.50400000000E-02 0.  1.
         -1   -1    0    0    0  501 -0.00000000000E+00 -0.00000000000E+00 -0.95625011232E+02  0.95625011365E+02  0.50400000000E-02 0. -1.
    5000001    1    1    2    0    0 -0.12408900239E+03 -0.53705149905E+02  0.23510891825E+03  0.33229885206E+03  0.19200000000E+03 0.  0.
   -5000001    1    1    2    0    0  0.12408900239E+03  0.53705149905E+02  0.24611407410E+03  0.34017416291E+03  0.19200000000E+03 0.  0.
<mgrwt>
<rscale>  0 0.46972799E+03</rscale>
<asrwt>0</asrwt>
<pdfrwt beam="1">  1        1 0.82406862E-01 0.46972799E+03</pdfrwt>
<pdfrwt beam="2">  1       -1 0.13660715E-01 0.46972799E+03</pdfrwt>
<totfact> 0.15409698E+03</totfact>
</mgrwt>
</event>
<event>
 4    1  0.7145298E-006  0.1923590E+04  0.7818608E-02  0.8643202E-01
          1   -1    0    0  501    0  0.00000000000E+00  0.00000000000E+00  0.86099111975E+03  0.86099111976E+03  0.50400000000E-02 0. -1.
         -1   -1    0    0    0  501 -0.00000000000E+00 -0.00000000000E+00 -0.10744010682E+04  0.10744010682E+04  0.50400000000E-02 0.  1.
    5000001    1    1    2    0    0  0.64461175988E+03  0.68452383682E+03 -0.42370700883E+02  0.96060214472E+03  0.19200000000E+03 0.  0.
   -5000001    1    1    2    0    0 -0.64461175988E+03 -0.68452383682E+03 -0.17103924753E+03  0.97479004321E+03  0.19200000000E+03 0.  0.
<mgrwt>
<rscale>  0 0.19235902E+04</rscale>
<asrwt>0</asrwt>
<pdfrwt beam="1">  1        1 0.12299873E+00 0.19235902E+04</pdfrwt>
<pdfrwt beam="2">  1       -1 0.15348587E+00 0.19235902E+04</pdfrwt>
<totfact> 0.68037290E+00</totfact>
</mgrwt>
</event>
<event>
 4    1  0.7145298E-006  0.6399409E+03  0.7818608E-02  0.9825840E-01
          1   -1    0    0  501    0  0.00000000000E+00  0.00000000000E+00  0.76116311620E+03  0.76116311621E+03  0.50400000000E-02 0. -1.
         -1   -1    0    0    0  501 -0.00000000000E+00 -0.00000000000E+00 -0.13450609523E+03  0.13450609532E+03  0.50400000000E-02 0.  1.
    5000001    1    1    2    0    0 -0.23547079637E+03 -0.29773860521E+02  0.17919845636E+03  0.35399020534E+03  0.19200000000E+03 0.  0.
   -5000001    1    1    2    0    0  0.23547079637E+03  0.29773860521E+02  0.44745856461E+03  0.54167900620E+03  0.19200000000E+03 0.  0.
<mgrwt>
<rscale>  0 0.63994087E+03</rscale>
<asrwt>0</asrwt>
<pdfrwt beam="1">  1        1 0.10873759E+00 0.63994087E+03</pdfrwt>
<pdfrwt beam="2">  1       -1 0.19215156E-01 0.63994087E+03</pdfrwt>
<totfact> 0.59208633E+02</totfact>
</mgrwt>
</event>
<event>
 4    1  0.7145298E-006  0.6177552E+03  0.7818608E-02  0.9869239E-01
          1   -1    0    0  501    0  0.00000000000E+00  0.00000000000E+00  0.94456083655E+03  0.94456083656E+03  0.50400000000E-02 0. -1.
         -1   -1    0    0    0  501 -0.00000000000E+00 -0.00000000000E+00 -0.10100500281E+03  0.10100500294E+03  0.50400000000E-02 0.  1.
    5000001    1    1    2    0    0 -0.97860125244E+02 -0.18756648532E+03  0.62048620757E+03  0.68309949811E+03  0.19200000000E+03 0.  0.
   -5000001    1    1    2    0    0  0.97860125244E+02  0.18756648532E+03  0.22306962616E+03  0.36246634139E+03  0.19200000000E+03 0.  0.
<mgrwt>
<rscale>  0 0.61775519E+03</rscale>
<asrwt>0</asrwt>
<pdfrwt beam="1">  1        1 0.13493727E+00 0.61775519E+03</pdfrwt>
<pdfrwt beam="2">  1       -1 0.14429285E-01 0.61775519E+03</pdfrwt>
<totfact> 0.67315540E+02</totfact>
</mgrwt>
</event>
<event>
 4    1  0.7145298E-006  0.8379477E+03  0.7818608E-02  0.9506657E-01
         -1   -1    0    0    0  501 -0.00000000000E+00  0.00000000000E+00  0.21781149990E+03  0.21781149996E+03  0.50400000000E-02 0. -1.
          1   -1    0    0  501    0  0.00000000000E+00 -0.00000000000E+00 -0.80592212031E+03  0.80592212032E+03  0.50400000000E-02 0.  1.
    5000001    1    1    2    0    0  0.30984320109E+03 -0.15958534036E+03 -0.13380641558E+03  0.41980763091E+03  0.19200000000E+03 0.  0.
   -5000001    1    1    2    0    0 -0.30984320109E+03  0.15958534036E+03 -0.45430420483E+03  0.60392598938E+03  0.19200000000E+03 0.  0.
<mgrwt>
<rscale>  0 0.83794775E+03</rscale>
<asrwt>0</asrwt>
<pdfrwt beam="1">  1        1 0.11513173E+00 0.83794775E+03</pdfrwt>
<pdfrwt beam="2">  1       -1 0.31115929E-01 0.83794775E+03</pdfrwt>
<totfact> 0.23687972E+02</totfact>
</mgrwt>
</event>
<event>
 4    1  0.7145298E-006  0.5691507E+03  0.7818608E-02  0.9971560E-01
         -1   -1    0    0    0  501 -0.00000000000E+00  0.00000000000E+00  0.29419317797E+02  0.29419318229E+02  0.50400000000E-02 0. -1.
          1   -1    0    0  501    0  0.00000000000E+00 -0.00000000000E+00 -0.27527194015E+04  0.27527194015E+04  0.50400000000E-02 0.  1.
    5000001    1    1    2    0    0  0.64046261045E+02 -0.19974951880E+03 -0.14145996606E+04  0.14428991627E+04  0.19200000000E+03 0.  0.
   -5000001    1    1    2    0    0 -0.64046261045E+02  0.19974951880E+03 -0.13087004231E+04  0.13392395570E+04  0.19200000000E+03 0.  0.
<mgrwt>
<rscale>  0 0.56915069E+03</rscale>
<asrwt>0</asrwt>
<pdfrwt beam="1">  1        1 0.39324546E+00 0.56915069E+03</pdfrwt>
<pdfrwt beam="2">  1       -1 0.42027615E-02 0.56915069E+03</pdfrwt>
<totfact> 0.31853673E+02</totfact>
</mgrwt>
</event>
<event>
 4    1  0.7145298E-006  0.4823678E+03  0.7818608E-02  0.1018486E+00
          1   -1    0    0  501    0  0.00000000000E+00  0.00000000000E+00  0.24934932139E+03  0.24934932144E+03  0.50400000000E-02 0. -1.
         -1   -1    0    0    0  501 -0.00000000000E+00 -0.00000000000E+00 -0.23328591289E+03  0.23328591294E+03  0.50400000000E-02 0.  1.
    5000001    1    1    2    0    0 -0.35319609456E+02  0.13919594219E+03 -0.18111288134E+02  0.24044750756E+03  0.19200000000E+03 0.  0.
   -5000001    1    1    2    0    0  0.35319609456E+02 -0.13919594219E+03  0.34174696635E+02  0.24218772682E+03  0.19200000000E+03 0.  0.
<mgrwt>
<rscale>  0 0.48236784E+03</rscale>
<asrwt>0</asrwt>
<pdfrwt beam="1">  1        1 0.35621332E-01 0.48236784E+03</pdfrwt>
<pdfrwt beam="2">  1       -1 0.33326559E-01 0.48236784E+03</pdfrwt>
<totfact> 0.10419481E+03</totfact>
</mgrwt>
</event>
<event>
 4    1  0.7145298E-006  0.4440916E+03  0.7818608E-02  0.1029499E+00
         -1   -1    0    0    0  501 -0.00000000000E+00  0.00000000000E+00  0.67468881519E+02  0.67468881707E+02  0.50400000000E-02 0. -1.
          1   -1    0    0  501    0  0.00000000000E+00 -0.00000000000E+00 -0.73077162114E+03  0.73077162116E+03  0.50400000000E-02 0.  1.
    5000001    1    1    2    0    0  0.84715814051E+02 -0.72309504042E+02 -0.34227172617E+03  0.40794530033E+03  0.19200000000E+03 0.  0.
   -5000001    1    1    2    0    0 -0.84715814051E+02  0.72309504042E+02 -0.32103101346E+03  0.39029520254E+03  0.19200000000E+03 0.  0.
<mgrwt>
<rscale>  0 0.44409163E+03</rscale>
<asrwt>0</asrwt>
<pdfrwt beam="1">  1        1 0.10439594E+00 0.44409163E+03</pdfrwt>
<pdfrwt beam="2">  1       -1 0.96384121E-02 0.44409163E+03</pdfrwt>
<totfact> 0.19110622E+03</totfact>
</mgrwt>
</event>
<event>
 4    1  0.7145298E-006  0.1315953E+04  0.7818608E-02  0.9017009E-01
         -1   -1    0    0    0  501 -0.00000000000E+00  0.00000000000E+00  0.17865680757E+03  0.17865680765E+03  0.50400000000E-02 0.  1.
          1   -1    0    0  501    0  0.00000000000E+00 -0.00000000000E+00 -0.24232681023E+04  0.24232681023E+04  0.50400000000E-02 0. -1.
    5000001    1    1    2    0    0  0.41135857968E+03 -0.13147806451E+03 -0.21716582209E+03  0.52012244405E+03  0.19200000000E+03 0.  0.
   -5000001    1    1    2    0    0 -0.41135857968E+03  0.13147806451E+03 -0.20274454726E+04  0.20818024659E+04  0.19200000000E+03 0.  0.
<mgrwt>
<rscale>  0 0.13159534E+04</rscale>
<asrwt>0</asrwt>
<pdfrwt beam="1">  1        1 0.34618114E+00 0.13159534E+04</pdfrwt>
<pdfrwt beam="2">  1       -1 0.25522403E-01 0.13159534E+04</pdfrwt>
<totfact> 0.26791432E+01</totfact>
</mgrwt>
</event>
<event>
 4    1  0.7145298E-006  0.5884060E+03  0.7818608E-02  0.9929756E-01
          1   -1    0    0  501    0  0.00000000000E+00  0.00000000000E+00  0.77025700997E+03  0.77025700999E+03  0.50400000000E-02 0.  1.
         -1   -1    0    0    0  501 -0.00000000000E+00 -0.00000000000E+00 -0.11237209696E+03  0.11237209707E+03  0.50400000000E-02 0. -1.
    5000001    1    1    2    0    0 -0.10673403450E+02  0.22123039589E+03  0.36672980094E+03  0.46948009170E+03  0.19200000000E+03 0.  0.
   -5000001    1    1    2    0    0  0.10673403450E+02 -0.22123039589E+03  0.29115511207E+03  0.41314901535E+03  0.19200000000E+03 0.  0.
<mgrwt>
<rscale>  0 0.58840597E+03</rscale>
<asrwt>0</asrwt>
<pdfrwt beam="1">  1        1 0.11003671E+00 0.58840597E+03</pdfrwt>
<pdfrwt beam="2">  1       -1 0.16053157E-01 0.58840597E+03</pdfrwt>
<totfact> 0.78230204E+02</totfact>
</mgrwt>
</event>
<event>
 4    1  0.7145298E-006  0.3996930E+03  0.7818608E-02  0.1043886E+00
         -1   -1    0    0    0  501 -0.00000000000E+00  0.00000000000E+00  0.30721449602E+02  0.30721450015E+02  0.50400000000E-02 0. -1.
          1   -1    0    0  501    0  0.00000000000E+00 -0.00000000000E+00 -0.13000243162E+04  0.13000243162E+04  0.50400000000E-02 0.  1.
    5000001    1    1    2    0    0  0.29063455869E+02 -0.43036261491E+02 -0.69936797510E+03  0.72710134704E+03  0.19200000000E+03 0.  0.
   -5000001    1    1    2    0    0 -0.29063455869E+02  0.43036261491E+02 -0.56993489153E+03  0.60364441921E+03  0.19200000000E+03 0.  0.
<mgrwt>
<rscale>  0 0.39969304E+03</rscale>
<asrwt>0</asrwt>
<pdfrwt beam="1">  1        1 0.18571772E+00 0.39969304E+03</pdfrwt>
<pdfrwt beam="2">  1       -1 0.43887794E-02 0.39969304E+03</pdfrwt>
<totfact> 0.24260271E+03</totfact>
</mgrwt>
</event>
<event>
 4    1  0.7145298E-006  0.6790470E+03  0.7818608E-02  0.9753751E-01
         -1   -1    0    0    0  501 -0.00000000000E+00  0.00000000000E+00  0.12302423209E+03  0.12302423220E+03  0.50400000000E-02 0. -1.
          1   -1    0    0  501    0  0.00000000000E+00 -0.00000000000E+00 -0.93702033329E+03  0.93702033331E+03  0.50400000000E-02 0.  1.
    5000001    1    1    2    0    0  0.15380505160E+03  0.23372492670E+03 -0.38927644034E+03  0.51641406086E+03  0.19200000000E+03 0.  0.
   -5000001    1    1    2    0    0 -0.15380505160E+03 -0.23372492670E+03 -0.42471966086E+03  0.54363050464E+03  0.19200000000E+03 0.  0.
<mgrwt>
<rscale>  0 0.67904700E+03</rscale>
<asrwt>0</asrwt>
<pdfrwt beam="1">  1        1 0.13386004E+00 0.67904700E+03</pdfrwt>
<pdfrwt beam="2">  1       -1 0.17574891E-01 0.67904700E+03</pdfrwt>
<totfact> 0.49349291E+02</totfact>
</mgrwt>
</event>
<event>
 4    1  0.7145298E-006  0.4741244E+03  0.7818608E-02  0.1020763E+00
         -1   -1    0    0    0  501 -0.00000000000E+00  0.00000000000E+00  0.14116982610E+03  0.14116982619E+03  0.50400000000E-02 0. -1.
          1   -1    0    0  501    0  0.00000000000E+00 -0.00000000000E+00 -0.39809136721E+03  0.39809136724E+03  0.50400000000E-02 0.  1.
    5000001    1    1    2    0    0 -0.13532137971E+03 -0.15300928108E+02 -0.16039866631E+03  0.28484684720E+03  0.19200000000E+03 0.  0.
   -5000001    1    1    2    0    0  0.13532137971E+03  0.15300928108E+02 -0.96522874798E+02  0.25441434623E+03  0.19200000000E+03 0.  0.
<mgrwt>
<rscale>  0 0.47412441E+03</rscale>
<asrwt>0</asrwt>
<pdfrwt beam="1">  1        1 0.56870195E-01 0.47412441E+03</pdfrwt>
<pdfrwt beam="2">  1       -1 0.20167118E-01 0.47412441E+03</pdfrwt>
<totfact> 0.13409033E+03</totfact>
</mgrwt>
</event>
<event>
 4    1  0.7145298E-006  0.5936723E+03  0.7818608E-02  0.9918622E-01
          1   -1    0    0  501    0  0.00000000000E+00  0.00000000000E+00  0.12169019384E+04  0.12169019384E+04  0.50400000000E-02 0. -1.
         -1   -1    0    0    0  501 -0.00000000000E+00 -0.00000000000E+00 -0.72406575270E+02  0.72406575445E+02  0.50400000000E-02 0.  1.
    5000001    1    1    2    0    0  0.12594198645E+03  0.17615942936E+03  0.71555320194E+03  0.77186392150E+03  0.19200000000E+03 0.  0.
   -5000001    1    1    2    0    0 -0.12594198645E+03 -0.17615942936E+03  0.42894216116E+03  0.51744459232E+03  0.19200000000E+03 0.  0.
<mgrwt>
<rscale>  0 0.59367231E+03</rscale>
<asrwt>0</asrwt>
<pdfrwt beam="1">  1        1 0.17384315E+00 0.59367231E+03</pdfrwt>
<pdfrwt beam="2">  1       -1 0.10343796E-01 0.59367231E+03</pdfrwt>
<totfact> 0.73160299E+02</totfact>
</mgrwt>
</event>
<event>
 4    1  0.7145298E-006  0.5552314E+03  0.7818608E-02  0.1000290E+00
          1   -1    0    0  501    0  0.00000000000E+00  0.00000000000E+00  0.51546964700E+03  0.51546964703E+03  0.50400000000E-02 0.  1.
         -1   -1    0    0    0  501 -0.00000000000E+00 -0.00000000000E+00 -0.14951505117E+03  0.14951505126E+03  0.50400000000E-02 0. -1.
    5000001    1    1    2    0    0 -0.14875738041E+03  0.12575273992E+03  0.23996381416E+03  0.36385318733E+03  0.19200000000E+03 0.  0.
   -5000001    1    1    2    0    0  0.14875738041E+03 -0.12575273992E+03  0.12599078167E+03  0.30113151095E+03  0.19200000000E+03 0.  0.
<mgrwt>
<rscale>  0 0.55523138E+03</rscale>
<asrwt>0</asrwt>
<pdfrwt beam="1">  1        1 0.73638522E-01 0.55523138E+03</pdfrwt>
<pdfrwt beam="2">  1       -1 0.21359293E-01 0.55523138E+03</pdfrwt>
<totfact> 0.86597279E+02</totfact>
</mgrwt>
</event>
<event>
 4    1  0.7145298E-006  0.5581096E+03  0.7818608E-02  0.9996341E-01
         -1   -1    0    0    0  501 -0.00000000000E+00  0.00000000000E+00  0.11073147302E+04  0.11073147302E+04  0.50400000000E-02 0. -1.
          1   -1    0    0  501    0  0.00000000000E+00 -0.00000000000E+00 -0.70324703236E+02  0.70324703416E+02  0.50400000000E-02 0.  1.
    5000001    1    1    2    0    0 -0.14838042017E+03  0.11814596593E+03  0.36880984562E+03  0.45701194797E+03  0.19200000000E+03 0.  0.
   -5000001    1    1    2    0    0  0.14838042017E+03 -0.11814596593E+03  0.66818018137E+03  0.72062748569E+03  0.19200000000E+03 0.  0.
<mgrwt>
<rscale>  0 0.55810959E+03</rscale>
<asrwt>0</asrwt>
<pdfrwt beam="1">  1        1 0.10046386E-01 0.55810959E+03</pdfrwt>
<pdfrwt beam="2">  1       -1 0.15818782E+00 0.55810959E+03</pdfrwt>
<totfact> 0.20619746E+02</totfact>
</mgrwt>
</event>
<event>
 4    1  0.7145298E-006  0.6105849E+03  0.7818608E-02  0.9883686E-01
          1   -1    0    0  501    0  0.00000000000E+00  0.00000000000E+00  0.13220832917E+04  0.13220832917E+04  0.50400000000E-02 0. -1.
         -1   -1    0    0    0  501 -0.00000000000E+00 -0.00000000000E+00 -0.70497426481E+02  0.70497426662E+02  0.50400000000E-02 0.  1.
    5000001    1    1    2    0    0  0.17371729077E+03 -0.44948896136E+02  0.98016158132E+03  0.10147801860E+04  0.19200000000E+03 0.  0.
   -5000001    1    1    2    0    0 -0.17371729077E+03  0.44948896136E+02  0.27142428389E+03  0.37780053237E+03  0.19200000000E+03 0.  0.
<mgrwt>
<rscale>  0 0.61058487E+03</rscale>
<asrwt>0</asrwt>
<pdfrwt beam="1">  1        1 0.18886904E+00 0.61058487E+03</pdfrwt>
<pdfrwt beam="2">  1       -1 0.10071061E-01 0.61058487E+03</pdfrwt>
<totfact> 0.64802944E+02</totfact>
</mgrwt>
</event>
<event>
 4    1  0.7145298E-006  0.8107657E+03  0.7818608E-02  0.9544564E-01
         -1   -1    0    0    0  501 -0.00000000000E+00  0.00000000000E+00  0.41167978606E+03  0.41167978609E+03  0.50400000000E-02 0. -1.
          1   -1    0    0  501    0  0.00000000000E+00 -0.00000000000E+00 -0.39918218754E+03  0.39918218757E+03  0.50400000000E-02 0.  1.
    5000001    1    1    2    0    0 -0.27240310763E+03 -0.22888191153E+03  0.35931528497E+02  0.40588847879E+03  0.19200000000E+03 0.  0.
   -5000001    1    1    2    0    0  0.27240310763E+03  0.22888191153E+03 -0.23433929973E+02  0.40497349487E+03  0.19200000000E+03 0.  0.
<mgrwt>
<rscale>  0 0.81076566E+03</rscale>
<asrwt>0</asrwt>
<pdfrwt beam="1">  1        1 0.57026026E-01 0.81076566E+03</pdfrwt>
<pdfrwt beam="2">  1       -1 0.58811398E-01 0.81076566E+03</pdfrwt>
<totfact> 0.19662455E+02</totfact>
</mgrwt>
</event>
<event>
 4    1  0.7145298E-006  0.4679084E+03  0.7818608E-02  0.1022512E+00
         -1   -1    0    0    0  501 -0.00000000000E+00  0.00000000000E+00  0.71722098934E+02  0.71722099111E+02  0.50400000000E-02 0. -1.
          1   -1    0    0  501    0  0.00000000000E+00 -0.00000000000E+00 -0.76314795853E+03  0.76314795855E+03  0.50400000000E-02 0.  1.
    5000001    1    1    2    0    0 -0.37534222645E+02  0.12508637723E+03 -0.29477071695E+03  0.37524551324E+03  0.19200000000E+03 0.  0.
   -5000001    1    1    2    0    0  0.37534222645E+02 -0.12508637723E+03 -0.39665514265E+03  0.45962454442E+03  0.19200000000E+03 0.  0.
<mgrwt>
<rscale>  0 0.46790842E+03</rscale>
<asrwt>0</asrwt>
<pdfrwt beam="1">  1        1 0.10902113E+00 0.46790842E+03</pdfrwt>
<pdfrwt beam="2">  1       -1 0.10246015E-01 0.46790842E+03</pdfrwt>
<totfact> 0.16284198E+03</totfact>
</mgrwt>
</event>
<event>
 4    1  0.7145298E-006  0.6286381E+03  0.7818608E-02  0.9847710E-01
          1   -1    0    0  501    0  0.00000000000E+00  0.00000000000E+00  0.19547425835E+04  0.19547425835E+04  0.50400000000E-02 0.  1.
         -1   -1    0    0    0  501 -0.00000000000E+00 -0.00000000000E+00 -0.50541926625E+02  0.50541926877E+02  0.50400000000E-02 0. -1.
    5000001    1    1    2    0    0  0.16166952248E+03 -0.18559091804E+03  0.10693664601E+04  0.11139971496E+04  0.19200000000E+03 0.  0.
   -5000001    1    1    2    0    0 -0.16166952248E+03  0.18559091804E+03  0.83483419674E+03  0.89128736073E+03  0.19200000000E+03 0.  0.
<mgrwt>
<rscale>  0 0.62863807E+03</rscale>
<asrwt>0</asrwt>
<pdfrwt beam="1">  1        1 0.27924890E+00 0.62863807E+03</pdfrwt>
<pdfrwt beam="2">  1       -1 0.72202763E-02 0.62863807E+03</pdfrwt>
<totfact> 0.43263366E+02</totfact>
</mgrwt>
</event>
<event>
 4    1  0.7145298E-006  0.1232920E+04  0.7818608E-02  0.9084520E-01
          1   -1    0    0  501    0  0.00000000000E+00  0.00000000000E+00  0.33413724570E+03  0.33413724574E+03  0.50400000000E-02 0.  1.
         -1   -1    0    0    0  501 -0.00000000000E+00 -0.00000000000E+00 -0.11373249653E+04  0.11373249653E+04  0.50400000000E-02 0. -1.
    5000001    1    1    2    0    0 -0.31585570817E+03  0.49106252230E+03 -0.34496459373E+03  0.70482040274E+03  0.19200000000E+03 0.  0.
   -5000001    1    1    2    0    0  0.31585570817E+03 -0.49106252230E+03 -0.45822312589E+03  0.76664180834E+03  0.19200000000E+03 0.  0.
<mgrwt>
<rscale>  0 0.12329195E+04</rscale>
<asrwt>0</asrwt>
<pdfrwt beam="1">  1        1 0.47733893E-01 0.12329195E+04</pdfrwt>
<pdfrwt beam="2">  1       -1 0.16247499E+00 0.12329195E+04</pdfrwt>
<totfact> 0.23209539E+01</totfact>
</mgrwt>
</event>
<event>
 4    1  0.7145298E-006  0.1282944E+04  0.7818608E-02  0.9043201E-01
         -1   -1    0    0    0  501 -0.00000000000E+00  0.00000000000E+00  0.68906374253E+03  0.68906374255E+03  0.50400000000E-02 0.  1.
          1   -1    0    0  501    0  0.00000000000E+00 -0.00000000000E+00 -0.59716691828E+03  0.59716691830E+03  0.50400000000E-02 0. -1.
    5000001    1    1    2    0    0  0.34038215015E+03 -0.50721476169E+03  0.84715935503E+02  0.64588513866E+03  0.19200000000E+03 0.  0.
   -5000001    1    1    2    0    0 -0.34038215015E+03  0.50721476169E+03  0.71808887532E+01  0.64034552218E+03  0.19200000000E+03 0.  0.
<mgrwt>
<rscale>  0 0.12829436E+04</rscale>
<asrwt>0</asrwt>
<pdfrwt beam="1">  1        1 0.85309559E-01 0.12829436E+04</pdfrwt>
<pdfrwt beam="2">  1       -1 0.98437678E-01 0.12829436E+04</pdfrwt>
<totfact> 0.37349548E+01</totfact>
</mgrwt>
</event>
<event>
 4    1  0.7145298E-006  0.4515232E+03  0.7818608E-02  0.1027269E+00
          1   -1    0    0  501    0  0.00000000000E+00  0.00000000000E+00  0.17098550793E+04  0.17098550793E+04  0.50400000000E-02 0. -1.
         -1   -1    0    0    0  501 -0.00000000000E+00 -0.00000000000E+00 -0.29808555650E+02  0.29808556076E+02  0.50400000000E-02 0.  1.
    5000001    1    1    2    0    0  0.98905042761E+02 -0.68972759078E+01  0.10919239730E+04  0.11131000596E+04  0.19200000000E+03 0.  0.
   -5000001    1    1    2    0    0 -0.98905042761E+02  0.68972759078E+01  0.58812255065E+03  0.62656357577E+03  0.19200000000E+03 0.  0.
<mgrwt>
<rscale>  0 0.45152325E+03</rscale>
<asrwt>0</asrwt>
<pdfrwt beam="1">  1        1 0.24426508E+00 0.45152325E+03</pdfrwt>
<pdfrwt beam="2">  1       -1 0.42583639E-02 0.45152325E+03</pdfrwt>
<totfact> 0.13919387E+03</totfact>
</mgrwt>
</event>
<event>
 4    1  0.7145298E-006  0.8385658E+03  0.7818608E-02  0.9505813E-01
         -1   -1    0    0    0  501 -0.00000000000E+00  0.00000000000E+00  0.52005397936E+03  0.52005397939E+03  0.50400000000E-02 0. -1.
          1   -1    0    0  501    0  0.00000000000E+00 -0.00000000000E+00 -0.33803824867E+03  0.33803824870E+03  0.50400000000E-02 0.  1.
    5000001    1    1    2    0    0  0.44869623881E+02 -0.16036776971E+03  0.43224410943E+03  0.50142803556E+03  0.19200000000E+03 0.  0.
   -5000001    1    1    2    0    0 -0.44869623881E+02  0.16036776971E+03 -0.25022837874E+03  0.35666419253E+03  0.19200000000E+03 0.  0.
<mgrwt>
<rscale>  0 0.83856577E+03</rscale>
<asrwt>0</asrwt>
<pdfrwt beam="1">  1        1 0.48291178E-01 0.83856577E+03</pdfrwt>
<pdfrwt beam="2">  1       -1 0.74293426E-01 0.83856577E+03</pdfrwt>
<totfact> 0.15224166E+02</totfact>
</mgrwt>
</event>
<event>
 4    1  0.7145298E-006  0.4692756E+03  0.7818608E-02  0.1022125E+00
         -1   -1    0    0    0  501 -0.00000000000E+00  0.00000000000E+00  0.79084573626E+02  0.79084573787E+02  0.50400000000E-02 0. -1.
          1   -1    0    0  501    0  0.00000000000E+00 -0.00000000000E+00 -0.69615217331E+03  0.69615217333E+03  0.50400000000E-02 0.  1.
    5000001    1    1    2    0    0  0.16490030773E+02 -0.13355373396E+03 -0.32352750991E+03  0.39955296350E+03  0.19200000000E+03 0.  0.
   -5000001    1    1    2    0    0 -0.16490030773E+02  0.13355373396E+03 -0.29354008978E+03  0.37568378362E+03  0.19200000000E+03 0.  0.
<mgrwt>
<rscale>  0 0.46927560E+03</rscale>
<asrwt>0</asrwt>
<pdfrwt beam="1">  1        1 0.99450307E-01 0.46927560E+03</pdfrwt>
<pdfrwt beam="2">  1       -1 0.11297797E-01 0.46927560E+03</pdfrwt>
<totfact> 0.15984116E+03</totfact>
</mgrwt>
</event>
<event>
 4    1  0.7145298E-006  0.4941582E+03  0.7818608E-02  0.1015315E+00
          1   -1    0    0  501    0  0.00000000000E+00  0.00000000000E+00  0.11216701166E+04  0.11216701166E+04  0.50400000000E-02 0.  1.
         -1   -1    0    0    0  501 -0.00000000000E+00 -0.00000000000E+00 -0.54426057797E+02  0.54426058031E+02  0.50400000000E-02 0. -1.
    5000001    1    1    2    0    0  0.14563415824E+03  0.32972087971E+02  0.63702515458E+03  0.68188086511E+03  0.19200000000E+03 0.  0.
   -5000001    1    1    2    0    0 -0.14563415824E+03 -0.32972087971E+02  0.43021890425E+03  0.49421530956E+03  0.19200000000E+03 0.  0.
<mgrwt>
<rscale>  0 0.49415820E+03</rscale>
<asrwt>0</asrwt>
<pdfrwt beam="1">  1        1 0.16023857E+00 0.49415820E+03</pdfrwt>
<pdfrwt beam="2">  1       -1 0.77751522E-02 0.49415820E+03</pdfrwt>
<totfact> 0.13347314E+03</totfact>
</mgrwt>
</event>
<event>
 4    1  0.7145298E-006  0.6695227E+03  0.7818608E-02  0.9770820E-01
         -1   -1    0    0    0  501 -0.00000000000E+00  0.00000000000E+00  0.43203545543E+03  0.43203545546E+03  0.50400000000E-02 0. -1.
          1   -1    0    0  501    0  0.00000000000E+00 -0.00000000000E+00 -0.25938882477E+03  0.25938882482E+03  0.50400000000E-02 0.  1.
    5000001    1    1    2    0    0  0.91535423350E+02  0.22899101078E+03 -0.37539964540E+02  0.31478383962E+03  0.19200000000E+03 0.  0.
   -5000001    1    1    2    0    0 -0.91535423350E+02 -0.22899101078E+03  0.21018659520E+03  0.37664044067E+03  0.19200000000E+03 0.  0.
<mgrwt>
<rscale>  0 0.66952272E+03</rscale>
<asrwt>0</asrwt>
<pdfrwt beam="1">  1        1 0.37055546E-01 0.66952272E+03</pdfrwt>
<pdfrwt beam="2">  1       -1 0.61719352E-01 0.66952272E+03</pdfrwt>
<totfact> 0.31475652E+02</totfact>
</mgrwt>
</event>
<event>
 4    1  0.7145298E-006  0.9026845E+03  0.7818608E-02  0.9422232E-01
         -1   -1    0    0    0  501 -0.00000000000E+00  0.00000000000E+00  0.17724335664E+04  0.17724335664E+04  0.50400000000E-02 0. -1.
          1   -1    0    0  501    0  0.00000000000E+00 -0.00000000000E+00 -0.11493228044E+03  0.11493228055E+03  0.50400000000E-02 0.  1.
    5000001    1    1    2    0    0  0.35877849721E+03  0.11020284075E+03  0.49174853521E+03  0.64772470854E+03  0.19200000000E+03 0.  0.
   -5000001    1    1    2    0    0 -0.35877849721E+03 -0.11020284075E+03  0.11657527507E+04  0.12396411384E+04  0.19200000000E+03 0.  0.
<mgrwt>
<rscale>  0 0.90268451E+03</rscale>
<asrwt>0</asrwt>
<pdfrwt beam="1">  1        1 0.16418898E-01 0.90268451E+03</pdfrwt>
<pdfrwt beam="2">  1       -1 0.25320478E+00 0.90268451E+03</pdfrwt>
<totfact> 0.23107026E+01</totfact>
</mgrwt>
</event>
<event>
 4    1  0.7145298E-006  0.7011232E+03  0.7818608E-02  0.9715313E-01
          1   -1    0    0  501    0  0.00000000000E+00  0.00000000000E+00  0.15452595324E+04  0.15452595324E+04  0.50400000000E-02 0.  1.
         -1   -1    0    0    0  501 -0.00000000000E+00 -0.00000000000E+00 -0.79529315811E+02  0.79529315971E+02  0.50400000000E-02 0. -1.
    5000001    1    1    2    0    0 -0.28322941327E+03  0.48457668697E+02  0.86922618384E+03  0.93540643833E+03  0.19200000000E+03 0.  0.
   -5000001    1    1    2    0    0  0.28322941327E+03 -0.48457668697E+02  0.59650403274E+03  0.68938241004E+03  0.19200000000E+03 0.  0.
<mgrwt>
<rscale>  0 0.70112319E+03</rscale>
<asrwt>0</asrwt>
<pdfrwt beam="1">  1        1 0.22075137E+00 0.70112319E+03</pdfrwt>
<pdfrwt beam="2">  1       -1 0.11361330E-01 0.70112319E+03</pdfrwt>
<totfact> 0.38124558E+02</totfact>
</mgrwt>
</event>
<event>
 4    1  0.7145298E-006  0.8396975E+03  0.7818608E-02  0.9504270E-01
         -1   -1    0    0    0  501 -0.00000000000E+00  0.00000000000E+00  0.16317410876E+03  0.16317410884E+03  0.50400000000E-02 0. -1.
          1   -1    0    0  501    0  0.00000000000E+00 -0.00000000000E+00 -0.10802752769E+04  0.10802752769E+04  0.50400000000E-02 0.  1.
    5000001    1    1    2    0    0 -0.32751845403E+03  0.15767076200E+03 -0.58490409902E+03  0.71491622724E+03  0.19200000000E+03 0.  0.
   -5000001    1    1    2    0    0  0.32751845403E+03 -0.15767076200E+03 -0.33219706913E+03  0.52853315852E+03  0.19200000000E+03 0.  0.
<mgrwt>
<rscale>  0 0.83969746E+03</rscale>
<asrwt>0</asrwt>
<pdfrwt beam="1">  1        1 0.15432504E+00 0.83969746E+03</pdfrwt>
<pdfrwt beam="2">  1       -1 0.23310588E-01 0.83969746E+03</pdfrwt>
<totfact> 0.23925439E+02</totfact>
</mgrwt>
</event>
<event>
 4    1  0.7145298E-006  0.5670774E+03  0.7818608E-02  0.9976167E-01
         -1   -1    0    0    0  501 -0.00000000000E+00  0.00000000000E+00  0.21446539534E+03  0.21446539540E+03  0.50400000000E-02 0. -1.
          1   -1    0    0  501    0  0.00000000000E+00 -0.00000000000E+00 -0.37485852498E+03  0.37485852502E+03  0.50400000000E-02 0.  1.
    5000001    1    1    2    0    0 -0.84816979066E+02 -0.18940102355E+03 -0.10257054514E+03  0.30075136640E+03  0.19200000000E+03 0.  0.
   -5000001    1    1    2    0    0  0.84816979066E+02  0.18940102355E+03 -0.57822584497E+02  0.28857255402E+03  0.19200000000E+03 0.  0.
<mgrwt>
<rscale>  0 0.56707736E+03</rscale>
<asrwt>0</asrwt>
<pdfrwt beam="1">  1        1 0.53551217E-01 0.56707736E+03</pdfrwt>
<pdfrwt beam="2">  1       -1 0.30637914E-01 0.56707736E+03</pdfrwt>
<totfact> 0.71401323E+02</totfact>
</mgrwt>
</event>
<event>
 4    1  0.7145298E-006  0.7575276E+03  0.7818608E-02  0.9623614E-01
          1   -1    0    0  501    0  0.00000000000E+00  0.00000000000E+00  0.34905184976E+03  0.34905184979E+03  0.50400000000E-02 0. -1.
         -1   -1    0    0    0  501 -0.00000000000E+00 -0.00000000000E+00 -0.41100493419E+03  0.41100493422E+03  0.50400000000E-02 0.  1.
    5000001    1    1    2    0    0 -0.22026279448E+02  0.24993900326E+03 -0.24058398250E+03  0.39711373053E+03  0.19200000000E+03 0.  0.
   -5000001    1    1    2    0    0  0.22026279448E+02 -0.24993900326E+03  0.17863089807E+03  0.36294305349E+03  0.19200000000E+03 0.  0.
<mgrwt>
<rscale>  0 0.75752764E+03</rscale>
<asrwt>0</asrwt>
<pdfrwt beam="1">  1        1 0.49864550E-01 0.75752764E+03</pdfrwt>
<pdfrwt beam="2">  1       -1 0.58714990E-01 0.75752764E+03</pdfrwt>
<totfact> 0.23569593E+02</totfact>
</mgrwt>
</event>
<event>
 4    1  0.7145298E-006  0.6765886E+03  0.7818608E-02  0.9758128E-01
         -1   -1    0    0    0  501 -0.00000000000E+00  0.00000000000E+00  0.78982126576E+02  0.78982126737E+02  0.50400000000E-02 0. -1.
          1   -1    0    0  501    0  0.00000000000E+00 -0.00000000000E+00 -0.14489737066E+04  0.14489737066E+04  0.50400000000E-02 0.  1.
    5000001    1    1    2    0    0  0.15364412675E+03 -0.19092148713E+03 -0.98392729915E+03  0.10320050688E+04  0.19200000000E+03 0.  0.
   -5000001    1    1    2    0    0 -0.15364412675E+03  0.19092148713E+03 -0.38606428090E+03  0.49595076461E+03  0.19200000000E+03 0.  0.
<mgrwt>
<rscale>  0 0.67658857E+03</rscale>
<asrwt>0</asrwt>
<pdfrwt beam="1">  1        1 0.20699623E+00 0.67658857E+03</pdfrwt>
<pdfrwt beam="2">  1       -1 0.11283162E-01 0.67658857E+03</pdfrwt>
<totfact> 0.44528942E+02</totfact>
</mgrwt>
</event>
<event>
 4    1  0.7145298E-006  0.4405271E+03  0.7818608E-02  0.1030585E+00
         -1   -1    0    0    0  501 -0.00000000000E+00  0.00000000000E+00  0.91801956699E+02  0.91801956837E+02  0.50400000000E-02 0. -1.
          1   -1    0    0  501    0  0.00000000000E+00 -0.00000000000E+00 -0.52848591354E+03  0.52848591357E+03  0.50400000000E-02 0.  1.
    5000001    1    1    2    0    0  0.67129913565E+02  0.98132757691E+01 -0.10012112650E+03  0.22691620843E+03  0.19200000000E+03 0.  0.
   -5000001    1    1    2    0    0 -0.67129913565E+02 -0.98132757691E+01 -0.33656283034E+03  0.39337166197E+03  0.19200000000E+03 0.  0.
<mgrwt>
<rscale>  0 0.44052714E+03</rscale>
<asrwt>0</asrwt>
<pdfrwt beam="1">  1        1 0.75497986E-01 0.44052714E+03</pdfrwt>
<pdfrwt beam="2">  1       -1 0.13114566E-01 0.44052714E+03</pdfrwt>
<totfact> 0.18523846E+03</totfact>
</mgrwt>
</event>
<event>
 4    1  0.7145298E-006  0.4873532E+03  0.7818608E-02  0.1017134E+00
          1   -1    0    0  501    0  0.00000000000E+00  0.00000000000E+00  0.38674452395E+02  0.38674452723E+02  0.50400000000E-02 0.  1.
         -1   -1    0    0    0  501 -0.00000000000E+00 -0.00000000000E+00 -0.15353363320E+04  0.15353363320E+04  0.50400000000E-02 0. -1.
    5000001    1    1    2    0    0 -0.12722484173E+03  0.77456290816E+02 -0.80688187716E+03  0.84267906170E+03  0.19200000000E+03 0.  0.
   -5000001    1    1    2    0    0  0.12722484173E+03 -0.77456290816E+02 -0.68978000245E+03  0.73133172303E+03  0.19200000000E+03 0.  0.
<mgrwt>
<rscale>  0 0.48735323E+03</rscale>
<asrwt>0</asrwt>
<pdfrwt beam="1">  1        1 0.55249228E-02 0.48735323E+03</pdfrwt>
<pdfrwt beam="2">  1       -1 0.21933372E+00 0.48735323E+03</pdfrwt>
<totfact> 0.17798472E+02</totfact>
</mgrwt>
</event>
<event>
 4    1  0.7145298E-006  0.5576098E+03  0.7818608E-02  0.9997478E-01
          1   -1    0    0  501    0  0.00000000000E+00  0.00000000000E+00  0.14783421416E+04  0.14783421416E+04  0.50400000000E-02 0.  1.
         -1   -1    0    0    0  501 -0.00000000000E+00 -0.00000000000E+00 -0.52580628615E+02  0.52580628856E+02  0.50400000000E-02 0. -1.
    5000001    1    1    2    0    0  0.69117286368E+02 -0.13492769141E+03  0.34570567650E+03  0.42350808251E+03  0.19200000000E+03 0.  0.
   -5000001    1    1    2    0    0 -0.69117286368E+02  0.13492769141E+03  0.10800558365E+04  0.11074146880E+04  0.19200000000E+03 0.  0.
<mgrwt>
<rscale>  0 0.55760975E+03</rscale>
<asrwt>0</asrwt>
<pdfrwt beam="1">  1        1 0.21119173E+00 0.55760975E+03</pdfrwt>
<pdfrwt beam="2">  1       -1 0.75115184E-02 0.55760975E+03</pdfrwt>
<totfact> 0.81303863E+02</totfact>
</mgrwt>
</event>
<event>
 4    1  0.7145298E-006  0.5829651E+03  0.7818608E-02  0.9941392E-01
         -1   -1    0    0    0  501 -0.00000000000E+00  0.00000000000E+00  0.60194176027E+02  0.60194176238E+02  0.50400000000E-02 0. -1.
          1   -1    0    0  501    0  0.00000000000E+00 -0.00000000000E+00 -0.14114669255E+04  0.14114669255E+04  0.50400000000E-02 0.  1.
    5000001    1    1    2    0    0  0.18148298170E+03 -0.10130488077E+02 -0.98542745216E+03  0.10202793553E+04  0.19200000000E+03 0.  0.
   -5000001    1    1    2    0    0 -0.18148298170E+03  0.10130488077E+02 -0.36584529732E+03  0.45138174643E+03  0.19200000000E+03 0.  0.
<mgrwt>
<rscale>  0 0.58296514E+03</rscale>
<asrwt>0</asrwt>
<pdfrwt beam="1">  1        1 0.20163811E+00 0.58296514E+03</pdfrwt>
<pdfrwt beam="2">  1       -1 0.85991689E-02 0.58296514E+03</pdfrwt>
<totfact> 0.72658816E+02</totfact>
</mgrwt>
</event>
<event>
 4    1  0.7145298E-006  0.7726907E+03  0.7818608E-02  0.9600410E-01
          1   -1    0    0  501    0  0.00000000000E+00  0.00000000000E+00  0.16753458579E+04  0.16753458579E+04  0.50400000000E-02 0.  1.
         -1   -1    0    0    0  501 -0.00000000000E+00 -0.00000000000E+00 -0.89093677380E+02  0.89093677523E+02  0.50400000000E-02 0. -1.
    5000001    1    1    2    0    0 -0.27831584863E+03 -0.88502597930E+02  0.41717076516E+03  0.54423144777E+03  0.19200000000E+03 0.  0.
   -5000001    1    1    2    0    0  0.27831584863E+03  0.88502597930E+02  0.11690814153E+04  0.12202080876E+04  0.19200000000E+03 0.  0.
<mgrwt>
<rscale>  0 0.77269068E+03</rscale>
<asrwt>0</asrwt>
<pdfrwt beam="1">  1        1 0.23933511E+00 0.77269068E+03</pdfrwt>
<pdfrwt beam="2">  1       -1 0.12727669E-01 0.77269068E+03</pdfrwt>
<totfact> 0.26152360E+02</totfact>
</mgrwt>
</event>
<event>
 4    1  0.7145298E-006  0.6419485E+03  0.7818608E-02  0.9822006E-01
          1   -1    0    0  501    0  0.00000000000E+00  0.00000000000E+00  0.76485054776E+03  0.76485054778E+03  0.50400000000E-02 0.  1.
         -1   -1    0    0    0  501 -0.00000000000E+00 -0.00000000000E+00 -0.13469880739E+03  0.13469880748E+03  0.50400000000E-02 0. -1.
    5000001    1    1    2    0    0  0.13255558025E+03  0.14135652644E+03  0.55208611560E+03  0.61580494352E+03  0.19200000000E+03 0.  0.
   -5000001    1    1    2    0    0 -0.13255558025E+03 -0.14135652644E+03  0.78065624771E+02  0.28374441174E+03  0.19200000000E+03 0.  0.
<mgrwt>
<rscale>  0 0.64194846E+03</rscale>
<asrwt>0</asrwt>
<pdfrwt beam="1">  1        1 0.10926436E+00 0.64194846E+03</pdfrwt>
<pdfrwt beam="2">  1       -1 0.19242687E-01 0.64194846E+03</pdfrwt>
<totfact> 0.58634660E+02</totfact>
</mgrwt>
</event>
<event>
 4    1  0.7145298E-006  0.5364925E+03  0.7818608E-02  0.1004670E+00
         -1   -1    0    0    0  501 -0.00000000000E+00  0.00000000000E+00  0.16549427409E+03  0.16549427417E+03  0.50400000000E-02 0. -1.
          1   -1    0    0  501    0  0.00000000000E+00 -0.00000000000E+00 -0.43479487399E+03  0.43479487402E+03  0.50400000000E-02 0.  1.
    5000001    1    1    2    0    0  0.14271686890E+03  0.11665881164E+03 -0.97293322658E+02  0.28338555650E+03  0.19200000000E+03 0.  0.
   -5000001    1    1    2    0    0 -0.14271686890E+03 -0.11665881164E+03 -0.17200727724E+03  0.31690359169E+03  0.19200000000E+03 0.  0.
<mgrwt>
<rscale>  0 0.53649254E+03</rscale>
<asrwt>0</asrwt>
<pdfrwt beam="1">  1        1 0.62113553E-01 0.53649254E+03</pdfrwt>
<pdfrwt beam="2">  1       -1 0.23642039E-01 0.53649254E+03</pdfrwt>
<totfact> 0.91662579E+02</totfact>
</mgrwt>
</event>
<event>
 4    1  0.7145298E-006  0.6726439E+03  0.7818608E-02  0.9765193E-01
          1   -1    0    0  501    0  0.00000000000E+00  0.00000000000E+00  0.24449273940E+04  0.24449273940E+04  0.50400000000E-02 0.  1.
         -1   -1    0    0    0  501 -0.00000000000E+00 -0.00000000000E+00 -0.46264132654E+02  0.46264132928E+02  0.50400000000E-02 0. -1.
    5000001    1    1    2    0    0 -0.13973865912E+03 -0.19120528602E+03  0.67344792381E+03  0.73924451999E+03  0.19200000000E+03 0.  0.
   -5000001    1    1    2    0    0  0.13973865912E+03  0.19120528602E+03  0.17252153375E+04  0.17519470069E+04  0.19200000000E+03 0.  0.
<mgrwt>
<rscale>  0 0.67264387E+03</rscale>
<asrwt>0</asrwt>
<pdfrwt beam="1">  1        1 0.34927548E+00 0.67264387E+03</pdfrwt>
<pdfrwt beam="2">  1       -1 0.66091592E-02 0.67264387E+03</pdfrwt>
<totfact> 0.24574556E+02</totfact>
</mgrwt>
</event>
<event>
 4    1  0.7145298E-006  0.5062187E+03  0.7818608E-02  0.1012168E+00
         -1   -1    0    0    0  501 -0.00000000000E+00  0.00000000000E+00  0.50982477478E+02  0.50982477727E+02  0.50400000000E-02 0. -1.
          1   -1    0    0  501    0  0.00000000000E+00 -0.00000000000E+00 -0.12565952014E+04  0.12565952014E+04  0.50400000000E-02 0.  1.
    5000001    1    1    2    0    0 -0.11204149880E+03  0.94977127813E+02 -0.40905532381E+03  0.47514651445E+03  0.19200000000E+03 0.  0.
   -5000001    1    1    2    0    0  0.11204149880E+03 -0.94977127813E+02 -0.79655740007E+03  0.83243116464E+03  0.19200000000E+03 0.  0.
<mgrwt>
<rscale>  0 0.50621867E+03</rscale>
<asrwt>0</asrwt>
<pdfrwt beam="1">  1        1 0.17951358E+00 0.50621867E+03</pdfrwt>
<pdfrwt beam="2">  1       -1 0.72832119E-02 0.50621867E+03</pdfrwt>
<totfact> 0.11938947E+03</totfact>
</mgrwt>
</event>
<event>
 4    1  0.7145298E-006  0.6161118E+03  0.7818608E-02  0.9872532E-01
          1   -1    0    0  501    0  0.00000000000E+00  0.00000000000E+00  0.17495439315E+03  0.17495439322E+03  0.50400000000E-02 0.  1.
         -1   -1    0    0    0  501 -0.00000000000E+00 -0.00000000000E+00 -0.54241818284E+03  0.54241818286E+03  0.50400000000E-02 0. -1.
    5000001    1    1    2    0    0  0.16685950489E+03  0.66034986901E+02  0.34061020940E+01  0.26282753927E+03  0.19200000000E+03 0.  0.
   -5000001    1    1    2    0    0 -0.16685950489E+03 -0.66034986901E+02 -0.37086989178E+03  0.45454503682E+03  0.19200000000E+03 0.  0.
<mgrwt>
<rscale>  0 0.61611182E+03</rscale>
<asrwt>0</asrwt>
<pdfrwt beam="1">  1        1 0.24993485E-01 0.61611182E+03</pdfrwt>
<pdfrwt beam="2">  1       -1 0.77488311E-01 0.61611182E+03</pdfrwt>
<totfact> 0.33054573E+02</totfact>
</mgrwt>
</event>
<event>
 4    1  0.7145298E-006  0.1091649E+04  0.7818608E-02  0.9213370E-01
         -1   -1    0    0    0  501 -0.00000000000E+00  0.00000000000E+00  0.34302107060E+03  0.34302107064E+03  0.50400000000E-02 0. -1.
          1   -1    0    0  501    0  0.00000000000E+00 -0.00000000000E+00 -0.86853014920E+03  0.86853014921E+03  0.50400000000E-02 0.  1.
    5000001    1    1    2    0    0 -0.36101553348E+03 -0.27609388899E+03 -0.36604248633E+01  0.49339380789E+03  0.19200000000E+03 0.  0.
   -5000001    1    1    2    0    0  0.36101553348E+03  0.27609388899E+03 -0.52184865373E+03  0.71815741196E+03  0.19200000000E+03 0.  0.
<mgrwt>
<rscale>  0 0.10916486E+04</rscale>
<asrwt>0</asrwt>
<pdfrwt beam="1">  1        1 0.12407573E+00 0.10916486E+04</pdfrwt>
<pdfrwt beam="2">  1       -1 0.49003010E-01 0.10916486E+04</pdfrwt>
<totfact> 0.90756956E+01</totfact>
</mgrwt>
</event>
<event>
 4    1  0.7145298E-006  0.8830629E+03  0.7818608E-02  0.9447005E-01
         -1   -1    0    0    0  501 -0.00000000000E+00  0.00000000000E+00  0.43905921717E+02  0.43905922007E+02  0.50400000000E-02 0. -1.
          1   -1    0    0  501    0  0.00000000000E+00 -0.00000000000E+00 -0.44401764910E+04  0.44401764910E+04  0.50400000000E-02 0.  1.
    5000001    1    1    2    0    0 -0.12877161296E+03  0.37143386277E+03 -0.18959783382E+04  0.19458014035E+04  0.19200000000E+03 0.  0.
   -5000001    1    1    2    0    0  0.12877161296E+03 -0.37143386277E+03 -0.25002922310E+04  0.25382810095E+04  0.19200000000E+03 0.  0.
<mgrwt>
<rscale>  0 0.88306295E+03</rscale>
<asrwt>0</asrwt>
<pdfrwt beam="1">  1        1 0.63431064E+00 0.88306295E+03</pdfrwt>
<pdfrwt beam="2">  1       -1 0.62722774E-02 0.88306295E+03</pdfrwt>
<totfact> 0.10527888E+01</totfact>
</mgrwt>
</event>
<event>
 4    1  0.7145298E-006  0.9134588E+03  0.7818608E-02  0.9408912E-01
          1   -1    0    0  501    0  0.00000000000E+00  0.00000000000E+00  0.97545588725E+03  0.97545588726E+03  0.50400000000E-02 0.  1.
         -1   -1    0    0    0  501 -0.00000000000E+00 -0.00000000000E+00 -0.21385051918E+03  0.21385051924E+03  0.50400000000E-02 0. -1.
    5000001    1    1    2    0    0 -0.53181489459E+02 -0.11600698192E+03  0.89413989732E+03  0.92338293609E+03  0.19200000000E+03 0.  0.
   -5000001    1    1    2    0    0  0.53181489459E+02  0.11600698192E+03 -0.13253452925E+03  0.26592347042E+03  0.19200000000E+03 0.  0.
<mgrwt>
<rscale>  0 0.91345881E+03</rscale>
<asrwt>0</asrwt>
<pdfrwt beam="1">  1        1 0.13935084E+00 0.91345881E+03</pdfrwt>
<pdfrwt beam="2">  1       -1 0.30550074E-01 0.91345881E+03</pdfrwt>
<totfact> 0.17870493E+02</totfact>
</mgrwt>
</event>
<event>
 4    1  0.7145298E-006  0.6158907E+03  0.7818608E-02  0.9872976E-01
          1   -1    0    0  501    0  0.00000000000E+00  0.00000000000E+00  0.83403443984E+03  0.83403443985E+03  0.50400000000E-02 0.  1.
         -1   -1    0    0    0  501 -0.00000000000E+00 -0.00000000000E+00 -0.11370073751E+03  0.11370073762E+03  0.50400000000E-02 0. -1.
    5000001    1    1    2    0    0 -0.21970020059E+03  0.91200295355E+02  0.41734453784E+03  0.51732594685E+03  0.19200000000E+03 0.  0.
   -5000001    1    1    2    0    0  0.21970020059E+03 -0.91200295355E+02  0.30298916449E+03  0.43040923063E+03  0.19200000000E+03 0.  0.
<mgrwt>
<rscale>  0 0.61589068E+03</rscale>
<asrwt>0</asrwt>
<pdfrwt beam="1">  1        1 0.11914777E+00 0.61589068E+03</pdfrwt>
<pdfrwt beam="2">  1       -1 0.16242963E-01 0.61589068E+03</pdfrwt>
<totfact> 0.67857992E+02</totfact>
</mgrwt>
</event>
<event>
 4    1  0.7145298E-006  0.7500199E+03  0.7818608E-02  0.9635319E-01
          1   -1    0    0  501    0  0.00000000000E+00  0.00000000000E+00  0.10450952434E+04  0.10450952434E+04  0.50400000000E-02 0. -1.
         -1   -1    0    0    0  501 -0.00000000000E+00 -0.00000000000E+00 -0.13456425583E+03  0.13456425592E+03  0.50400000000E-02 0.  1.
    5000001    1    1    2    0    0 -0.20171166267E+03 -0.24129439127E+03  0.56488996829E+03  0.67444440423E+03  0.19200000000E+03 0.  0.
   -5000001    1    1    2    0    0  0.20171166267E+03  0.24129439127E+03  0.34564101931E+03  0.50521509513E+03  0.19200000000E+03 0.  0.
<mgrwt>
<rscale>  0 0.75001990E+03</rscale>
<asrwt>0</asrwt>
<pdfrwt beam="1">  1        1 0.14929932E+00 0.75001990E+03</pdfrwt>
<pdfrwt beam="2">  1       -1 0.19223465E-01 0.75001990E+03</pdfrwt>
<totfact> 0.35222899E+02</totfact>
</mgrwt>
</event>
<event>
 4    1  0.7145298E-006  0.5570624E+03  0.7818608E-02  0.9998724E-01
          1   -1    0    0  501    0  0.00000000000E+00  0.00000000000E+00  0.12304361535E+03  0.12304361546E+03  0.50400000000E-02 0.  1.
         -1   -1    0    0    0  501 -0.00000000000E+00 -0.00000000000E+00 -0.63050505589E+03  0.63050505591E+03  0.50400000000E-02 0. -1.
    5000001    1    1    2    0    0  0.13064294801E+03  0.77291284348E+02 -0.43356651040E+03  0.49788095107E+03  0.19200000000E+03 0.  0.
   -5000001    1    1    2    0    0 -0.13064294801E+03 -0.77291284348E+02 -0.73894930132E+02  0.25566772029E+03  0.19200000000E+03 0.  0.
<mgrwt>
<rscale>  0 0.55706237E+03</rscale>
<asrwt>0</asrwt>
<pdfrwt beam="1">  1        1 0.17577660E-01 0.55706237E+03</pdfrwt>
<pdfrwt beam="2">  1       -1 0.90072149E-01 0.55706237E+03</pdfrwt>
<totfact> 0.38127812E+02</totfact>
</mgrwt>
</event>
<event>
 4    1  0.7145298E-006  0.9982499E+03  0.7818608E-02  0.9310466E-01
          1   -1    0    0  501    0  0.00000000000E+00  0.00000000000E+00  0.12589985176E+04  0.12589985176E+04  0.50400000000E-02 0.  1.
         -1   -1    0    0    0  501 -0.00000000000E+00 -0.00000000000E+00 -0.19787610169E+03  0.19787610175E+03  0.50400000000E-02 0. -1.
    5000001    1    1    2    0    0 -0.45637209886E+03 -0.14745906668E+01  0.43844302088E+03  0.66134253575E+03  0.19200000000E+03 0.  0.
   -5000001    1    1    2    0    0  0.45637209886E+03  0.14745906668E+01  0.62267939501E+03  0.79553208358E+03  0.19200000000E+03 0.  0.
<mgrwt>
<rscale>  0 0.99824991E+03</rscale>
<asrwt>0</asrwt>
<pdfrwt beam="1">  1        1 0.17985693E+00 0.99824991E+03</pdfrwt>
<pdfrwt beam="2">  1       -1 0.28268015E-01 0.99824991E+03</pdfrwt>
<totfact> 0.12761938E+02</totfact>
</mgrwt>
</event>
<event>
 4    1  0.7145298E-006  0.4977258E+03  0.7818608E-02  0.1014374E+00
          1   -1    0    0  501    0  0.00000000000E+00  0.00000000000E+00  0.39494362148E+04  0.39494362148E+04  0.50400000000E-02 0.  1.
         -1   -1    0    0    0  501 -0.00000000000E+00 -0.00000000000E+00 -0.15681411497E+02  0.15681412307E+02  0.50400000000E-02 0. -1.
    5000001    1    1    2    0    0 -0.64016083622E+02  0.14167991603E+03  0.17282183146E+04  0.17457874443E+04  0.19200000000E+03 0.  0.
   -5000001    1    1    2    0    0  0.64016083622E+02 -0.14167991603E+03  0.22055364887E+04  0.22193301828E+04  0.19200000000E+03 0.  0.
<mgrwt>
<rscale>  0 0.49772577E+03</rscale>
<asrwt>0</asrwt>
<pdfrwt beam="1">  1        1 0.56420585E+00 0.49772577E+03</pdfrwt>
<pdfrwt beam="2">  1       -1 0.22401990E-02 0.49772577E+03</pdfrwt>
<totfact> 0.12888877E+02</totfact>
</mgrwt>
</event>
<event>
 4    1  0.7145298E-006  0.8719188E+03  0.7818608E-02  0.9461381E-01
          1   -1    0    0  501    0  0.00000000000E+00  0.00000000000E+00  0.13119358170E+04  0.13119358170E+04  0.50400000000E-02 0.  1.
         -1   -1    0    0    0  501 -0.00000000000E+00 -0.00000000000E+00 -0.14487035192E+03  0.14487035201E+03  0.50400000000E-02 0. -1.
    5000001    1    1    2    0    0 -0.23997104178E+03 -0.30727818386E+03  0.52588099722E+03  0.68221756530E+03  0.19200000000E+03 0.  0.
   -5000001    1    1    2    0    0  0.23997104178E+03  0.30727818386E+03  0.64118446781E+03  0.77458860367E+03  0.19200000000E+03 0.  0.
<mgrwt>
<rscale>  0 0.87191881E+03</rscale>
<asrwt>0</asrwt>
<pdfrwt beam="1">  1        1 0.18741940E+00 0.87191881E+03</pdfrwt>
<pdfrwt beam="2">  1       -1 0.20695765E-01 0.87191881E+03</pdfrwt>
<totfact> 0.20154101E+02</totfact>
</mgrwt>
</event>
<event>
 4    1  0.7145298E-006  0.4887291E+03  0.7818608E-02  0.1016763E+00
         -1   -1    0    0    0  501 -0.00000000000E+00  0.00000000000E+00  0.12790760497E+03  0.12790760507E+03  0.50400000000E-02 0. -1.
          1   -1    0    0  501    0  0.00000000000E+00 -0.00000000000E+00 -0.46685291431E+03  0.46685291433E+03  0.50400000000E-02 0.  1.
    5000001    1    1    2    0    0 -0.13969857933E+03  0.36865574941E+02 -0.11538630843E+03  0.26655724311E+03  0.19200000000E+03 0.  0.
   -5000001    1    1    2    0    0  0.13969857933E+03 -0.36865574941E+02 -0.22355900090E+03  0.32820327629E+03  0.19200000000E+03 0.  0.
<mgrwt>
<rscale>  0 0.48872912E+03</rscale>
<asrwt>0</asrwt>
<pdfrwt beam="1">  1        1 0.66693273E-01 0.48872912E+03</pdfrwt>
<pdfrwt beam="2">  1       -1 0.18272515E-01 0.48872912E+03</pdfrwt>
<totfact> 0.12801541E+03</totfact>
</mgrwt>
</event>
<event>
 4    1  0.7145298E-006  0.6965742E+03  0.7818608E-02  0.9723109E-01
          1   -1    0    0  501    0  0.00000000000E+00  0.00000000000E+00  0.59798443828E+03  0.59798443831E+03  0.50400000000E-02 0.  1.
         -1   -1    0    0    0  501 -0.00000000000E+00 -0.00000000000E+00 -0.20285462387E+03  0.20285462393E+03  0.50400000000E-02 0. -1.
    5000001    1    1    2    0    0  0.17596290135E+03 -0.98447930282E+02  0.43813430864E+03  0.51911521846E+03  0.19200000000E+03 0.  0.
   -5000001    1    1    2    0    0 -0.17596290135E+03  0.98447930282E+02 -0.43004494224E+02  0.28172384378E+03  0.19200000000E+03 0.  0.
<mgrwt>
<rscale>  0 0.69657421E+03</rscale>
<asrwt>0</asrwt>
<pdfrwt beam="1">  1        1 0.85426349E-01 0.69657421E+03</pdfrwt>
<pdfrwt beam="2">  1       -1 0.28979232E-01 0.69657421E+03</pdfrwt>
<totfact> 0.41882999E+02</totfact>
</mgrwt>
</event>
<event>
 4    1  0.7145298E-006  0.5234774E+03  0.7818608E-02  0.1007826E+00
          1   -1    0    0  501    0  0.00000000000E+00  0.00000000000E+00  0.15504365963E+03  0.15504365971E+03  0.50400000000E-02 0. -1.
         -1   -1    0    0    0  501 -0.00000000000E+00 -0.00000000000E+00 -0.44185717864E+03  0.44185717867E+03  0.50400000000E-02 0.  1.
    5000001    1    1    2    0    0  0.36450405792E+02 -0.16407234899E+03 -0.76969693061E+02  0.26652711201E+03  0.19200000000E+03 0.  0.
   -5000001    1    1    2    0    0 -0.36450405792E+02  0.16407234899E+03 -0.20984382595E+03  0.33037372637E+03  0.19200000000E+03 0.  0.
<mgrwt>
<rscale>  0 0.52347743E+03</rscale>
<asrwt>0</asrwt>
<pdfrwt beam="1">  1        1 0.22149094E-01 0.52347743E+03</pdfrwt>
<pdfrwt beam="2">  1       -1 0.63122454E-01 0.52347743E+03</pdfrwt>
<totfact> 0.58886668E+02</totfact>
</mgrwt>
</event>
<event>
 4    1  0.7145298E-006  0.5125023E+03  0.7818608E-02  0.1010566E+00
          1   -1    0    0  501    0  0.00000000000E+00  0.00000000000E+00  0.23538486778E+03  0.23538486783E+03  0.50400000000E-02 0.  1.
         -1   -1    0    0    0  501 -0.00000000000E+00 -0.00000000000E+00 -0.27896713112E+03  0.27896713116E+03  0.50400000000E-02 0. -1.
    5000001    1    1    2    0    0 -0.97080073478E+02  0.10365484001E+03 -0.11503380106E+03  0.26507667176E+03  0.19200000000E+03 0.  0.
   -5000001    1    1    2    0    0  0.97080073478E+02 -0.10365484001E+03  0.71451537725E+02  0.24927532723E+03  0.19200000000E+03 0.  0.
<mgrwt>
<rscale>  0 0.51250226E+03</rscale>
<asrwt>0</asrwt>
<pdfrwt beam="1">  1        1 0.33626410E-01 0.51250226E+03</pdfrwt>
<pdfrwt beam="2">  1       -1 0.39852447E-01 0.51250226E+03</pdfrwt>
<totfact> 0.81638567E+02</totfact>
</mgrwt>
</event>
<event>
 4    1  0.7145298E-006  0.4629618E+03  0.7818608E-02  0.1023926E+00
          1   -1    0    0  501    0  0.00000000000E+00  0.00000000000E+00  0.42613561964E+03  0.42613561967E+03  0.50400000000E-02 0.  1.
         -1   -1    0    0    0  501 -0.00000000000E+00 -0.00000000000E+00 -0.12574260381E+03  0.12574260391E+03  0.50400000000E-02 0. -1.
    5000001    1    1    2    0    0 -0.47182841126E+02 -0.11928399981E+03  0.13080915090E+03  0.26538637317E+03  0.19200000000E+03 0.  0.
   -5000001    1    1    2    0    0  0.47182841126E+02  0.11928399981E+03  0.16958386493E+03  0.28649185041E+03  0.19200000000E+03 0.  0.
<mgrwt>
<rscale>  0 0.46296178E+03</rscale>
<asrwt>0</asrwt>
<pdfrwt beam="1">  1        1 0.60876518E-01 0.46296178E+03</pdfrwt>
<pdfrwt beam="2">  1       -1 0.17963229E-01 0.46296178E+03</pdfrwt>
<totfact> 0.14839479E+03</totfact>
</mgrwt>
</event>
<event>
 4    1  0.7145298E-006  0.5517867E+03  0.7818608E-02  0.1001081E+00
         -1   -1    0    0    0  501 -0.00000000000E+00  0.00000000000E+00  0.96092287997E+02  0.96092288130E+02  0.50400000000E-02 0. -1.
          1   -1    0    0  501    0  0.00000000000E+00 -0.00000000000E+00 -0.79212544840E+03  0.79212544841E+03  0.50400000000E-02 0.  1.
    5000001    1    1    2    0    0 -0.16507416513E+03  0.88075945732E+02 -0.24312195041E+03  0.36191039634E+03  0.19200000000E+03 0.  0.
   -5000001    1    1    2    0    0  0.16507416513E+03 -0.88075945732E+02 -0.45291121000E+03  0.52630734020E+03  0.19200000000E+03 0.  0.
<mgrwt>
<rscale>  0 0.55178672E+03</rscale>
<asrwt>0</asrwt>
<pdfrwt beam="1">  1        1 0.11316077E+00 0.55178672E+03</pdfrwt>
<pdfrwt beam="2">  1       -1 0.13727470E-01 0.55178672E+03</pdfrwt>
<totfact> 0.96639613E+02</totfact>
</mgrwt>
</event>
<event>
 4    1  0.7145298E-006  0.6291077E+03  0.7818608E-02  0.9846792E-01
          1   -1    0    0  501    0  0.00000000000E+00  0.00000000000E+00  0.74941703038E+03  0.74941703039E+03  0.50400000000E-02 0. -1.
         -1   -1    0    0    0  501 -0.00000000000E+00 -0.00000000000E+00 -0.13202812639E+03  0.13202812649E+03  0.50400000000E-02 0.  1.
    5000001    1    1    2    0    0 -0.24622934778E+03  0.13976237891E+02  0.35834770876E+03  0.47550111178E+03  0.19200000000E+03 0.  0.
   -5000001    1    1    2    0    0  0.24622934778E+03 -0.13976237891E+02  0.25904119522E+03  0.40594404510E+03  0.19200000000E+03 0.  0.
<mgrwt>
<rscale>  0 0.62910771E+03</rscale>
<asrwt>0</asrwt>
<pdfrwt beam="1">  1        1 0.10705958E+00 0.62910771E+03</pdfrwt>
<pdfrwt beam="2">  1       -1 0.18861161E-01 0.62910771E+03</pdfrwt>
<totfact> 0.62525876E+02</totfact>
</mgrwt>
</event>
<event>
 4    1  0.7145298E-006  0.6572231E+03  0.7818608E-02  0.9793319E-01
         -1   -1    0    0    0  501 -0.00000000000E+00  0.00000000000E+00  0.85090671068E+02  0.85090671217E+02  0.50400000000E-02 0. -1.
          1   -1    0    0  501    0  0.00000000000E+00 -0.00000000000E+00 -0.12690646502E+04  0.12690646502E+04  0.50400000000E-02 0.  1.
    5000001    1    1    2    0    0  0.21274090047E+03  0.12611296265E+03 -0.79759984389E+03  0.85685044264E+03  0.19200000000E+03 0.  0.
   -5000001    1    1    2    0    0 -0.21274090047E+03 -0.12611296265E+03 -0.38637413526E+03  0.49730487880E+03  0.19200000000E+03 0.  0.
<mgrwt>
<rscale>  0 0.65722314E+03</rscale>
<asrwt>0</asrwt>
<pdfrwt beam="1">  1        1 0.18129494E+00 0.65722314E+03</pdfrwt>
<pdfrwt beam="2">  1       -1 0.12155811E-01 0.65722314E+03</pdfrwt>
<totfact> 0.52030602E+02</totfact>
</mgrwt>
</event>
<event>
 4    1  0.7145298E-006  0.7071791E+03  0.7818608E-02  0.9705033E-01
          1   -1    0    0  501    0  0.00000000000E+00  0.00000000000E+00  0.32947193194E+03  0.32947193198E+03  0.50400000000E-02 0. -1.
         -1   -1    0    0    0  501 -0.00000000000E+00 -0.00000000000E+00 -0.37947259021E+03  0.37947259024E+03  0.50400000000E-02 0.  1.
    5000001    1    1    2    0    0 -0.18200886746E+03  0.17903669718E+03 -0.17697098815E+03  0.36519049470E+03  0.19200000000E+03 0.  0.
   -5000001    1    1    2    0    0  0.18200886746E+03 -0.17903669718E+03  0.12697032988E+03  0.34375402753E+03  0.19200000000E+03 0.  0.
<mgrwt>
<rscale>  0 0.70717909E+03</rscale>
<asrwt>0</asrwt>
<pdfrwt beam="1">  1        1 0.47067419E-01 0.70717909E+03</pdfrwt>
<pdfrwt beam="2">  1       -1 0.54210370E-01 0.70717909E+03</pdfrwt>
<totfact> 0.29722967E+02</totfact>
</mgrwt>
</event>
<event>
 4    1  0.7145298E-006  0.6295573E+03  0.7818608E-02  0.9845913E-01
          1   -1    0    0  501    0  0.00000000000E+00  0.00000000000E+00  0.12838427263E+04  0.12838427263E+04  0.50400000000E-02 0.  1.
         -1   -1    0    0    0  501 -0.00000000000E+00 -0.00000000000E+00 -0.77178932407E+02  0.77178932571E+02  0.50400000000E-02 0. -1.
    5000001    1    1    2    0    0 -0.11102082545E+03  0.69517740022E+02  0.14440754617E+03  0.27363457248E+03  0.19200000000E+03 0.  0.
   -5000001    1    1    2    0    0  0.11102082545E+03 -0.69517740022E+02  0.10622562477E+04  0.10873870864E+04  0.19200000000E+03 0.  0.
<mgrwt>
<rscale>  0 0.62955734E+03</rscale>
<asrwt>0</asrwt>
<pdfrwt beam="1">  1        1 0.18340611E+00 0.62955734E+03</pdfrwt>
<pdfrwt beam="2">  1       -1 0.11025561E-01 0.62955734E+03</pdfrwt>
<totfact> 0.59489464E+02</totfact>
</mgrwt>
</event>
<event>
 4    1  0.7145298E-006  0.4621851E+03  0.7818608E-02  0.1024149E+00
         -1   -1    0    0    0  501 -0.00000000000E+00  0.00000000000E+00  0.47631234938E+02  0.47631235204E+02  0.50400000000E-02 0. -1.
          1   -1    0    0  501    0  0.00000000000E+00 -0.00000000000E+00 -0.11211923209E+04  0.11211923209E+04  0.50400000000E-02 0.  1.
    5000001    1    1    2    0    0 -0.10271413775E+03 -0.53839136199E+02 -0.39618309146E+03  0.45527342185E+03  0.19200000000E+03 0.  0.
   -5000001    1    1    2    0    0  0.10271413775E+03  0.53839136199E+02 -0.67737799451E+03  0.71355013428E+03  0.19200000000E+03 0.  0.
<mgrwt>
<rscale>  0 0.46218514E+03</rscale>
<asrwt>0</asrwt>
<pdfrwt beam="1">  1        1 0.16017032E+00 0.46218514E+03</pdfrwt>
<pdfrwt beam="2">  1       -1 0.68044628E-02 0.46218514E+03</pdfrwt>
<totfact> 0.16422818E+03</totfact>
</mgrwt>
</event>
<event>
 4    1  0.7145298E-006  0.7119234E+03  0.7818608E-02  0.9697056E-01
          1   -1    0    0  501    0  0.00000000000E+00  0.00000000000E+00  0.17897978530E+04  0.17897978530E+04  0.50400000000E-02 0.  1.
         -1   -1    0    0    0  501 -0.00000000000E+00 -0.00000000000E+00 -0.70794996379E+02  0.70794996558E+02  0.50400000000E-02 0. -1.
    5000001    1    1    2    0    0 -0.31219651384E+02 -0.28702133969E+03  0.64897780847E+03  0.73579352535E+03  0.19200000000E+03 0.  0.
   -5000001    1    1    2    0    0  0.31219651384E+02  0.28702133969E+03  0.10700250481E+04  0.11247993242E+04  0.19200000000E+03 0.  0.
<mgrwt>
<rscale>  0 0.71192340E+03</rscale>
<asrwt>0</asrwt>
<pdfrwt beam="1">  1        1 0.25568539E+00 0.71192340E+03</pdfrwt>
<pdfrwt beam="2">  1       -1 0.10113572E-01 0.71192340E+03</pdfrwt>
<totfact> 0.32111537E+02</totfact>
</mgrwt>
</event>
<event>
 4    1  0.7145298E-006  0.4411699E+03  0.7818608E-02  0.1030388E+00
         -1   -1    0    0    0  501 -0.00000000000E+00  0.00000000000E+00  0.14782922187E+02  0.14782923046E+02  0.50400000000E-02 0. -1.
          1   -1    0    0  501    0  0.00000000000E+00 -0.00000000000E+00 -0.32914821276E+04  0.32914821276E+04  0.50400000000E-02 0.  1.
    5000001    1    1    2    0    0  0.55862317521E+02  0.89198542573E+02 -0.14377108890E+04  0.14542879972E+04  0.19200000000E+03 0.  0.
   -5000001    1    1    2    0    0 -0.55862317521E+02 -0.89198542573E+02 -0.18389883164E+04  0.18519770534E+04  0.19200000000E+03 0.  0.
<mgrwt>
<rscale>  0 0.44116992E+03</rscale>
<asrwt>0</asrwt>
<pdfrwt beam="1">  1        1 0.47021126E+00 0.44116992E+03</pdfrwt>
<pdfrwt beam="2">  1       -1 0.21118482E-02 0.44116992E+03</pdfrwt>
<totfact> 0.40713044E+02</totfact>
</mgrwt>
</event>
<event>
 4    1  0.7145298E-006  0.4737860E+03  0.7818608E-02  0.1020857E+00
         -1   -1    0    0    0  501 -0.00000000000E+00  0.00000000000E+00  0.10649158054E+03  0.10649158066E+03  0.50400000000E-02 0. -1.
          1   -1    0    0  501    0  0.00000000000E+00 -0.00000000000E+00 -0.52697409396E+03  0.52697409399E+03  0.50400000000E-02 0.  1.
    5000001    1    1    2    0    0  0.35751982490E+02 -0.13357224891E+03 -0.22575046340E+03  0.32702755489E+03  0.19200000000E+03 0.  0.
   -5000001    1    1    2    0    0 -0.35751982490E+02  0.13357224891E+03 -0.19473205003E+03  0.30643811976E+03  0.19200000000E+03 0.  0.
<mgrwt>
<rscale>  0 0.47378605E+03</rscale>
<asrwt>0</asrwt>
<pdfrwt beam="1">  1        1 0.75282012E-01 0.47378605E+03</pdfrwt>
<pdfrwt beam="2">  1       -1 0.15213083E-01 0.47378605E+03</pdfrwt>
<totfact> 0.14663727E+03</totfact>
</mgrwt>
</event>
<event>
 4    1  0.7145298E-006  0.9557079E+03  0.7818608E-02  0.9358504E-01
          1   -1    0    0  501    0  0.00000000000E+00  0.00000000000E+00  0.13523626020E+04  0.13523626020E+04  0.50400000000E-02 0. -1.
         -1   -1    0    0    0  501 -0.00000000000E+00 -0.00000000000E+00 -0.16884848725E+03  0.16884848732E+03  0.50400000000E-02 0.  1.
    5000001    1    1    2    0    0  0.36621177774E+03 -0.17128763268E+02  0.97202593248E+03  0.10564577011E+04  0.19200000000E+03 0.  0.
   -5000001    1    1    2    0    0 -0.36621177774E+03  0.17128763268E+02  0.21148818229E+03  0.46475338830E+03  0.19200000000E+03 0.  0.
<mgrwt>
<rscale>  0 0.95570786E+03</rscale>
<asrwt>0</asrwt>
<pdfrwt beam="1">  1        1 0.19319466E+00 0.95570786E+03</pdfrwt>
<pdfrwt beam="2">  1       -1 0.24121212E-01 0.95570786E+03</pdfrwt>
<totfact> 0.14542083E+02</totfact>
</mgrwt>
</event>
<event>
 4    1  0.7145298E-006  0.4512546E+03  0.7818608E-02  0.1027349E+00
          1   -1    0    0  501    0  0.00000000000E+00  0.00000000000E+00  0.22031554264E+03  0.22031554270E+03  0.50400000000E-02 0.  1.
         -1   -1    0    0    0  501 -0.00000000000E+00 -0.00000000000E+00 -0.23106714233E+03  0.23106714238E+03  0.50400000000E-02 0. -1.
    5000001    1    1    2    0    0  0.50657836639E+02  0.74226790885E+02  0.71897984835E+02  0.22385073849E+03  0.19200000000E+03 0.  0.
   -5000001    1    1    2    0    0 -0.50657836639E+02 -0.74226790885E+02 -0.82649584520E+02  0.22753194659E+03  0.19200000000E+03 0.  0.
<mgrwt>
<rscale>  0 0.45125462E+03</rscale>
<asrwt>0</asrwt>
<pdfrwt beam="1">  1        1 0.31473649E-01 0.45125462E+03</pdfrwt>
<pdfrwt beam="2">  1       -1 0.33009592E-01 0.45125462E+03</pdfrwt>
<totfact> 0.12412291E+03</totfact>
</mgrwt>
</event>
<event>
 4    1  0.7145298E-006  0.5632913E+03  0.7818608E-02  0.9984635E-01
         -1   -1    0    0    0  501 -0.00000000000E+00  0.00000000000E+00  0.58661498407E+02  0.58661498624E+02  0.50400000000E-02 0. -1.
          1   -1    0    0  501    0  0.00000000000E+00 -0.00000000000E+00 -0.13522375379E+04  0.13522375379E+04  0.50400000000E-02 0.  1.
    5000001    1    1    2    0    0  0.72876348867E+02 -0.17366497825E+03 -0.43737916493E+03  0.51345401041E+03  0.19200000000E+03 0.  0.
   -5000001    1    1    2    0    0 -0.72876348867E+02  0.17366497825E+03 -0.85619687459E+03  0.89744502614E+03  0.19200000000E+03 0.  0.
<mgrwt>
<rscale>  0 0.56329133E+03</rscale>
<asrwt>0</asrwt>
<pdfrwt beam="1">  1        1 0.19317677E+00 0.56329133E+03</pdfrwt>
<pdfrwt beam="2">  1       -1 0.83802149E-02 0.56329133E+03</pdfrwt>
<totfact> 0.82775085E+02</totfact>
</mgrwt>
</event>
<event>
 4    1  0.7145298E-006  0.8022145E+03  0.7818608E-02  0.9556817E-01
         -1   -1    0    0    0  501 -0.00000000000E+00  0.00000000000E+00  0.14591647679E+03  0.14591647687E+03  0.50400000000E-02 0. -1.
          1   -1    0    0  501    0  0.00000000000E+00 -0.00000000000E+00 -0.11025967358E+04  0.11025967358E+04  0.50400000000E-02 0.  1.
    5000001    1    1    2    0    0  0.19136502342E+03  0.25546263825E+03 -0.24675846026E+03  0.44680585206E+03  0.19200000000E+03 0.  0.
   -5000001    1    1    2    0    0 -0.19136502342E+03 -0.25546263825E+03 -0.70992179876E+03  0.80170736063E+03  0.19200000000E+03 0.  0.
<mgrwt>
<rscale>  0 0.80221451E+03</rscale>
<asrwt>0</asrwt>
<pdfrwt beam="1">  1        1 0.15751381E+00 0.80221451E+03</pdfrwt>
<pdfrwt beam="2">  1       -1 0.20845212E-01 0.80221451E+03</pdfrwt>
<totfact> 0.27894440E+02</totfact>
</mgrwt>
</event>
<event>
 4    1  0.7145298E-006  0.6308653E+03  0.7818608E-02  0.9843362E-01
          1   -1    0    0  501    0  0.00000000000E+00  0.00000000000E+00  0.62814682356E+03  0.62814682358E+03  0.50400000000E-02 0.  1.
         -1   -1    0    0    0  501 -0.00000000000E+00 -0.00000000000E+00 -0.15839890443E+03  0.15839890451E+03  0.50400000000E-02 0. -1.
    5000001    1    1    2    0    0  0.34403665341E+02  0.19957201646E+03  0.51546773038E+02  0.28378455164E+03  0.19200000000E+03 0.  0.
   -5000001    1    1    2    0    0 -0.34403665341E+02 -0.19957201646E+03  0.41820114610E+03  0.50276117644E+03  0.19200000000E+03 0.  0.
<mgrwt>
<rscale>  0 0.63086534E+03</rscale>
<asrwt>0</asrwt>
<pdfrwt beam="1">  1        1 0.89735261E-01 0.63086534E+03</pdfrwt>
<pdfrwt beam="2">  1       -1 0.22628415E-01 0.63086534E+03</pdfrwt>
<totfact> 0.59710648E+02</totfact>
</mgrwt>
</event>
<event>
 4    1  0.7145298E-006  0.5602236E+03  0.7818608E-02  0.9991549E-01
         -1   -1    0    0    0  501 -0.00000000000E+00  0.00000000000E+00  0.25431649729E+04  0.25431649729E+04  0.50400000000E-02 0.  1.
          1   -1    0    0  501    0  0.00000000000E+00 -0.00000000000E+00 -0.30852348684E+02  0.30852349095E+02  0.50400000000E-02 0. -1.
    5000001    1    1    2    0    0 -0.18326376221E+03 -0.89382370150E+02  0.12337420713E+04  0.12651317374E+04  0.19200000000E+03 0.  0.
   -5000001    1    1    2    0    0  0.18326376221E+03  0.89382370150E+02  0.12785705529E+04  0.13088855845E+04  0.19200000000E+03 0.  0.
<mgrwt>
<rscale>  0 0.56022357E+03</rscale>
<asrwt>0</asrwt>
<pdfrwt beam="1">  1        1 0.44074792E-02 0.56022357E+03</pdfrwt>
<pdfrwt beam="2">  1       -1 0.36330922E+00 0.56022357E+03</pdfrwt>
<totfact> 0.29002049E+01</totfact>
</mgrwt>
</event>
<event>
 4    1  0.7145298E-006  0.7020914E+03  0.7818608E-02  0.9713662E-01
         -1   -1    0    0    0  501 -0.00000000000E+00  0.00000000000E+00  0.68675993700E+02  0.68675993885E+02  0.50400000000E-02 0. -1.
          1   -1    0    0  501    0  0.00000000000E+00 -0.00000000000E+00 -0.17944129032E+04  0.17944129032E+04  0.50400000000E-02 0.  1.
    5000001    1    1    2    0    0 -0.30378743523E+02 -0.25787116897E+03 -0.49758549533E+03  0.59319114373E+03  0.19200000000E+03 0.  0.
   -5000001    1    1    2    0    0  0.30378743523E+02  0.25787116897E+03 -0.12281514142E+04  0.12698977533E+04  0.19200000000E+03 0.  0.
<mgrwt>
<rscale>  0 0.70209142E+03</rscale>
<asrwt>0</asrwt>
<pdfrwt beam="1">  1        1 0.25634467E+00 0.70209142E+03</pdfrwt>
<pdfrwt beam="2">  1       -1 0.98108573E-02 0.70209142E+03</pdfrwt>
<totfact> 0.33493129E+02</totfact>
</mgrwt>
</event>
<event>
 4    1  0.7145298E-006  0.4264871E+03  0.7818608E-02  0.1034975E+00
         -1   -1    0    0    0  501 -0.00000000000E+00  0.00000000000E+00  0.52690233255E+03  0.52690233257E+03  0.50400000000E-02 0. -1.
          1   -1    0    0  501    0  0.00000000000E+00 -0.00000000000E+00 -0.86302148717E+02  0.86302148865E+02  0.50400000000E-02 0.  1.
    5000001    1    1    2    0    0 -0.71762527637E+02 -0.49234393327E+02  0.26655441797E+03  0.33983693677E+03  0.19200000000E+03 0.  0.
   -5000001    1    1    2    0    0  0.71762527637E+02  0.49234393327E+02  0.17404576586E+03  0.27336754466E+03  0.19200000000E+03 0.  0.
<mgrwt>
<rscale>  0 0.42648706E+03</rscale>
<asrwt>0</asrwt>
<pdfrwt beam="1">  1        1 0.12328879E-01 0.42648706E+03</pdfrwt>
<pdfrwt beam="2">  1       -1 0.75271760E-01 0.42648706E+03</pdfrwt>
<totfact> 0.89859685E+02</totfact>
</mgrwt>
</event>
<event>
 4    1  0.7145298E-006  0.5960192E+03  0.7818608E-02  0.9913700E-01
          1   -1    0    0  501    0  0.00000000000E+00  0.00000000000E+00  0.25021071279E+04  0.25021071279E+04  0.50400000000E-02 0.  1.
         -1   -1    0    0    0  501 -0.00000000000E+00 -0.00000000000E+00 -0.35493971201E+02  0.35493971559E+02  0.50400000000E-02 0. -1.
    5000001    1    1    2    0    0  0.39772567092E+02  0.17767202784E+03  0.64959037847E+03  0.70141347747E+03  0.19200000000E+03 0.  0.
   -5000001    1    1    2    0    0 -0.39772567092E+02 -0.17767202784E+03  0.18170227782E+04  0.18361876220E+04  0.19200000000E+03 0.  0.
<mgrwt>
<rscale>  0 0.59601919E+03</rscale>
<asrwt>0</asrwt>
<pdfrwt beam="1">  1        1 0.35744394E+00 0.59601919E+03</pdfrwt>
<pdfrwt beam="2">  1       -1 0.50705665E-02 0.59601919E+03</pdfrwt>
<totfact> 0.34278394E+02</totfact>
</mgrwt>
</event>
<event>
 4    1  0.7145298E-006  0.6138806E+03  0.7818608E-02  0.9877019E-01
         -1   -1    0    0    0  501 -0.00000000000E+00  0.00000000000E+00  0.10735318417E+03  0.10735318429E+03  0.50400000000E-02 0.  1.
          1   -1    0    0  501    0  0.00000000000E+00 -0.00000000000E+00 -0.87759258700E+03  0.87759258701E+03  0.50400000000E-02 0. -1.
    5000001    1    1    2    0    0  0.43891182840E+02 -0.23481557993E+03 -0.35810155199E+03  0.47134436885E+03  0.19200000000E+03 0.  0.
   -5000001    1    1    2    0    0 -0.43891182840E+02  0.23481557993E+03 -0.41213785084E+03  0.51360140245E+03  0.19200000000E+03 0.  0.
<mgrwt>
<rscale>  0 0.61388064E+03</rscale>
<asrwt>0</asrwt>
<pdfrwt beam="1">  1        1 0.12537037E+00 0.61388064E+03</pdfrwt>
<pdfrwt beam="2">  1       -1 0.15336170E-01 0.61388064E+03</pdfrwt>
<totfact> 0.68745759E+02</totfact>
</mgrwt>
</event>
<event>
 4    1  0.7145298E-006  0.6419659E+03  0.7818608E-02  0.9821972E-01
          1   -1    0    0  501    0  0.00000000000E+00  0.00000000000E+00  0.75517404018E+03  0.75517404020E+03  0.50400000000E-02 0.  1.
         -1   -1    0    0    0  501 -0.00000000000E+00 -0.00000000000E+00 -0.13643220281E+03  0.13643220291E+03  0.50400000000E-02 0. -1.
    5000001    1    1    2    0    0  0.22044753319E+03  0.13239174109E+03  0.31830403843E+03  0.45200237707E+03  0.19200000000E+03 0.  0.
   -5000001    1    1    2    0    0 -0.22044753319E+03 -0.13239174109E+03  0.30043779894E+03  0.43960386603E+03  0.19200000000E+03 0.  0.
<mgrwt>
<rscale>  0 0.64196591E+03</rscale>
<asrwt>0</asrwt>
<pdfrwt beam="1">  1        1 0.10788201E+00 0.64196591E+03</pdfrwt>
<pdfrwt beam="2">  1       -1 0.19490314E-01 0.64196591E+03</pdfrwt>
<totfact> 0.58519531E+02</totfact>
</mgrwt>
</event>
<event>
 4    1  0.7145298E-006  0.5126420E+03  0.7818608E-02  0.1010531E+00
         -1   -1    0    0    0  501 -0.00000000000E+00  0.00000000000E+00  0.48425827450E+02  0.48425827712E+02  0.50400000000E-02 0. -1.
          1   -1    0    0  501    0  0.00000000000E+00 -0.00000000000E+00 -0.13567232098E+04  0.13567232098E+04  0.50400000000E-02 0.  1.
    5000001    1    1    2    0    0  0.15161552099E+03 -0.44048838836E+02 -0.82551849142E+03  0.86213244115E+03  0.19200000000E+03 0.  0.
   -5000001    1    1    2    0    0 -0.15161552099E+03  0.44048838836E+02 -0.48277889095E+03  0.54301659639E+03  0.19200000000E+03 0.  0.
<mgrwt>
<rscale>  0 0.51264196E+03</rscale>
<asrwt>0</asrwt>
<pdfrwt beam="1">  1        1 0.19381758E+00 0.51264196E+03</pdfrwt>
<pdfrwt beam="2">  1       -1 0.69179762E-02 0.51264196E+03</pdfrwt>
<totfact> 0.11094065E+03</totfact>
</mgrwt>
</event>
<event>
 4    1  0.7145298E-006  0.5033263E+03  0.7818608E-02  0.1012914E+00
          1   -1    0    0  501    0  0.00000000000E+00  0.00000000000E+00  0.38258626801E+03  0.38258626805E+03  0.50400000000E-02 0. -1.
         -1   -1    0    0    0  501 -0.00000000000E+00 -0.00000000000E+00 -0.16554262028E+03  0.16554262036E+03  0.50400000000E-02 0.  1.
    5000001    1    1    2    0    0  0.17865012565E+02  0.13830984492E+03  0.19977541083E+03  0.31019830214E+03  0.19200000000E+03 0.  0.
   -5000001    1    1    2    0    0 -0.17865012565E+02 -0.13830984492E+03  0.17268236900E+02  0.23793058626E+03  0.19200000000E+03 0.  0.
<mgrwt>
<rscale>  0 0.50332627E+03</rscale>
<asrwt>0</asrwt>
<pdfrwt beam="1">  1        1 0.54655181E-01 0.50332627E+03</pdfrwt>
<pdfrwt beam="2">  1       -1 0.23648946E-01 0.50332627E+03</pdfrwt>
<totfact> 0.10828979E+03</totfact>
</mgrwt>
</event>
<event>
 4    1  0.7145298E-006  0.5877253E+03  0.7818608E-02  0.9931204E-01
         -1   -1    0    0    0  501 -0.00000000000E+00  0.00000000000E+00  0.13086909334E+03  0.13086909344E+03  0.50400000000E-02 0. -1.
          1   -1    0    0  501    0  0.00000000000E+00 -0.00000000000E+00 -0.65985990122E+03  0.65985990124E+03  0.50400000000E-02 0.  1.
    5000001    1    1    2    0    0 -0.58158645487E+02 -0.19990113483E+03 -0.15900002484E+03  0.32478900790E+03  0.19200000000E+03 0.  0.
   -5000001    1    1    2    0    0  0.58158645487E+02  0.19990113483E+03 -0.36999078304E+03  0.46593998679E+03  0.19200000000E+03 0.  0.
<mgrwt>
<rscale>  0 0.58772533E+03</rscale>
<asrwt>0</asrwt>
<pdfrwt beam="1">  1        1 0.94265698E-01 0.58772533E+03</pdfrwt>
<pdfrwt beam="2">  1       -1 0.18695585E-01 0.58772533E+03</pdfrwt>
<totfact> 0.76559826E+02</totfact>
</mgrwt>
</event>
<event>
 4    1  0.7145298E-006  0.5238643E+03  0.7818608E-02  0.1007731E+00
          1   -1    0    0  501    0  0.00000000000E+00  0.00000000000E+00  0.25887293288E+03  0.25887293293E+03  0.50400000000E-02 0.  1.
         -1   -1    0    0    0  501 -0.00000000000E+00 -0.00000000000E+00 -0.26502750746E+03  0.26502750750E+03  0.50400000000E-02 0. -1.
    5000001    1    1    2    0    0 -0.77411596522E+01 -0.16709600844E+03  0.58273882519E+02  0.26122949101E+03  0.19200000000E+03 0.  0.
   -5000001    1    1    2    0    0  0.77411596522E+01  0.16709600844E+03 -0.64428457091E+02  0.26267094943E+03  0.19200000000E+03 0.  0.
<mgrwt>
<rscale>  0 0.52386429E+03</rscale>
<asrwt>0</asrwt>
<pdfrwt beam="1">  1        1 0.36981848E-01 0.52386429E+03</pdfrwt>
<pdfrwt beam="2">  1       -1 0.37861072E-01 0.52386429E+03</pdfrwt>
<totfact> 0.79220472E+02</totfact>
</mgrwt>
</event>
<event>
 4    1  0.7145298E-006  0.5570240E+03  0.7818608E-02  0.9998811E-01
         -1   -1    0    0    0  501 -0.00000000000E+00  0.00000000000E+00  0.75202281984E+02  0.75202282153E+02  0.50400000000E-02 0. -1.
          1   -1    0    0  501    0  0.00000000000E+00 -0.00000000000E+00 -0.10314705765E+04  0.10314705765E+04  0.50400000000E-02 0.  1.
    5000001    1    1    2    0    0  0.45273758481E+02 -0.17814679344E+03 -0.64339324062E+03  0.69613565868E+03  0.19200000000E+03 0.  0.
   -5000001    1    1    2    0    0 -0.45273758481E+02  0.17814679344E+03 -0.31287505392E+03  0.41053720000E+03  0.19200000000E+03 0.  0.
<mgrwt>
<rscale>  0 0.55702403E+03</rscale>
<asrwt>0</asrwt>
<pdfrwt beam="1">  1        1 0.14735293E+00 0.55702403E+03</pdfrwt>
<pdfrwt beam="2">  1       -1 0.10743184E-01 0.55702403E+03</pdfrwt>
<totfact> 0.93128439E+02</totfact>
</mgrwt>
</event>
<event>
 4    1  0.7145298E-006  0.6469102E+03  0.7818608E-02  0.9812594E-01
         -1   -1    0    0    0  501 -0.00000000000E+00  0.00000000000E+00  0.23602858191E+03  0.23602858196E+03  0.50400000000E-02 0. -1.
          1   -1    0    0  501    0  0.00000000000E+00 -0.00000000000E+00 -0.44326495449E+03  0.44326495452E+03  0.50400000000E-02 0.  1.
    5000001    1    1    2    0    0  0.16140489246E+03 -0.18487431878E+03 -0.19473244314E+03  0.36744357046E+03  0.19200000000E+03 0.  0.
   -5000001    1    1    2    0    0 -0.16140489246E+03  0.18487431878E+03 -0.12503929435E+02  0.31184996602E+03  0.19200000000E+03 0.  0.
<mgrwt>
<rscale>  0 0.64691019E+03</rscale>
<asrwt>0</asrwt>
<pdfrwt beam="1">  1        1 0.63323565E-01 0.64691019E+03</pdfrwt>
<pdfrwt beam="2">  1       -1 0.33718369E-01 0.64691019E+03</pdfrwt>
<totfact> 0.48369209E+02</totfact>
</mgrwt>
</event>
<event>
 4    1  0.7145298E-006  0.5195992E+03  0.7818608E-02  0.1008786E+00
         -1   -1    0    0    0  501 -0.00000000000E+00  0.00000000000E+00  0.35464209075E+03  0.35464209079E+03  0.50400000000E-02 0. -1.
          1   -1    0    0  501    0  0.00000000000E+00 -0.00000000000E+00 -0.19032098668E+03  0.19032098674E+03  0.50400000000E-02 0.  1.
    5000001    1    1    2    0    0 -0.70730999212E+02  0.14962452056E+03  0.22447534167E+02  0.25447644919E+03  0.19200000000E+03 0.  0.
   -5000001    1    1    2    0    0  0.70730999212E+02 -0.14962452056E+03  0.14187356991E+03  0.29048662834E+03  0.19200000000E+03 0.  0.
<mgrwt>
<rscale>  0 0.51959920E+03</rscale>
<asrwt>0</asrwt>
<pdfrwt beam="1">  1        1 0.27188713E-01 0.51959920E+03</pdfrwt>
<pdfrwt beam="2">  1       -1 0.50663156E-01 0.51959920E+03</pdfrwt>
<totfact> 0.68961972E+02</totfact>
</mgrwt>
</event>
<event>
 4    1  0.7145298E-006  0.4820023E+03  0.7818608E-02  0.1018586E+00
          1   -1    0    0  501    0  0.00000000000E+00  0.00000000000E+00  0.13670395725E+04  0.13670395725E+04  0.50400000000E-02 0.  1.
         -1   -1    0    0    0  501 -0.00000000000E+00 -0.00000000000E+00 -0.42487096394E+02  0.42487096693E+02  0.50400000000E-02 0. -1.
    5000001    1    1    2    0    0 -0.96835217411E+01  0.11042209562E+03  0.38592095420E+03  0.44506830115E+03  0.19200000000E+03 0.  0.
   -5000001    1    1    2    0    0  0.96835217411E+01 -0.11042209562E+03  0.93863152188E+03  0.96445836803E+03  0.19200000000E+03 0.  0.
<mgrwt>
<rscale>  0 0.48200225E+03</rscale>
<asrwt>0</asrwt>
<pdfrwt beam="1">  1        1 0.19529136E+00 0.48200225E+03</pdfrwt>
<pdfrwt beam="2">  1       -1 0.60695855E-02 0.48200225E+03</pdfrwt>
<totfact> 0.13372690E+03</totfact>
</mgrwt>
</event>
<event>
 4    1  0.7145298E-006  0.1167388E+04  0.7818608E-02  0.9141891E-01
          1   -1    0    0  501    0  0.00000000000E+00  0.00000000000E+00  0.52416941133E+03  0.52416941135E+03  0.50400000000E-02 0.  1.
         -1   -1    0    0    0  501 -0.00000000000E+00 -0.00000000000E+00 -0.64997780251E+03  0.64997780253E+03  0.50400000000E-02 0. -1.
    5000001    1    1    2    0    0 -0.15352971202E+02 -0.53760999956E+03  0.58518722397E+02  0.57406329462E+03  0.19200000000E+03 0.  0.
   -5000001    1    1    2    0    0  0.15352971202E+02  0.53760999956E+03 -0.18432711358E+03  0.60008391926E+03  0.19200000000E+03 0.  0.
<mgrwt>
<rscale>  0 0.11673877E+04</rscale>
<asrwt>0</asrwt>
<pdfrwt beam="1">  1        1 0.74881344E-01 0.11673877E+04</pdfrwt>
<pdfrwt beam="2">  1       -1 0.92853972E-01 0.11673877E+04</pdfrwt>
<totfact> 0.51508427E+01</totfact>
</mgrwt>
</event>
<event>
 4    1  0.7145298E-006  0.6772558E+03  0.7818608E-02  0.9756938E-01
         -1   -1    0    0    0  501 -0.00000000000E+00  0.00000000000E+00  0.61916901696E+02  0.61916901901E+02  0.50400000000E-02 0. -1.
          1   -1    0    0  501    0  0.00000000000E+00 -0.00000000000E+00 -0.18519800889E+04  0.18519800889E+04  0.50400000000E-02 0.  1.
    5000001    1    1    2    0    0 -0.23389991672E+03  0.10242736600E+03 -0.12122992002E+04  0.12536881140E+04  0.19200000000E+03 0.  0.
   -5000001    1    1    2    0    0  0.23389991672E+03 -0.10242736600E+03 -0.57776398696E+03  0.66020887678E+03  0.19200000000E+03 0.  0.
<mgrwt>
<rscale>  0 0.67725584E+03</rscale>
<asrwt>0</asrwt>
<pdfrwt beam="1">  1        1 0.26456855E+00 0.67725584E+03</pdfrwt>
<pdfrwt beam="2">  1       -1 0.88452728E-02 0.67725584E+03</pdfrwt>
<totfact> 0.36366969E+02</totfact>
</mgrwt>
</event>
<event>
 4    1  0.7145298E-006  0.5006640E+03  0.7818608E-02  0.1013606E+00
          1   -1    0    0  501    0  0.00000000000E+00  0.00000000000E+00  0.89769277871E+03  0.89769277872E+03  0.50400000000E-02 0.  1.
         -1   -1    0    0    0  501 -0.00000000000E+00 -0.00000000000E+00 -0.69807969263E+02  0.69807969445E+02  0.50400000000E-02 0. -1.
    5000001    1    1    2    0    0  0.14624947762E+03 -0.26951348831E+02  0.29660642261E+03  0.38334665101E+03  0.19200000000E+03 0.  0.
   -5000001    1    1    2    0    0 -0.14624947762E+03  0.26951348831E+02  0.53127838684E+03  0.58415409716E+03  0.19200000000E+03 0.  0.
<mgrwt>
<rscale>  0 0.50066400E+03</rscale>
<asrwt>0</asrwt>
<pdfrwt beam="1">  1        1 0.12824182E+00 0.50066400E+03</pdfrwt>
<pdfrwt beam="2">  1       -1 0.99725675E-02 0.50066400E+03</pdfrwt>
<totfact> 0.13211635E+03</totfact>
</mgrwt>
</event>
<event>
 4    1  0.7145298E-006  0.5287822E+03  0.7818608E-02  0.1006528E+00
         -1   -1    0    0    0  501 -0.00000000000E+00  0.00000000000E+00  0.12780620857E+03  0.12780620867E+03  0.50400000000E-02 0. -1.
          1   -1    0    0  501    0  0.00000000000E+00 -0.00000000000E+00 -0.54694251712E+03  0.54694251715E+03  0.50400000000E-02 0.  1.
    5000001    1    1    2    0    0  0.19418813369E+02 -0.17121559575E+03 -0.28338895838E+03  0.38322992090E+03  0.19200000000E+03 0.  0.
   -5000001    1    1    2    0    0 -0.19418813369E+02  0.17121559575E+03 -0.13574735017E+03  0.29151880492E+03  0.19200000000E+03 0.  0.
<mgrwt>
<rscale>  0 0.52878218E+03</rscale>
<asrwt>0</asrwt>
<pdfrwt beam="1">  1        1 0.78134644E-01 0.52878218E+03</pdfrwt>
<pdfrwt beam="2">  1       -1 0.18258030E-01 0.52878218E+03</pdfrwt>
<totfact> 0.10360235E+03</totfact>
</mgrwt>
</event>
<event>
 4    1  0.7145298E-006  0.1124329E+04  0.7818608E-02  0.9181798E-01
          1   -1    0    0  501    0  0.00000000000E+00  0.00000000000E+00  0.87076842947E+03  0.87076842949E+03  0.50400000000E-02 0.  1.
         -1   -1    0    0    0  501 -0.00000000000E+00 -0.00000000000E+00 -0.36293117594E+03  0.36293117598E+03  0.50400000000E-02 0. -1.
    5000001    1    1    2    0    0 -0.40521458087E+03 -0.33893916222E+03  0.24371939439E+03  0.61265141430E+03  0.19200000000E+03 0.  0.
   -5000001    1    1    2    0    0  0.40521458087E+03  0.33893916222E+03  0.26411785914E+03  0.62104819117E+03  0.19200000000E+03 0.  0.
<mgrwt>
<rscale>  0 0.11243292E+04</rscale>
<asrwt>0</asrwt>
<pdfrwt beam="1">  1        1 0.12439549E+00 0.11243292E+04</pdfrwt>
<pdfrwt beam="2">  1       -1 0.51847311E-01 0.11243292E+04</pdfrwt>
<totfact> 0.81000963E+01</totfact>
</mgrwt>
</event>
<event>
 4    1  0.7145298E-006  0.6953024E+03  0.7818608E-02  0.9725300E-01
         -1   -1    0    0    0  501 -0.00000000000E+00  0.00000000000E+00  0.47252154791E+03  0.47252154794E+03  0.50400000000E-02 0.  1.
          1   -1    0    0  501    0  0.00000000000E+00 -0.00000000000E+00 -0.25577954324E+03  0.25577954328E+03  0.50400000000E-02 0. -1.
    5000001    1    1    2    0    0  0.18553507985E+03  0.64200331897E+02  0.33168484723E+03  0.43060862318E+03  0.19200000000E+03 0.  0.
   -5000001    1    1    2    0    0 -0.18553507985E+03 -0.64200331897E+02 -0.11494284256E+03  0.29769246804E+03  0.19200000000E+03 0.  0.
<mgrwt>
<rscale>  0 0.69530237E+03</rscale>
<asrwt>0</asrwt>
<pdfrwt beam="1">  1        1 0.36539935E-01 0.69530237E+03</pdfrwt>
<pdfrwt beam="2">  1       -1 0.67503077E-01 0.69530237E+03</pdfrwt>
<totfact> 0.26764932E+02</totfact>
</mgrwt>
</event>
<event>
 4    1  0.7145298E-006  0.4374491E+03  0.7818608E-02  0.1031532E+00
          1   -1    0    0  501    0  0.00000000000E+00  0.00000000000E+00  0.35498987367E+03  0.35498987371E+03  0.50400000000E-02 0. -1.
         -1   -1    0    0    0  501 -0.00000000000E+00 -0.00000000000E+00 -0.13476562178E+03  0.13476562188E+03  0.50400000000E-02 0.  1.
    5000001    1    1    2    0    0  0.45900788918E+02 -0.93557180849E+02  0.98022695384E+02  0.23944159480E+03  0.19200000000E+03 0.  0.
   -5000001    1    1    2    0    0 -0.45900788918E+02  0.93557180849E+02  0.12220155650E+03  0.25031390078E+03  0.19200000000E+03 0.  0.
<mgrwt>
<rscale>  0 0.43744911E+03</rscale>
<asrwt>0</asrwt>
<pdfrwt beam="1">  1        1 0.50712839E-01 0.43744911E+03</pdfrwt>
<pdfrwt beam="2">  1       -1 0.19252232E-01 0.43744911E+03</pdfrwt>
<totfact> 0.16774962E+03</totfact>
</mgrwt>
</event>
<event>
 4    1  0.7145298E-006  0.8777332E+03  0.7818608E-02  0.9453852E-01
         -1   -1    0    0    0  501 -0.00000000000E+00  0.00000000000E+00  0.94088384522E+02  0.94088384657E+02  0.50400000000E-02 0. -1.
          1   -1    0    0  501    0  0.00000000000E+00 -0.00000000000E+00 -0.20470527491E+04  0.20470527491E+04  0.50400000000E-02 0.  1.
    5000001    1    1    2    0    0  0.47222972843E+02  0.38030661281E+03 -0.74665047010E+03  0.86093789173E+03  0.19200000000E+03 0.  0.
   -5000001    1    1    2    0    0 -0.47222972843E+02 -0.38030661281E+03 -0.12063138945E+04  0.12802032421E+04  0.19200000000E+03 0.  0.
<mgrwt>
<rscale>  0 0.87773319E+03</rscale>
<asrwt>0</asrwt>
<pdfrwt beam="1">  1        1 0.29243608E+00 0.87773319E+03</pdfrwt>
<pdfrwt beam="2">  1       -1 0.13441199E-01 0.87773319E+03</pdfrwt>
<totfact> 0.13904190E+02</totfact>
</mgrwt>
</event>
<event>
 4    1  0.7145298E-006  0.5216403E+03  0.7818608E-02  0.1008280E+00
         -1   -1    0    0    0  501 -0.00000000000E+00  0.00000000000E+00  0.19142973328E+03  0.19142973335E+03  0.50400000000E-02 0. -1.
          1   -1    0    0  501    0  0.00000000000E+00 -0.00000000000E+00 -0.35536360908E+03  0.35536360912E+03  0.50400000000E-02 0.  1.
    5000001    1    1    2    0    0  0.11553530785E+02 -0.13515855206E+03 -0.20038248949E+03  0.30889878660E+03  0.19200000000E+03 0.  0.
   -5000001    1    1    2    0    0 -0.11553530785E+02  0.13515855206E+03  0.36448613693E+02  0.23789455586E+03  0.19200000000E+03 0.  0.
<mgrwt>
<rscale>  0 0.52164034E+03</rscale>
<asrwt>0</asrwt>
<pdfrwt beam="1">  1        1 0.50766230E-01 0.52164034E+03</pdfrwt>
<pdfrwt beam="2">  1       -1 0.27347105E-01 0.52164034E+03</pdfrwt>
<totfact> 0.93125972E+02</totfact>
</mgrwt>
</event>
<event>
 4    1  0.7145298E-006  0.4231262E+03  0.7818608E-02  0.1036054E+00
         -1   -1    0    0    0  501 -0.00000000000E+00  0.00000000000E+00  0.94433771567E+03  0.94433771568E+03  0.50400000000E-02 0. -1.
          1   -1    0    0  501    0  0.00000000000E+00 -0.00000000000E+00 -0.47397180338E+02  0.47397180606E+02  0.50400000000E-02 0.  1.
    5000001    1    1    2    0    0  0.52216811794E+02 -0.23191746202E+02  0.28897813095E+03  0.35162026775E+03  0.19200000000E+03 0.  0.
   -5000001    1    1    2    0    0 -0.52216811794E+02  0.23191746202E+02  0.60796240439E+03  0.64011462854E+03  0.19200000000E+03 0.  0.
<mgrwt>
<rscale>  0 0.42312620E+03</rscale>
<asrwt>0</asrwt>
<pdfrwt beam="1">  1        1 0.67710261E-02 0.42312620E+03</pdfrwt>
<pdfrwt beam="2">  1       -1 0.13490538E+00 0.42312620E+03</pdfrwt>
<totfact> 0.54301379E+02</totfact>
</mgrwt>
</event>
<event>
 4    1  0.7145298E-006  0.6359121E+03  0.7818608E-02  0.9833579E-01
         -1   -1    0    0    0  501 -0.00000000000E+00  0.00000000000E+00  0.61729852390E+02  0.61729852596E+02  0.50400000000E-02 0. -1.
          1   -1    0    0  501    0  0.00000000000E+00 -0.00000000000E+00 -0.16377175029E+04  0.16377175029E+04  0.50400000000E-02 0.  1.
    5000001    1    1    2    0    0  0.32225217193E+01  0.25224782088E+03 -0.72293106194E+03  0.78938752720E+03  0.19200000000E+03 0.  0.
   -5000001    1    1    2    0    0 -0.32225217193E+01 -0.25224782088E+03 -0.85305658861E+03  0.91005982834E+03  0.19200000000E+03 0.  0.
<mgrwt>
<rscale>  0 0.63591213E+03</rscale>
<asrwt>0</asrwt>
<pdfrwt beam="1">  1        1 0.23395962E+00 0.63591213E+03</pdfrwt>
<pdfrwt beam="2">  1       -1 0.88185514E-02 0.63591213E+03</pdfrwt>
<totfact> 0.49905432E+02</totfact>
</mgrwt>
</event>
<event>
 4    1  0.7145298E-006  0.4443983E+03  0.7818608E-02  0.1029406E+00
          1   -1    0    0  501    0  0.00000000000E+00  0.00000000000E+00  0.74296921271E+03  0.74296921273E+03  0.50400000000E-02 0.  1.
         -1   -1    0    0    0  501 -0.00000000000E+00 -0.00000000000E+00 -0.66452903907E+02  0.66452904098E+02  0.50400000000E-02 0. -1.
    5000001    1    1    2    0    0  0.90259024671E+02  0.53371246792E+02  0.40911182667E+03  0.46393067180E+03  0.19200000000E+03 0.  0.
   -5000001    1    1    2    0    0 -0.90259024671E+02 -0.53371246792E+02  0.26740448214E+03  0.34549144503E+03  0.19200000000E+03 0.  0.
<mgrwt>
<rscale>  0 0.44439830E+03</rscale>
<asrwt>0</asrwt>
<pdfrwt beam="1">  1        1 0.10613846E+00 0.44439830E+03</pdfrwt>
<pdfrwt beam="2">  1       -1 0.94932717E-02 0.44439830E+03</pdfrwt>
<totfact> 0.19097127E+03</totfact>
</mgrwt>
</event>
<event>
 4    1  0.7145298E-006  0.4516228E+03  0.7818608E-02  0.1027239E+00
          1   -1    0    0  501    0  0.00000000000E+00  0.00000000000E+00  0.10614731045E+04  0.10614731045E+04  0.50400000000E-02 0.  1.
         -1   -1    0    0    0  501 -0.00000000000E+00 -0.00000000000E+00 -0.48037756380E+02  0.48037756644E+02  0.50400000000E-02 0. -1.
    5000001    1    1    2    0    0 -0.58108462553E+02 -0.10335271593E+03  0.52703717785E+03  0.57331541419E+03  0.19200000000E+03 0.  0.
   -5000001    1    1    2    0    0  0.58108462553E+02  0.10335271593E+03  0.48639817029E+03  0.53619544699E+03  0.19200000000E+03 0.  0.
<mgrwt>
<rscale>  0 0.45162279E+03</rscale>
<asrwt>0</asrwt>
<pdfrwt beam="1">  1        1 0.15163899E+00 0.45162279E+03</pdfrwt>
<pdfrwt beam="2">  1       -1 0.68625379E-02 0.45162279E+03</pdfrwt>
<totfact> 0.17861296E+03</totfact>
</mgrwt>
</event>
<event>
 4    1  0.7145298E-006  0.5211231E+03  0.7818608E-02  0.1008408E+00
         -1   -1    0    0    0  501 -0.00000000000E+00  0.00000000000E+00  0.21909276516E+03  0.21909276521E+03  0.50400000000E-02 0. -1.
          1   -1    0    0  501    0  0.00000000000E+00 -0.00000000000E+00 -0.30987933462E+03  0.30987933466E+03  0.50400000000E-02 0.  1.
    5000001    1    1    2    0    0 -0.99425165916E+02  0.11868343374E+03 -0.13066571379E+03  0.27912120991E+03  0.19200000000E+03 0.  0.
   -5000001    1    1    2    0    0  0.99425165916E+02 -0.11868343374E+03  0.39879144328E+02  0.24985088996E+03  0.19200000000E+03 0.  0.
<mgrwt>
<rscale>  0 0.52112310E+03</rscale>
<asrwt>0</asrwt>
<pdfrwt beam="1">  1        1 0.44268476E-01 0.52112310E+03</pdfrwt>
<pdfrwt beam="2">  1       -1 0.31298966E-01 0.52112310E+03</pdfrwt>
<totfact> 0.88002512E+02</totfact>
</mgrwt>
</event>
<event>
 4    1  0.7145298E-006  0.7252416E+03  0.7818608E-02  0.9675013E-01
          1   -1    0    0  501    0  0.00000000000E+00  0.00000000000E+00  0.13347042213E+03  0.13347042223E+03  0.50400000000E-02 0.  1.
         -1   -1    0    0    0  501 -0.00000000000E+00 -0.00000000000E+00 -0.98519094189E+03  0.98519094190E+03  0.50400000000E-02 0. -1.
    5000001    1    1    2    0    0  0.19120154501E+03  0.13739763612E+03 -0.12049185047E+03  0.32683088480E+03  0.19200000000E+03 0.  0.
   -5000001    1    1    2    0    0 -0.19120154501E+03 -0.13739763612E+03 -0.73122866928E+03  0.79183047933E+03  0.19200000000E+03 0.  0.
<mgrwt>
<rscale>  0 0.72524162E+03</rscale>
<asrwt>0</asrwt>
<pdfrwt beam="1">  1        1 0.19067204E-01 0.72524162E+03</pdfrwt>
<pdfrwt beam="2">  1       -1 0.14074156E+00 0.72524162E+03</pdfrwt>
<totfact> 0.11751593E+02</totfact>
</mgrwt>
</event>
<event>
 4    1  0.7145298E-006  0.5936035E+03  0.7818608E-02  0.9918766E-01
          1   -1    0    0  501    0  0.00000000000E+00  0.00000000000E+00  0.88388769909E+03  0.88388769911E+03  0.50400000000E-02 0.  1.
         -1   -1    0    0    0  501 -0.00000000000E+00 -0.00000000000E+00 -0.99663436701E+02  0.99663436828E+02  0.50400000000E-02 0. -1.
    5000001    1    1    2    0    0 -0.14907991467E+03  0.16746362191E+03  0.44340699972E+03  0.53267499756E+03  0.19200000000E+03 0.  0.
   -5000001    1    1    2    0    0  0.14907991467E+03 -0.16746362191E+03  0.34081726267E+03  0.45087613838E+03  0.19200000000E+03 0.  0.
<mgrwt>
<rscale>  0 0.59360352E+03</rscale>
<asrwt>0</asrwt>
<pdfrwt beam="1">  1        1 0.12626967E+00 0.59360352E+03</pdfrwt>
<pdfrwt beam="2">  1       -1 0.14237634E-01 0.59360352E+03</pdfrwt>
<totfact> 0.76698020E+02</totfact>
</mgrwt>
</event>
<event>
 4    1  0.7145298E-006  0.6289813E+03  0.7818608E-02  0.9847039E-01
          1   -1    0    0  501    0  0.00000000000E+00  0.00000000000E+00  0.14618517209E+04  0.14618517209E+04  0.50400000000E-02 0.  1.
         -1   -1    0    0    0  501 -0.00000000000E+00 -0.00000000000E+00 -0.67656898209E+02  0.67656898397E+02  0.50400000000E-02 0. -1.
    5000001    1    1    2    0    0 -0.42155188147E+02  0.21932279969E+03  0.42893657358E+03  0.52031734019E+03  0.19200000000E+03 0.  0.
   -5000001    1    1    2    0    0  0.42155188147E+02 -0.21932279969E+03  0.96525824908E+03  0.10091912791E+04  0.19200000000E+03 0.  0.
<mgrwt>
<rscale>  0 0.62898125E+03</rscale>
<asrwt>0</asrwt>
<pdfrwt beam="1">  1        1 0.20883597E+00 0.62898125E+03</pdfrwt>
<pdfrwt beam="2">  1       -1 0.96652709E-02 0.62898125E+03</pdfrwt>
<totfact> 0.55966249E+02</totfact>
</mgrwt>
</event>
<event>
 4    1  0.7145298E-006  0.5828065E+03  0.7818608E-02  0.9941733E-01
          1   -1    0    0  501    0  0.00000000000E+00  0.00000000000E+00  0.85135463324E+03  0.85135463325E+03  0.50400000000E-02 0.  1.
         -1   -1    0    0    0  501 -0.00000000000E+00 -0.00000000000E+00 -0.99742063843E+02  0.99742063970E+02  0.50400000000E-02 0. -1.
    5000001    1    1    2    0    0  0.21513278769E+02 -0.19970375170E+03  0.51907647972E+03  0.58876888624E+03  0.19200000000E+03 0.  0.
   -5000001    1    1    2    0    0 -0.21513278769E+02  0.19970375170E+03  0.23253608967E+03  0.36232781098E+03  0.19200000000E+03 0.  0.
<mgrwt>
<rscale>  0 0.58280655E+03</rscale>
<asrwt>0</asrwt>
<pdfrwt beam="1">  1        1 0.12162209E+00 0.58280655E+03</pdfrwt>
<pdfrwt beam="2">  1       -1 0.14248866E-01 0.58280655E+03</pdfrwt>
<totfact> 0.81328256E+02</totfact>
</mgrwt>
</event>
<event>
 4    1  0.7145298E-006  0.5527622E+03  0.7818608E-02  0.1000857E+00
         -1   -1    0    0    0  501 -0.00000000000E+00  0.00000000000E+00  0.16836403544E+03  0.16836403551E+03  0.50400000000E-02 0.  1.
          1   -1    0    0  501    0  0.00000000000E+00 -0.00000000000E+00 -0.45369848265E+03  0.45369848267E+03  0.50400000000E-02 0. -1.
    5000001    1    1    2    0    0  0.98499554367E+02 -0.16768288852E+03 -0.18910557396E+03  0.33233211012E+03  0.19200000000E+03 0.  0.
   -5000001    1    1    2    0    0 -0.98499554367E+02  0.16768288852E+03 -0.96228873254E+02  0.28973040807E+03  0.19200000000E+03 0.  0.
<mgrwt>
<rscale>  0 0.55276218E+03</rscale>
<asrwt>0</asrwt>
<pdfrwt beam="1">  1        1 0.64814068E-01 0.55276218E+03</pdfrwt>
<pdfrwt beam="2">  1       -1 0.24052005E-01 0.55276218E+03</pdfrwt>
<totfact> 0.84167362E+02</totfact>
</mgrwt>
</event>
<event>
 4    1  0.7145298E-006  0.8799930E+03  0.7818608E-02  0.9450943E-01
          1   -1    0    0  501    0  0.00000000000E+00  0.00000000000E+00  0.46752032986E+03  0.46752032989E+03  0.50400000000E-02 0.  1.
         -1   -1    0    0    0  501 -0.00000000000E+00 -0.00000000000E+00 -0.41409304980E+03  0.41409304983E+03  0.50400000000E-02 0. -1.
    5000001    1    1    2    0    0  0.37050268570E+03  0.13939310180E+03  0.32223068033E+02  0.44114057063E+03  0.19200000000E+03 0.  0.
   -5000001    1    1    2    0    0 -0.37050268570E+03 -0.13939310180E+03  0.21204212030E+02  0.44047280909E+03  0.19200000000E+03 0.  0.
<mgrwt>
<rscale>  0 0.87999300E+03</rscale>
<asrwt>0</asrwt>
<pdfrwt beam="1">  1        1 0.66788619E-01 0.87999300E+03</pdfrwt>
<pdfrwt beam="2">  1       -1 0.59156150E-01 0.87999300E+03</pdfrwt>
<totfact> 0.15702442E+02</totfact>
</mgrwt>
</event>
<event>
 4    1  0.7145298E-006  0.5007764E+03  0.7818608E-02  0.1013576E+00
          1   -1    0    0  501    0  0.00000000000E+00  0.00000000000E+00  0.46525921638E+03  0.46525921641E+03  0.50400000000E-02 0.  1.
         -1   -1    0    0    0  501 -0.00000000000E+00 -0.00000000000E+00 -0.13475124528E+03  0.13475124538E+03  0.50400000000E-02 0. -1.
    5000001    1    1    2    0    0 -0.61034766037E+02  0.14867440754E+03  0.16409436733E+03  0.29936647026E+03  0.19200000000E+03 0.  0.
   -5000001    1    1    2    0    0  0.61034766037E+02 -0.14867440754E+03  0.16641360376E+03  0.30064399153E+03  0.19200000000E+03 0.  0.
<mgrwt>
<rscale>  0 0.50077643E+03</rscale>
<asrwt>0</asrwt>
<pdfrwt beam="1">  1        1 0.66465603E-01 0.50077643E+03</pdfrwt>
<pdfrwt beam="2">  1       -1 0.19250178E-01 0.50077643E+03</pdfrwt>
<totfact> 0.11804531E+03</totfact>
</mgrwt>
</event>
<event>
 4    1  0.7145298E-006  0.5478434E+03  0.7818608E-02  0.1001994E+00
         -1   -1    0    0    0  501 -0.00000000000E+00  0.00000000000E+00  0.10453852926E+03  0.10453852939E+03  0.50400000000E-02 0. -1.
          1   -1    0    0  501    0  0.00000000000E+00 -0.00000000000E+00 -0.71775541972E+03  0.71775541974E+03  0.50400000000E-02 0.  1.
    5000001    1    1    2    0    0  0.48814395889E+02 -0.17164233479E+03 -0.18723536177E+03  0.32212577828E+03  0.19200000000E+03 0.  0.
   -5000001    1    1    2    0    0 -0.48814395889E+02  0.17164233479E+03 -0.42598152869E+03  0.50016817084E+03  0.19200000000E+03 0.  0.
<mgrwt>
<rscale>  0 0.54784339E+03</rscale>
<asrwt>0</asrwt>
<pdfrwt beam="1">  1        1 0.10253649E+00 0.54784339E+03</pdfrwt>
<pdfrwt beam="2">  1       -1 0.14934076E-01 0.54784339E+03</pdfrwt>
<totfact> 0.97814034E+02</totfact>
</mgrwt>
</event>
<event>
 4    1  0.7145298E-006  0.6928124E+03  0.7818608E-02  0.9729604E-01
          1   -1    0    0  501    0  0.00000000000E+00  0.00000000000E+00  0.33789795245E+03  0.33789795249E+03  0.50400000000E-02 0.  1.
         -1   -1    0    0    0  501 -0.00000000000E+00 -0.00000000000E+00 -0.35512864291E+03  0.35512864295E+03  0.50400000000E-02 0. -1.
    5000001    1    1    2    0    0 -0.34273977065E+02  0.12742608697E+03  0.24782525202E+03  0.34013742617E+03  0.19200000000E+03 0.  0.
   -5000001    1    1    2    0    0  0.34273977065E+02 -0.12742608697E+03 -0.26505594248E+03  0.35288916927E+03  0.19200000000E+03 0.  0.
<mgrwt>
<rscale>  0 0.69281236E+03</rscale>
<asrwt>0</asrwt>
<pdfrwt beam="1">  1        1 0.48271136E-01 0.69281236E+03</pdfrwt>
<pdfrwt beam="2">  1       -1 0.50732663E-01 0.69281236E+03</pdfrwt>
<totfact> 0.32664489E+02</totfact>
</mgrwt>
</event>
<event>
 4    1  0.7145298E-006  0.5278150E+03  0.7818608E-02  0.1006763E+00
         -1   -1    0    0    0  501 -0.00000000000E+00  0.00000000000E+00  0.59134927035E+02  0.59134927250E+02  0.50400000000E-02 0. -1.
          1   -1    0    0  501    0  0.00000000000E+00 -0.00000000000E+00 -0.11777670653E+04  0.11777670653E+04  0.50400000000E-02 0.  1.
    5000001    1    1    2    0    0  0.13177241465E+03 -0.12011027226E+03 -0.48548017034E+03  0.55167512410E+03  0.19200000000E+03 0.  0.
   -5000001    1    1    2    0    0 -0.13177241465E+03  0.12011027226E+03 -0.63315196793E+03  0.68522686846E+03  0.19200000000E+03 0.  0.
<mgrwt>
<rscale>  0 0.52781500E+03</rscale>
<asrwt>0</asrwt>
<pdfrwt beam="1">  1        1 0.16825242E+00 0.52781500E+03</pdfrwt>
<pdfrwt beam="2">  1       -1 0.84478475E-02 0.52781500E+03</pdfrwt>
<totfact> 0.10717916E+03</totfact>
</mgrwt>
</event>
<event>
 4    1  0.7145298E-006  0.4603589E+03  0.7818608E-02  0.1024677E+00
          1   -1    0    0  501    0  0.00000000000E+00  0.00000000000E+00  0.58588054331E+03  0.58588054333E+03  0.50400000000E-02 0.  1.
         -1   -1    0    0    0  501 -0.00000000000E+00 -0.00000000000E+00 -0.90432398970E+02  0.90432399111E+02  0.50400000000E-02 0. -1.
    5000001    1    1    2    0    0 -0.13036005913E+02 -0.10660708889E+03  0.14826296851E+03  0.26529401931E+03  0.19200000000E+03 0.  0.
   -5000001    1    1    2    0    0  0.13036005913E+02  0.10660708889E+03  0.34718517583E+03  0.41101892313E+03  0.19200000000E+03 0.  0.
<mgrwt>
<rscale>  0 0.46035892E+03</rscale>
<asrwt>0</asrwt>
<pdfrwt beam="1">  1        1 0.83697221E-01 0.46035892E+03</pdfrwt>
<pdfrwt beam="2">  1       -1 0.12918914E-01 0.46035892E+03</pdfrwt>
<totfact> 0.16488235E+03</totfact>
</mgrwt>
</event>
<event>
 4    1  0.7145298E-006  0.4259348E+03  0.7818608E-02  0.1035152E+00
         -1   -1    0    0    0  501 -0.00000000000E+00  0.00000000000E+00  0.10449422626E+03  0.10449422638E+03  0.50400000000E-02 0. -1.
          1   -1    0    0  501    0  0.00000000000E+00 -0.00000000000E+00 -0.43404423302E+03  0.43404423305E+03  0.50400000000E-02 0.  1.
    5000001    1    1    2    0    0  0.48097734916E+02 -0.78497195640E+02 -0.15973106043E+03  0.26618266941E+03  0.19200000000E+03 0.  0.
   -5000001    1    1    2    0    0 -0.48097734916E+02  0.78497195640E+02 -0.16981894633E+03  0.27235579003E+03  0.19200000000E+03 0.  0.
<mgrwt>
<rscale>  0 0.42593481E+03</rscale>
<asrwt>0</asrwt>
<pdfrwt beam="1">  1        1 0.62006318E-01 0.42593481E+03</pdfrwt>
<pdfrwt beam="2">  1       -1 0.14927747E-01 0.42593481E+03</pdfrwt>
<totfact> 0.19540131E+03</totfact>
</mgrwt>
</event>
<event>
 4    1  0.7145298E-006  0.4887710E+03  0.7818608E-02  0.1016752E+00
         -1   -1    0    0    0  501 -0.00000000000E+00  0.00000000000E+00  0.38209230883E+02  0.38209231216E+02  0.50400000000E-02 0. -1.
          1   -1    0    0  501    0  0.00000000000E+00 -0.00000000000E+00 -0.15630846314E+04  0.15630846314E+04  0.50400000000E-02 0.  1.
    5000001    1    1    2    0    0  0.29103899168E+02 -0.14795639040E+03 -0.79864360294E+03  0.83512498162E+03  0.19200000000E+03 0.  0.
   -5000001    1    1    2    0    0 -0.29103899168E+02  0.14795639040E+03 -0.72623179755E+03  0.76616888098E+03  0.19200000000E+03 0.  0.
<mgrwt>
<rscale>  0 0.48877096E+03</rscale>
<asrwt>0</asrwt>
<pdfrwt beam="1">  1        1 0.22329776E+00 0.48877096E+03</pdfrwt>
<pdfrwt beam="2">  1       -1 0.54584626E-02 0.48877096E+03</pdfrwt>
<totfact> 0.11775221E+03</totfact>
</mgrwt>
</event>
<event>
 4    1  0.7145298E-006  0.6214578E+03  0.7818608E-02  0.9861861E-01
         -1   -1    0    0    0  501 -0.00000000000E+00  0.00000000000E+00  0.64062103145E+03  0.64062103147E+03  0.50400000000E-02 0. -1.
          1   -1    0    0  501    0  0.00000000000E+00 -0.00000000000E+00 -0.15071695675E+03  0.15071695683E+03  0.50400000000E-02 0.  1.
    5000001    1    1    2    0    0 -0.14751418124E+03  0.19460578340E+03  0.25453253852E+03  0.40160012172E+03  0.19200000000E+03 0.  0.
   -5000001    1    1    2    0    0  0.14751418124E+03 -0.19460578340E+03  0.23537153618E+03  0.38973786658E+03  0.19200000000E+03 0.  0.
<mgrwt>
<rscale>  0 0.62145781E+03</rscale>
<asrwt>0</asrwt>
<pdfrwt beam="1">  1        1 0.21530993E-01 0.62145781E+03</pdfrwt>
<pdfrwt beam="2">  1       -1 0.91517293E-01 0.62145781E+03</pdfrwt>
<totfact> 0.28103374E+02</totfact>
</mgrwt>
</event>
<event>
 4    1  0.7145298E-006  0.8392713E+03  0.7818608E-02  0.9504851E-01
         -1   -1    0    0    0  501 -0.00000000000E+00  0.00000000000E+00  0.22021000806E+03  0.22021000812E+03  0.50400000000E-02 0.  1.
          1   -1    0    0  501    0  0.00000000000E+00 -0.00000000000E+00 -0.79966431689E+03  0.79966431691E+03  0.50400000000E-02 0. -1.
    5000001    1    1    2    0    0  0.11372332060E+02  0.37293099788E+03 -0.29558363888E+03  0.51326459715E+03  0.19200000000E+03 0.  0.
   -5000001    1    1    2    0    0 -0.11372332060E+02 -0.37293099788E+03 -0.28387066995E+03  0.50660972787E+03  0.19200000000E+03 0.  0.
<mgrwt>
<rscale>  0 0.83927132E+03</rscale>
<asrwt>0</asrwt>
<pdfrwt beam="1">  1        1 0.11423776E+00 0.83927132E+03</pdfrwt>
<pdfrwt beam="2">  1       -1 0.31458573E-01 0.83927132E+03</pdfrwt>
<totfact> 0.23518050E+02</totfact>
</mgrwt>
</event>
<event>
 4    1  0.7145298E-006  0.1666579E+04  0.7818608E-02  0.8780659E-01
          1   -1    0    0  501    0  0.00000000000E+00  0.00000000000E+00  0.75095437670E+03  0.75095437672E+03  0.50400000000E-02 0.  1.
         -1   -1    0    0    0  501 -0.00000000000E+00 -0.00000000000E+00 -0.92465182578E+03  0.92465182579E+03  0.50400000000E-02 0. -1.
    5000001    1    1    2    0    0  0.32103262772E+03 -0.74276561053E+03 -0.13952176543E+03  0.84326331788E+03  0.19200000000E+03 0.  0.
   -5000001    1    1    2    0    0 -0.32103262772E+03  0.74276561053E+03 -0.34175683649E+02  0.83234288463E+03  0.19200000000E+03 0.  0.
<mgrwt>
<rscale>  0 0.16665789E+04</rscale>
<asrwt>0</asrwt>
<pdfrwt beam="1">  1        1 0.10727920E+00 0.16665789E+04</pdfrwt>
<pdfrwt beam="2">  1       -1 0.13209312E+00 0.16665789E+04</pdfrwt>
<totfact> 0.12779505E+01</totfact>
</mgrwt>
</event>
<event>
 4    1  0.7145298E-006  0.6827098E+03  0.7818608E-02  0.9747266E-01
         -1   -1    0    0    0  501 -0.00000000000E+00  0.00000000000E+00  0.44184598700E+02  0.44184598987E+02  0.50400000000E-02 0. -1.
          1   -1    0    0  501    0  0.00000000000E+00 -0.00000000000E+00 -0.26371893115E+04  0.26371893115E+04  0.50400000000E-02 0.  1.
    5000001    1    1    2    0    0  0.20199005866E+03  0.18833653148E+03 -0.15251286786E+04  0.15617785116E+04  0.19200000000E+03 0.  0.
   -5000001    1    1    2    0    0 -0.20199005866E+03 -0.18833653148E+03 -0.10678760342E+04  0.11195953989E+04  0.19200000000E+03 0.  0.
<mgrwt>
<rscale>  0 0.68270975E+03</rscale>
<asrwt>0</asrwt>
<pdfrwt beam="1">  1        1 0.37674123E+00 0.68270975E+03</pdfrwt>
<pdfrwt beam="2">  1       -1 0.63120872E-02 0.68270975E+03</pdfrwt>
<totfact> 0.19976136E+02</totfact>
</mgrwt>
</event>
<event>
 4    1  0.7145298E-006  0.5574893E+03  0.7818608E-02  0.9997752E-01
         -1   -1    0    0    0  501 -0.00000000000E+00  0.00000000000E+00  0.16464077130E+03  0.16464077138E+03  0.50400000000E-02 0.  1.
          1   -1    0    0  501    0  0.00000000000E+00 -0.00000000000E+00 -0.47192797318E+03  0.47192797320E+03  0.50400000000E-02 0. -1.
    5000001    1    1    2    0    0 -0.19935457926E+03 -0.11031732486E+02 -0.18921798880E+03  0.33545699379E+03  0.19200000000E+03 0.  0.
   -5000001    1    1    2    0    0  0.19935457926E+03  0.11031732486E+02 -0.11806921307E+03  0.30111175080E+03  0.19200000000E+03 0.  0.
<mgrwt>
<rscale>  0 0.55748932E+03</rscale>
<asrwt>0</asrwt>
<pdfrwt beam="1">  1        1 0.67418282E-01 0.55748932E+03</pdfrwt>
<pdfrwt beam="2">  1       -1 0.23520110E-01 0.55748932E+03</pdfrwt>
<totfact> 0.82942020E+02</totfact>
</mgrwt>
</event>
<event>
 4    1  0.7145298E-006  0.5080757E+03  0.7818608E-02  0.1011692E+00
          1   -1    0    0  501    0  0.00000000000E+00  0.00000000000E+00  0.18981745301E+03  0.18981745308E+03  0.50400000000E-02 0.  1.
         -1   -1    0    0    0  501 -0.00000000000E+00 -0.00000000000E+00 -0.33998571424E+03  0.33998571428E+03  0.50400000000E-02 0. -1.
    5000001    1    1    2    0    0  0.91536375912E+02  0.12981945930E+03 -0.12658467674E+03  0.27949898124E+03  0.19200000000E+03 0.  0.
   -5000001    1    1    2    0    0 -0.91536375912E+02 -0.12981945930E+03 -0.23583584490E+02  0.25030418611E+03  0.19200000000E+03 0.  0.
<mgrwt>
<rscale>  0 0.50807567E+03</rscale>
<asrwt>0</asrwt>
<pdfrwt beam="1">  1        1 0.27116779E-01 0.50807567E+03</pdfrwt>
<pdfrwt beam="2">  1       -1 0.48569387E-01 0.50807567E+03</pdfrwt>
<totfact> 0.74911562E+02</totfact>
</mgrwt>
</event>
<event>
 4    1  0.7145298E-006  0.4248275E+03  0.7818608E-02  0.1035506E+00
         -1   -1    0    0    0  501 -0.00000000000E+00  0.00000000000E+00  0.59704375774E+02  0.59704375987E+02  0.50400000000E-02 0.  1.
          1   -1    0    0  501    0  0.00000000000E+00 -0.00000000000E+00 -0.75571682030E+03  0.75571682032E+03  0.50400000000E-02 0. -1.
    5000001    1    1    2    0    0  0.58372696086E+01 -0.90131390823E+02 -0.32901855990E+03  0.39150345348E+03  0.19200000000E+03 0.  0.
   -5000001    1    1    2    0    0 -0.58372696086E+01  0.90131390823E+02 -0.36699388462E+03  0.42391774282E+03  0.19200000000E+03 0.  0.
<mgrwt>
<rscale>  0 0.42482750E+03</rscale>
<asrwt>0</asrwt>
<pdfrwt beam="1">  1        1 0.10795954E+00 0.42482750E+03</pdfrwt>
<pdfrwt beam="2">  1       -1 0.85291970E-02 0.42482750E+03</pdfrwt>
<totfact> 0.21996008E+03</totfact>
</mgrwt>
</event>
<event>
 4    1  0.7145298E-006  0.4291226E+03  0.7818608E-02  0.1034137E+00
         -1   -1    0    0    0  501 -0.00000000000E+00  0.00000000000E+00  0.19741978385E+03  0.19741978391E+03  0.50400000000E-02 0. -1.
          1   -1    0    0  501    0  0.00000000000E+00 -0.00000000000E+00 -0.23319118805E+03  0.23319118811E+03  0.50400000000E-02 0.  1.
    5000001    1    1    2    0    0 -0.55957900616E+02  0.76763754487E+02 -0.30117867315E+02  0.21632162762E+03  0.19200000000E+03 0.  0.
   -5000001    1    1    2    0    0  0.55957900616E+02 -0.76763754487E+02 -0.56535368927E+01  0.21428934440E+03  0.19200000000E+03 0.  0.
<mgrwt>
<rscale>  0 0.42912261E+03</rscale>
<asrwt>0</asrwt>
<pdfrwt beam="1">  1        1 0.33313027E-01 0.42912261E+03</pdfrwt>
<pdfrwt beam="2">  1       -1 0.28202826E-01 0.42912261E+03</pdfrwt>
<totfact> 0.15143940E+03</totfact>
</mgrwt>
</event>
<event>
 4    1  0.7145298E-006  0.6049189E+03  0.7818608E-02  0.9895253E-01
         -1   -1    0    0    0  501 -0.00000000000E+00  0.00000000000E+00  0.76332068974E+02  0.76332069141E+02  0.50400000000E-02 0. -1.
          1   -1    0    0  501    0  0.00000000000E+00 -0.00000000000E+00 -0.11984705056E+04  0.11984705057E+04  0.50400000000E-02 0.  1.
    5000001    1    1    2    0    0 -0.21347246329E+03  0.67923770629E+02 -0.42074775453E+03  0.51388403764E+03  0.19200000000E+03 0.  0.
   -5000001    1    1    2    0    0  0.21347246329E+03 -0.67923770629E+02 -0.70139068214E+03  0.76091853716E+03  0.19200000000E+03 0.  0.
<mgrwt>
<rscale>  0 0.60491895E+03</rscale>
<asrwt>0</asrwt>
<pdfrwt beam="1">  1        1 0.17121006E+00 0.60491895E+03</pdfrwt>
<pdfrwt beam="2">  1       -1 0.10904582E-01 0.60491895E+03</pdfrwt>
<totfact> 0.69242399E+02</totfact>
</mgrwt>
</event>
<event>
 4    1  0.7145298E-006  0.1458074E+04  0.7818608E-02  0.8912822E-01
         -1   -1    0    0    0  501 -0.00000000000E+00  0.00000000000E+00  0.18606793264E+03  0.18606793271E+03  0.50400000000E-02 0. -1.
          1   -1    0    0  501    0  0.00000000000E+00 -0.00000000000E+00 -0.28564545020E+04  0.28564545020E+04  0.50400000000E-02 0.  1.
    5000001    1    1    2    0    0  0.62185675157E+03 -0.32435059799E+03 -0.14440499129E+04  0.16168034144E+04  0.19200000000E+03 0.  0.
   -5000001    1    1    2    0    0 -0.62185675157E+03  0.32435059799E+03 -0.12263366565E+04  0.14257190203E+04  0.19200000000E+03 0.  0.
<mgrwt>
<rscale>  0 0.14580735E+04</rscale>
<asrwt>0</asrwt>
<pdfrwt beam="1">  1        1 0.40806490E+00 0.14580735E+04</pdfrwt>
<pdfrwt beam="2">  1       -1 0.26581135E-01 0.14580735E+04</pdfrwt>
<totfact> 0.13032066E+01</totfact>
</mgrwt>
</event>
<event>
 4    1  0.7145298E-006  0.5546195E+03  0.7818608E-02  0.1000430E+00
          1   -1    0    0  501    0  0.00000000000E+00  0.00000000000E+00  0.96291597256E+03  0.96291597257E+03  0.50400000000E-02 0.  1.
         -1   -1    0    0    0  501 -0.00000000000E+00 -0.00000000000E+00 -0.79862317399E+02  0.79862317558E+02  0.50400000000E-02 0. -1.
    5000001    1    1    2    0    0  0.11920442689E+03  0.11587873991E+02  0.14015549677E+03  0.26617952117E+03  0.19200000000E+03 0.  0.
   -5000001    1    1    2    0    0 -0.11920442689E+03 -0.11587873991E+02  0.74289815839E+03  0.77659876896E+03  0.19200000000E+03 0.  0.
<mgrwt>
<rscale>  0 0.55461951E+03</rscale>
<asrwt>0</asrwt>
<pdfrwt beam="1">  1        1 0.13755941E+00 0.55461951E+03</pdfrwt>
<pdfrwt beam="2">  1       -1 0.11408904E-01 0.55461951E+03</pdfrwt>
<totfact> 0.95148528E+02</totfact>
</mgrwt>
</event>
<event>
 4    1  0.7145298E-006  0.5213942E+03  0.7818608E-02  0.1008341E+00
          1   -1    0    0  501    0  0.00000000000E+00  0.00000000000E+00  0.55623898567E+02  0.55623898795E+02  0.50400000000E-02 0. -1.
         -1   -1    0    0    0  501 -0.00000000000E+00 -0.00000000000E+00 -0.12218307355E+04  0.12218307355E+04  0.50400000000E-02 0.  1.
    5000001    1    1    2    0    0 -0.74876481044E+02 -0.15664108663E+03 -0.65886071489E+03  0.70788725025E+03  0.19200000000E+03 0.  0.
   -5000001    1    1    2    0    0  0.74876481044E+02  0.15664108663E+03 -0.50734612205E+03  0.56956738407E+03  0.19200000000E+03 0.  0.
<mgrwt>
<rscale>  0 0.52139424E+03</rscale>
<asrwt>0</asrwt>
<pdfrwt beam="1">  1        1 0.79462720E-02 0.52139424E+03</pdfrwt>
<pdfrwt beam="2">  1       -1 0.17454723E+00 0.52139424E+03</pdfrwt>
<totfact> 0.21650981E+02</totfact>
</mgrwt>
</event>
<event>
 4    1  0.7145298E-006  0.8961001E+03  0.7818608E-02  0.9430470E-01
          1   -1    0    0  501    0  0.00000000000E+00  0.00000000000E+00  0.33256936543E+03  0.33256936547E+03  0.50400000000E-02 0.  1.
         -1   -1    0    0    0  501 -0.00000000000E+00 -0.00000000000E+00 -0.60363001434E+03  0.60363001436E+03  0.50400000000E-02 0. -1.
    5000001    1    1    2    0    0 -0.28966866062E+03 -0.74782064471E+02 -0.42047019381E+03  0.55059919542E+03  0.19200000000E+03 0.  0.
   -5000001    1    1    2    0    0  0.28966866062E+03  0.74782064471E+02  0.14940954490E+03  0.38560018441E+03  0.19200000000E+03 0.  0.
<mgrwt>
<rscale>  0 0.89610011E+03</rscale>
<asrwt>0</asrwt>
<pdfrwt beam="1">  1        1 0.47509910E-01 0.89610011E+03</pdfrwt>
<pdfrwt beam="2">  1       -1 0.86232858E-01 0.89610011E+03</pdfrwt>
<totfact> 0.11292321E+02</totfact>
</mgrwt>
</event>
<event>
 4    1  0.7145298E-006  0.4841516E+03  0.7818608E-02  0.1018000E+00
          1   -1    0    0  501    0  0.00000000000E+00  0.00000000000E+00  0.39558469838E+03  0.39558469841E+03  0.50400000000E-02 0.  1.
         -1   -1    0    0    0  501 -0.00000000000E+00 -0.00000000000E+00 -0.14813690887E+03  0.14813690895E+03  0.50400000000E-02 0. -1.
    5000001    1    1    2    0    0 -0.55493625198E+02 -0.12252539093E+03  0.19152315444E+03  0.30271625749E+03  0.19200000000E+03 0.  0.
   -5000001    1    1    2    0    0  0.55493625198E+02  0.12252539093E+03  0.55924635069E+02  0.24100534987E+03  0.19200000000E+03 0.  0.
<mgrwt>
<rscale>  0 0.48415161E+03</rscale>
<asrwt>0</asrwt>
<pdfrwt beam="1">  1        1 0.56512099E-01 0.48415161E+03</pdfrwt>
<pdfrwt beam="2">  1       -1 0.21162416E-01 0.48415161E+03</pdfrwt>
<totfact> 0.12483574E+03</totfact>
</mgrwt>
</event>
<event>
 4    1  0.7145298E-006  0.8507039E+03  0.7818608E-02  0.9489393E-01
          1   -1    0    0  501    0  0.00000000000E+00  0.00000000000E+00  0.20773084016E+04  0.20773084016E+04  0.50400000000E-02 0.  1.
         -1   -1    0    0    0  501 -0.00000000000E+00 -0.00000000000E+00 -0.87095541574E+02  0.87095541720E+02  0.50400000000E-02 0. -1.
    5000001    1    1    2    0    0  0.30413770969E+02 -0.36116976947E+03  0.12817351991E+04  0.13457628768E+04  0.19200000000E+03 0.  0.
   -5000001    1    1    2    0    0 -0.30413770969E+02  0.36116976947E+03  0.70847766094E+03  0.81864106658E+03  0.19200000000E+03 0.  0.
<mgrwt>
<rscale>  0 0.85070394E+03</rscale>
<asrwt>0</asrwt>
<pdfrwt beam="1">  1        1 0.29675835E+00 0.85070394E+03</pdfrwt>
<pdfrwt beam="2">  1       -1 0.12442220E-01 0.85070394E+03</pdfrwt>
<totfact> 0.15112580E+02</totfact>
</mgrwt>
</event>
<event>
 4    1  0.7145298E-006  0.7620784E+03  0.7818608E-02  0.9616590E-01
         -1   -1    0    0    0  501 -0.00000000000E+00  0.00000000000E+00  0.63301410395E+03  0.63301410397E+03  0.50400000000E-02 0. -1.
          1   -1    0    0  501    0  0.00000000000E+00 -0.00000000000E+00 -0.22936433053E+03  0.22936433059E+03  0.50400000000E-02 0.  1.
    5000001    1    1    2    0    0 -0.25108303597E+03 -0.42867011623E+02  0.43769671829E+03  0.54159273337E+03  0.19200000000E+03 0.  0.
   -5000001    1    1    2    0    0  0.25108303597E+03  0.42867011623E+02 -0.34046944868E+02  0.32078570119E+03  0.19200000000E+03 0.  0.
<mgrwt>
<rscale>  0 0.76207836E+03</rscale>
<asrwt>0</asrwt>
<pdfrwt beam="1">  1        1 0.32766333E-01 0.76207836E+03</pdfrwt>
<pdfrwt beam="2">  1       -1 0.90430585E-01 0.76207836E+03</pdfrwt>
<totfact> 0.16587085E+02</totfact>
</mgrwt>
</event>
<event>
 4    1  0.7145298E-006  0.6917987E+03  0.7818608E-02  0.9731361E-01
         -1   -1    0    0    0  501 -0.00000000000E+00  0.00000000000E+00  0.67963298381E+02  0.67963298568E+02  0.50400000000E-02 0. -1.
          1   -1    0    0  501    0  0.00000000000E+00 -0.00000000000E+00 -0.17604554255E+04  0.17604554255E+04  0.50400000000E-02 0.  1.
    5000001    1    1    2    0    0 -0.90184868314E+02  0.24316663310E+03 -0.51699416450E+03  0.60943440012E+03  0.19200000000E+03 0.  0.
   -5000001    1    1    2    0    0  0.90184868314E+02 -0.24316663310E+03 -0.11754979626E+04  0.12189843240E+04  0.19200000000E+03 0.  0.
<mgrwt>
<rscale>  0 0.69179869E+03</rscale>
<asrwt>0</asrwt>
<pdfrwt beam="1">  1        1 0.25149361E+00 0.69179869E+03</pdfrwt>
<pdfrwt beam="2">  1       -1 0.97090437E-02 0.69179869E+03</pdfrwt>
<totfact> 0.35782292E+02</totfact>
</mgrwt>
</event>
<event>
 4    1  0.7145298E-006  0.4853620E+03  0.7818608E-02  0.1017672E+00
          1   -1    0    0  501    0  0.00000000000E+00  0.00000000000E+00  0.18847138898E+04  0.18847138898E+04  0.50400000000E-02 0.  1.
         -1   -1    0    0    0  501 -0.00000000000E+00 -0.00000000000E+00 -0.31248276245E+02  0.31248276652E+02  0.50400000000E-02 0. -1.
    5000001    1    1    2    0    0 -0.28888123669E+02  0.12294678654E+03  0.12345263942E+04  0.12557347865E+04  0.19200000000E+03 0.  0.
   -5000001    1    1    2    0    0  0.28888123669E+02 -0.12294678654E+03  0.61893921931E+03  0.66022737993E+03  0.19200000000E+03 0.  0.
<mgrwt>
<rscale>  0 0.48536197E+03</rscale>
<asrwt>0</asrwt>
<pdfrwt beam="1">  1        1 0.26924482E+00 0.48536197E+03</pdfrwt>
<pdfrwt beam="2">  1       -1 0.44640398E-02 0.48536197E+03</pdfrwt>
<totfact> 0.10088369E+03</totfact>
</mgrwt>
</event>
<event>
 4    1  0.7145298E-006  0.8838675E+03  0.7818608E-02  0.9445976E-01
          1   -1    0    0  501    0  0.00000000000E+00  0.00000000000E+00  0.33403514845E+03  0.33403514849E+03  0.50400000000E-02 0.  1.
         -1   -1    0    0    0  501 -0.00000000000E+00 -0.00000000000E+00 -0.58468532560E+03  0.58468532562E+03  0.50400000000E-02 0. -1.
    5000001    1    1    2    0    0 -0.23519865819E+02 -0.35705758228E+03 -0.30655078779E+03  0.50880319048E+03  0.19200000000E+03 0.  0.
   -5000001    1    1    2    0    0  0.23519865819E+02  0.35705758228E+03  0.55900610632E+02  0.40991728363E+03  0.19200000000E+03 0.  0.
<mgrwt>
<rscale>  0 0.88386752E+03</rscale>
<asrwt>0</asrwt>
<pdfrwt beam="1">  1        1 0.47719307E-01 0.88386752E+03</pdfrwt>
<pdfrwt beam="2">  1       -1 0.83526475E-01 0.88386752E+03</pdfrwt>
<totfact> 0.12038183E+02</totfact>
</mgrwt>
</event>
<event>
 4    1  0.7145298E-006  0.6746906E+03  0.7818608E-02  0.9761521E-01
          1   -1    0    0  501    0  0.00000000000E+00  0.00000000000E+00  0.38288329698E+03  0.38288329701E+03  0.50400000000E-02 0. -1.
         -1   -1    0    0    0  501 -0.00000000000E+00 -0.00000000000E+00 -0.29722337625E+03  0.29722337629E+03  0.50400000000E-02 0.  1.
    5000001    1    1    2    0    0  0.12924733290E+03 -0.24537821274E+03  0.38045713847E+02  0.33945075739E+03  0.19200000000E+03 0.  0.
   -5000001    1    1    2    0    0 -0.12924733290E+03  0.24537821274E+03  0.47614206885E+02  0.34065591591E+03  0.19200000000E+03 0.  0.
<mgrwt>
<rscale>  0 0.67469064E+03</rscale>
<asrwt>0</asrwt>
<pdfrwt beam="1">  1        1 0.54697614E-01 0.67469064E+03</pdfrwt>
<pdfrwt beam="2">  1       -1 0.42460482E-01 0.67469064E+03</pdfrwt>
<totfact> 0.38706732E+02</totfact>
</mgrwt>
</event>
<event>
 4    1  0.7145298E-006  0.7031239E+03  0.7818608E-02  0.9711905E-01
          1   -1    0    0  501    0  0.00000000000E+00  0.00000000000E+00  0.43887207758E+03  0.43887207761E+03  0.50400000000E-02 0. -1.
         -1   -1    0    0    0  501 -0.00000000000E+00 -0.00000000000E+00 -0.28162151319E+03  0.28162151323E+03  0.50400000000E-02 0.  1.
    5000001    1    1    2    0    0 -0.15443761777E+03 -0.24139061629E+03  0.14821020694E+03  0.37543397936E+03  0.19200000000E+03 0.  0.
   -5000001    1    1    2    0    0  0.15443761777E+03  0.24139061629E+03  0.90403574488E+01  0.34505961148E+03  0.19200000000E+03 0.  0.
<mgrwt>
<rscale>  0 0.70312394E+03</rscale>
<asrwt>0</asrwt>
<pdfrwt beam="1">  1        1 0.62696011E-01 0.70312394E+03</pdfrwt>
<pdfrwt beam="2">  1       -1 0.40231645E-01 0.70312394E+03</pdfrwt>
<totfact> 0.35656499E+02</totfact>
</mgrwt>
</event>
<event>
 4    1  0.7145298E-006  0.6259975E+03  0.7818608E-02  0.9852891E-01
         -1   -1    0    0    0  501 -0.00000000000E+00  0.00000000000E+00  0.42184752441E+03  0.42184752444E+03  0.50400000000E-02 0. -1.
          1   -1    0    0  501    0  0.00000000000E+00 -0.00000000000E+00 -0.23223608353E+03  0.23223608358E+03  0.50400000000E-02 0.  1.
    5000001    1    1    2    0    0 -0.47097537793E+02 -0.20958479728E+03 -0.32994062724E+02  0.28999409217E+03  0.19200000000E+03 0.  0.
   -5000001    1    1    2    0    0  0.47097537793E+02  0.20958479728E+03  0.22260550360E+03  0.36408951585E+03  0.19200000000E+03 0.  0.
<mgrwt>
<rscale>  0 0.62599750E+03</rscale>
<asrwt>0</asrwt>
<pdfrwt beam="1">  1        1 0.33176583E-01 0.62599750E+03</pdfrwt>
<pdfrwt beam="2">  1       -1 0.60263932E-01 0.62599750E+03</pdfrwt>
<totfact> 0.38106634E+02</totfact>
</mgrwt>
</event>
<event>
 4    1  0.7145298E-006  0.1062757E+04  0.7818608E-02  0.9242272E-01
          1   -1    0    0  501    0  0.00000000000E+00  0.00000000000E+00  0.20449931715E+04  0.20449931715E+04  0.50400000000E-02 0.  1.
         -1   -1    0    0    0  501 -0.00000000000E+00 -0.00000000000E+00 -0.13807526751E+03  0.13807526760E+03  0.50400000000E-02 0. -1.
    5000001    1    1    2    0    0  0.35486396429E+03 -0.30524553483E+03  0.12871927175E+04  0.13830518289E+04  0.19200000000E+03 0.  0.
   -5000001    1    1    2    0    0 -0.35486396429E+03  0.30524553483E+03  0.61972518651E+03  0.80001661012E+03  0.19200000000E+03 0.  0.
<mgrwt>
<rscale>  0 0.10627568E+04</rscale>
<asrwt>0</asrwt>
<pdfrwt beam="1">  1        1 0.29214186E+00 0.10627568E+04</pdfrwt>
<pdfrwt beam="2">  1       -1 0.19725040E-01 0.10627568E+04</pdfrwt>
<totfact> 0.73159094E+01</totfact>
</mgrwt>
</event>
<event>
 4    1  0.7145298E-006  0.5614039E+03  0.7818608E-02  0.9988883E-01
          1   -1    0    0  501    0  0.00000000000E+00  0.00000000000E+00  0.21496084269E+04  0.21496084269E+04  0.50400000000E-02 0.  1.
         -1   -1    0    0    0  501 -0.00000000000E+00 -0.00000000000E+00 -0.36654859600E+02  0.36654859946E+02  0.50400000000E-02 0. -1.
    5000001    1    1    2    0    0 -0.10401080273E+03 -0.15814142622E+03  0.75225815753E+03  0.79911406779E+03  0.19200000000E+03 0.  0.
   -5000001    1    1    2    0    0  0.10401080273E+03  0.15814142622E+03  0.13606954098E+04  0.13871492191E+04  0.19200000000E+03 0.  0.
<mgrwt>
<rscale>  0 0.56140394E+03</rscale>
<asrwt>0</asrwt>
<pdfrwt beam="1">  1        1 0.30708696E+00 0.56140394E+03</pdfrwt>
<pdfrwt beam="2">  1       -1 0.52364078E-02 0.56140394E+03</pdfrwt>
<totfact> 0.54084048E+02</totfact>
</mgrwt>
</event>
<event>
 4    1  0.7145298E-006  0.4099564E+03  0.7818608E-02  0.1040386E+00
         -1   -1    0    0    0  501 -0.00000000000E+00  0.00000000000E+00  0.99996480437E+03  0.99996480438E+03  0.50400000000E-02 0.  1.
          1   -1    0    0  501    0  0.00000000000E+00 -0.00000000000E+00 -0.42017532278E+02  0.42017532581E+02  0.50400000000E-02 0. -1.
    5000001    1    1    2    0    0  0.41451730276E+02 -0.43046913549E+02  0.58002849459E+03  0.61389603130E+03  0.19200000000E+03 0.  0.
   -5000001    1    1    2    0    0 -0.41451730276E+02  0.43046913549E+02  0.37791877751E+03  0.42808630567E+03  0.19200000000E+03 0.  0.
<mgrwt>
<rscale>  0 0.40995636E+03</rscale>
<asrwt>0</asrwt>
<pdfrwt beam="1">  1        1 0.60025038E-02 0.40995636E+03</pdfrwt>
<pdfrwt beam="2">  1       -1 0.14285213E+00 0.40995636E+03</pdfrwt>
<totfact> 0.55471776E+02</totfact>
</mgrwt>
</event>
<event>
 4    1  0.7145298E-006  0.4850746E+03  0.7818608E-02  0.1017750E+00
          1   -1    0    0  501    0  0.00000000000E+00  0.00000000000E+00  0.62232304485E+03  0.62232304487E+03  0.50400000000E-02 0.  1.
         -1   -1    0    0    0  501 -0.00000000000E+00 -0.00000000000E+00 -0.94523786405E+02  0.94523786539E+02  0.50400000000E-02 0. -1.
    5000001    1    1    2    0    0  0.13875997560E+03  0.51200838416E+02  0.27748211463E+03  0.36842391430E+03  0.19200000000E+03 0.  0.
   -5000001    1    1    2    0    0 -0.13875997560E+03 -0.51200838416E+02  0.25031714381E+03  0.34842291711E+03  0.19200000000E+03 0.  0.
<mgrwt>
<rscale>  0 0.48507455E+03</rscale>
<asrwt>0</asrwt>
<pdfrwt beam="1">  1        1 0.88903295E-01 0.48507455E+03</pdfrwt>
<pdfrwt beam="2">  1       -1 0.13503398E-01 0.48507455E+03</pdfrwt>
<totfact> 0.14126625E+03</totfact>
</mgrwt>
</event>
<event>
 4    1  0.7145298E-006  0.5291326E+03  0.7818608E-02  0.1006443E+00
          1   -1    0    0  501    0  0.00000000000E+00  0.00000000000E+00  0.21308712209E+04  0.21308712209E+04  0.50400000000E-02 0.  1.
         -1   -1    0    0    0  501 -0.00000000000E+00 -0.00000000000E+00 -0.32848223093E+02  0.32848223480E+02  0.50400000000E-02 0. -1.
    5000001    1    1    2    0    0  0.15130196357E+02  0.14621585513E+03  0.14879720508E+04  0.15074922299E+04  0.19200000000E+03 0.  0.
   -5000001    1    1    2    0    0 -0.15130196357E+02 -0.14621585513E+03  0.61005094698E+03  0.65622721450E+03  0.19200000000E+03 0.  0.
<mgrwt>
<rscale>  0 0.52913262E+03</rscale>
<asrwt>0</asrwt>
<pdfrwt beam="1">  1        1 0.30441006E+00 0.52913262E+03</pdfrwt>
<pdfrwt beam="2">  1       -1 0.46926051E-02 0.52913262E+03</pdfrwt>
<totfact> 0.65812454E+02</totfact>
</mgrwt>
</event>
<event>
 4    1  0.7145298E-006  0.7270510E+03  0.7818608E-02  0.9672058E-01
          1   -1    0    0  501    0  0.00000000000E+00  0.00000000000E+00  0.55912112496E+02  0.55912112723E+02  0.50400000000E-02 0.  1.
         -1   -1    0    0    0  501 -0.00000000000E+00 -0.00000000000E+00 -0.23635451591E+04  0.23635451591E+04  0.50400000000E-02 0. -1.
    5000001    1    1    2    0    0 -0.27672373767E+03  0.63776529920E+02 -0.75112453642E+03  0.82564855839E+03  0.19200000000E+03 0.  0.
   -5000001    1    1    2    0    0  0.27672373767E+03 -0.63776529920E+02 -0.15565085102E+04  0.15938087135E+04  0.19200000000E+03 0.  0.
<mgrwt>
<rscale>  0 0.72705104E+03</rscale>
<asrwt>0</asrwt>
<pdfrwt beam="1">  1        1 0.79874462E-02 0.72705104E+03</pdfrwt>
<pdfrwt beam="2">  1       -1 0.33764925E+00 0.72705104E+03</pdfrwt>
<totfact> 0.18104647E+01</totfact>
</mgrwt>
</event>
<event>
 4    1  0.7145298E-006  0.7772072E+03  0.7818608E-02  0.9593608E-01
          1   -1    0    0  501    0  0.00000000000E+00  0.00000000000E+00  0.17189651146E+03  0.17189651153E+03  0.50400000000E-02 0.  1.
         -1   -1    0    0    0  501 -0.00000000000E+00 -0.00000000000E+00 -0.87850967891E+03  0.87850967893E+03  0.50400000000E-02 0. -1.
    5000001    1    1    2    0    0 -0.32127161191E+02  0.33530061244E+03 -0.38881036251E+03  0.54908665362E+03  0.19200000000E+03 0.  0.
   -5000001    1    1    2    0    0  0.32127161191E+02 -0.33530061244E+03 -0.31780280494E+03  0.50131953684E+03  0.19200000000E+03 0.  0.
<mgrwt>
<rscale>  0 0.77720718E+03</rscale>
<asrwt>0</asrwt>
<pdfrwt beam="1">  1        1 0.24556645E-01 0.77720718E+03</pdfrwt>
<pdfrwt beam="2">  1       -1 0.12550138E+00 0.77720718E+03</pdfrwt>
<totfact> 0.11228759E+02</totfact>
</mgrwt>
</event>
<event>
 4    1  0.7145298E-006  0.7347127E+03  0.7818608E-02  0.9659644E-01
         -1   -1    0    0    0  501 -0.00000000000E+00  0.00000000000E+00  0.32737988059E+03  0.32737988063E+03  0.50400000000E-02 0. -1.
          1   -1    0    0  501    0  0.00000000000E+00 -0.00000000000E+00 -0.41221436387E+03  0.41221436390E+03  0.50400000000E-02 0.  1.
    5000001    1    1    2    0    0  0.28798043188E+03  0.83620066811E+02 -0.13335930664E+03  0.38022854889E+03  0.19200000000E+03 0.  0.
   -5000001    1    1    2    0    0 -0.28798043188E+03 -0.83620066811E+02  0.48524823360E+02  0.35936569564E+03  0.19200000000E+03 0.  0.
<mgrwt>
<rscale>  0 0.73471270E+03</rscale>
<asrwt>0</asrwt>
<pdfrwt beam="1">  1        1 0.58887766E-01 0.73471270E+03</pdfrwt>
<pdfrwt beam="2">  1       -1 0.46768555E-01 0.73471270E+03</pdfrwt>
<totfact> 0.29315057E+02</totfact>
</mgrwt>
</event>
<event>
 4    1  0.7145298E-006  0.6632066E+03  0.7818608E-02  0.9782309E-01
         -1   -1    0    0    0  501 -0.00000000000E+00  0.00000000000E+00  0.71161480463E+02  0.71161480642E+02  0.50400000000E-02 0. -1.
          1   -1    0    0  501    0  0.00000000000E+00 -0.00000000000E+00 -0.15452285542E+04  0.15452285542E+04  0.50400000000E-02 0.  1.
    5000001    1    1    2    0    0  0.18926988830E+03 -0.14461723177E+03 -0.42530069243E+03  0.52391021494E+03  0.19200000000E+03 0.  0.
   -5000001    1    1    2    0    0 -0.18926988830E+03  0.14461723177E+03 -0.10487663813E+04  0.10924798199E+04  0.19200000000E+03 0.  0.
<mgrwt>
<rscale>  0 0.66320661E+03</rscale>
<asrwt>0</asrwt>
<pdfrwt beam="1">  1        1 0.22074692E+00 0.66320661E+03</pdfrwt>
<pdfrwt beam="2">  1       -1 0.10165927E-01 0.66320661E+03</pdfrwt>
<totfact> 0.45592295E+02</totfact>
</mgrwt>
</event>
<event>
 4    1  0.7145298E-006  0.4210148E+03  0.7818608E-02  0.1036737E+00
         -1   -1    0    0    0  501 -0.00000000000E+00  0.00000000000E+00  0.78131170061E+02  0.78131170224E+02  0.50400000000E-02 0. -1.
          1   -1    0    0  501    0  0.00000000000E+00 -0.00000000000E+00 -0.56716619412E+03  0.56716619414E+03  0.50400000000E-02 0.  1.
    5000001    1    1    2    0    0  0.10116697373E+02  0.65712215370E+02 -0.32887160298E+03  0.38657596157E+03  0.19200000000E+03 0.  0.
   -5000001    1    1    2    0    0 -0.10116697373E+02 -0.65712215370E+02 -0.16016342107E+03  0.25872140280E+03  0.19200000000E+03 0.  0.
<mgrwt>
<rscale>  0 0.42101477E+03</rscale>
<asrwt>0</asrwt>
<pdfrwt beam="1">  1        1 0.81023740E-01 0.42101477E+03</pdfrwt>
<pdfrwt beam="2">  1       -1 0.11161596E-01 0.42101477E+03</pdfrwt>
<totfact> 0.21719304E+03</totfact>
</mgrwt>
</event>
<event>
 4    1  0.7145298E-006  0.4920638E+03  0.7818608E-02  0.1015871E+00
         -1   -1    0    0    0  501 -0.00000000000E+00  0.00000000000E+00  0.39641484275E+03  0.39641484278E+03  0.50400000000E-02 0. -1.
          1   -1    0    0  501    0  0.00000000000E+00 -0.00000000000E+00 -0.15269787807E+03  0.15269787815E+03  0.50400000000E-02 0.  1.
    5000001    1    1    2    0    0  0.58767637375E+02 -0.14039831301E+03  0.14687102785E+03  0.28565787285E+03  0.19200000000E+03 0.  0.
   -5000001    1    1    2    0    0 -0.58767637375E+02  0.14039831301E+03  0.96845936831E+02  0.26345484808E+03  0.19200000000E+03 0.  0.
<mgrwt>
<rscale>  0 0.49206384E+03</rscale>
<asrwt>0</asrwt>
<pdfrwt beam="1">  1        1 0.21813983E-01 0.49206384E+03</pdfrwt>
<pdfrwt beam="2">  1       -1 0.56630692E-01 0.49206384E+03</pdfrwt>
<totfact> 0.74288191E+02</totfact>
</mgrwt>
</event>
<event>
 4    1  0.7145298E-006  0.5273040E+03  0.7818608E-02  0.1006888E+00
          1   -1    0    0  501    0  0.00000000000E+00  0.00000000000E+00  0.22628721809E+04  0.22628721809E+04  0.50400000000E-02 0.  1.
         -1   -1    0    0    0  501 -0.00000000000E+00 -0.00000000000E+00 -0.30718651932E+02  0.30718652345E+02  0.50400000000E-02 0. -1.
    5000001    1    1    2    0    0 -0.14800778242E+03  0.98590028555E+02  0.97701793316E+03  0.10114614867E+04  0.19200000000E+03 0.  0.
   -5000001    1    1    2    0    0  0.14800778242E+03 -0.98590028555E+02  0.12551355958E+04  0.12821293465E+04  0.19200000000E+03 0.  0.
<mgrwt>
<rscale>  0 0.52730402E+03</rscale>
<asrwt>0</asrwt>
<pdfrwt beam="1">  1        1 0.32326745E+00 0.52730402E+03</pdfrwt>
<pdfrwt beam="2">  1       -1 0.43883789E-02 0.52730402E+03</pdfrwt>
<totfact> 0.60452063E+02</totfact>
</mgrwt>
</event>
<event>
 4    1  0.7145298E-006  0.5565300E+03  0.7818608E-02  0.9999937E-01
          1   -1    0    0  501    0  0.00000000000E+00  0.00000000000E+00  0.23470298050E+03  0.23470298056E+03  0.50400000000E-02 0.  1.
         -1   -1    0    0    0  501 -0.00000000000E+00 -0.00000000000E+00 -0.32991233927E+03  0.32991233931E+03  0.50400000000E-02 0. -1.
    5000001    1    1    2    0    0 -0.12857300592E+03  0.15153908738E+03 -0.80826354301E+02  0.28790972962E+03  0.19200000000E+03 0.  0.
   -5000001    1    1    2    0    0  0.12857300592E+03 -0.15153908738E+03 -0.14383004461E+02  0.27670559025E+03  0.19200000000E+03 0.  0.
<mgrwt>
<rscale>  0 0.55653000E+03</rscale>
<asrwt>0</asrwt>
<pdfrwt beam="1">  1        1 0.33528997E-01 0.55653000E+03</pdfrwt>
<pdfrwt beam="2">  1       -1 0.47130334E-01 0.55653000E+03</pdfrwt>
<totfact> 0.60229970E+02</totfact>
</mgrwt>
</event>
<event>
 4    1  0.7145298E-006  0.4428632E+03  0.7818608E-02  0.1029872E+00
          1   -1    0    0  501    0  0.00000000000E+00  0.00000000000E+00  0.88188634104E+03  0.88188634106E+03  0.50400000000E-02 0.  1.
         -1   -1    0    0    0  501 -0.00000000000E+00 -0.00000000000E+00 -0.55598959230E+02  0.55598959458E+02  0.50400000000E-02 0. -1.
    5000001    1    1    2    0    0 -0.67721032028E+01  0.98646594991E+02  0.30963420615E+03  0.37751073323E+03  0.19200000000E+03 0.  0.
   -5000001    1    1    2    0    0  0.67721032028E+01 -0.98646594991E+02  0.51665317566E+03  0.55997456729E+03  0.19200000000E+03 0.  0.
<mgrwt>
<rscale>  0 0.44286324E+03</rscale>
<asrwt>0</asrwt>
<pdfrwt beam="1">  1        1 0.12598378E+00 0.44286324E+03</pdfrwt>
<pdfrwt beam="2">  1       -1 0.79427077E-02 0.44286324E+03</pdfrwt>
<totfact> 0.19388583E+03</totfact>
</mgrwt>
</event>
<event>
 4    1  0.7145298E-006  0.4770258E+03  0.7818608E-02  0.1019956E+00
          1   -1    0    0  501    0  0.00000000000E+00  0.00000000000E+00  0.65121976435E+02  0.65121976630E+02  0.50400000000E-02 0.  1.
         -1   -1    0    0    0  501 -0.00000000000E+00 -0.00000000000E+00 -0.87356690476E+03  0.87356690477E+03  0.50400000000E-02 0. -1.
    5000001    1    1    2    0    0  0.31334298722E+02  0.13235782907E+03 -0.32740356920E+03  0.40318423867E+03  0.19200000000E+03 0.  0.
   -5000001    1    1    2    0    0 -0.31334298722E+02 -0.13235782907E+03 -0.48104135913E+03  0.53550464273E+03  0.19200000000E+03 0.  0.
<mgrwt>
<rscale>  0 0.47702580E+03</rscale>
<asrwt>0</asrwt>
<pdfrwt beam="1">  1        1 0.93031400E-02 0.47702580E+03</pdfrwt>
<pdfrwt beam="2">  1       -1 0.12479527E+00 0.47702580E+03</pdfrwt>
<totfact> 0.42457638E+02</totfact>
</mgrwt>
</event>
<event>
 4    1  0.7145298E-006  0.6841205E+03  0.7818608E-02  0.9744780E-01
          1   -1    0    0  501    0  0.00000000000E+00  0.00000000000E+00  0.99922084635E+03  0.99922084636E+03  0.50400000000E-02 0.  1.
         -1   -1    0    0    0  501 -0.00000000000E+00 -0.00000000000E+00 -0.11709645855E+03  0.11709645866E+03  0.50400000000E-02 0. -1.
    5000001    1    1    2    0    0  0.26317628632E+03 -0.75164756170E+02  0.32305881785E+03  0.46491127976E+03  0.19200000000E+03 0.  0.
   -5000001    1    1    2    0    0 -0.26317628632E+03  0.75164756170E+02  0.55906556995E+03  0.65140602526E+03  0.19200000000E+03 0.  0.
<mgrwt>
<rscale>  0 0.68412052E+03</rscale>
<asrwt>0</asrwt>
<pdfrwt beam="1">  1        1 0.14274583E+00 0.68412052E+03</pdfrwt>
<pdfrwt beam="2">  1       -1 0.16728066E-01 0.68412052E+03</pdfrwt>
<totfact> 0.48024512E+02</totfact>
</mgrwt>
</event>
<event>
 4    1  0.7145298E-006  0.6033539E+03  0.7818608E-02  0.9898472E-01
         -1   -1    0    0    0  501 -0.00000000000E+00  0.00000000000E+00  0.87497087258E+03  0.87497087259E+03  0.50400000000E-02 0. -1.
          1   -1    0    0  501    0  0.00000000000E+00 -0.00000000000E+00 -0.10401374371E+03  0.10401374383E+03  0.50400000000E-02 0.  1.
    5000001    1    1    2    0    0  0.24573554826E+02 -0.22863581051E+03  0.32772773815E+03  0.44401313471E+03  0.19200000000E+03 0.  0.
   -5000001    1    1    2    0    0 -0.24573554826E+02  0.22863581051E+03  0.44322939072E+03  0.53497148171E+03  0.19200000000E+03 0.  0.
<mgrwt>
<rscale>  0 0.60335395E+03</rscale>
<asrwt>0</asrwt>
<pdfrwt beam="1">  1        1 0.14859106E-01 0.60335395E+03</pdfrwt>
<pdfrwt beam="2">  1       -1 0.12499584E+00 0.60335395E+03</pdfrwt>
<totfact> 0.22282854E+02</totfact>
</mgrwt>
</event>
<event>
 4    1  0.7145298E-006  0.5816503E+03  0.7818608E-02  0.9944225E-01
         -1   -1    0    0    0  501 -0.00000000000E+00  0.00000000000E+00  0.36770986701E+03  0.36770986704E+03  0.50400000000E-02 0. -1.
          1   -1    0    0  501    0  0.00000000000E+00 -0.00000000000E+00 -0.23001630476E+03  0.23001630482E+03  0.50400000000E-02 0.  1.
    5000001    1    1    2    0    0 -0.21194787847E+03 -0.36072978621E+02  0.29151437727E+02  0.28971877622E+03  0.19200000000E+03 0.  0.
   -5000001    1    1    2    0    0  0.21194787847E+03  0.36072978621E+02  0.10854212452E+03  0.30800739564E+03  0.19200000000E+03 0.  0.
<mgrwt>
<rscale>  0 0.58165029E+03</rscale>
<asrwt>0</asrwt>
<pdfrwt beam="1">  1        1 0.32859472E-01 0.58165029E+03</pdfrwt>
<pdfrwt beam="2">  1       -1 0.52529981E-01 0.58165029E+03</pdfrwt>
<totfact> 0.50376236E+02</totfact>
</mgrwt>
</event>
<event>
 4    1  0.7145298E-006  0.5885908E+03  0.7818608E-02  0.9929363E-01
          1   -1    0    0  501    0  0.00000000000E+00  0.00000000000E+00  0.80475532751E+03  0.80475532752E+03  0.50400000000E-02 0.  1.
         -1   -1    0    0    0  501 -0.00000000000E+00 -0.00000000000E+00 -0.10762249036E+03  0.10762249047E+03  0.50400000000E-02 0. -1.
    5000001    1    1    2    0    0  0.76283400060E+02  0.20578757307E+03  0.28698819131E+03  0.40913800155E+03  0.19200000000E+03 0.  0.
   -5000001    1    1    2    0    0 -0.76283400060E+02 -0.20578757307E+03  0.41014464584E+03  0.50323981645E+03  0.19200000000E+03 0.  0.
<mgrwt>
<rscale>  0 0.58859077E+03</rscale>
<asrwt>0</asrwt>
<pdfrwt beam="1">  1        1 0.11496505E+00 0.58859077E+03</pdfrwt>
<pdfrwt beam="2">  1       -1 0.15374641E-01 0.58859077E+03</pdfrwt>
<totfact> 0.78490553E+02</totfact>
</mgrwt>
</event>
<event>
 4    1  0.7145298E-006  0.8057426E+03  0.7818608E-02  0.9551742E-01
         -1   -1    0    0    0  501 -0.00000000000E+00  0.00000000000E+00  0.58137742481E+02  0.58137742700E+02  0.50400000000E-02 0. -1.
          1   -1    0    0  501    0  0.00000000000E+00 -0.00000000000E+00 -0.27917372299E+04  0.27917372299E+04  0.50400000000E-02 0.  1.
    5000001    1    1    2    0    0 -0.32990924128E+03 -0.11589988510E+03 -0.15658900532E+04  0.16159048702E+04  0.19200000000E+03 0.  0.
   -5000001    1    1    2    0    0  0.32990924128E+03  0.11589988510E+03 -0.11677094342E+04  0.12339701024E+04  0.19200000000E+03 0.  0.
<mgrwt>
<rscale>  0 0.80574264E+03</rscale>
<asrwt>0</asrwt>
<pdfrwt beam="1">  1        1 0.39881952E+00 0.80574264E+03</pdfrwt>
<pdfrwt beam="2">  1       -1 0.83053936E-02 0.80574264E+03</pdfrwt>
<totfact> 0.10265824E+02</totfact>
</mgrwt>
</event>
<event>
 4    1  0.7145298E-006  0.8661164E+03  0.7818608E-02  0.9468958E-01
         -1   -1    0    0    0  501 -0.00000000000E+00  0.00000000000E+00  0.23611154029E+03  0.23611154034E+03  0.50400000000E-02 0. -1.
          1   -1    0    0  501    0  0.00000000000E+00 -0.00000000000E+00 -0.79428316580E+03  0.79428316582E+03  0.50400000000E-02 0.  1.
    5000001    1    1    2    0    0 -0.27133991120E+03  0.71090008730E+02 -0.59830014369E+03  0.68811786686E+03  0.19200000000E+03 0.  0.
   -5000001    1    1    2    0    0  0.27133991120E+03 -0.71090008730E+02  0.40128518174E+02  0.34227683931E+03  0.19200000000E+03 0.  0.
<mgrwt>
<rscale>  0 0.86611644E+03</rscale>
<asrwt>0</asrwt>
<pdfrwt beam="1">  1        1 0.11346902E+00 0.86611644E+03</pdfrwt>
<pdfrwt beam="2">  1       -1 0.33730220E-01 0.86611644E+03</pdfrwt>
<totfact> 0.20983508E+02</totfact>
</mgrwt>
</event>
<event>
 4    1  0.7145298E-006  0.5213834E+03  0.7818608E-02  0.1008343E+00
         -1   -1    0    0    0  501 -0.00000000000E+00  0.00000000000E+00  0.33016900133E+02  0.33016900518E+02  0.50400000000E-02 0. -1.
          1   -1    0    0  501    0  0.00000000000E+00 -0.00000000000E+00 -0.20583445095E+04  0.20583445095E+04  0.50400000000E-02 0.  1.
    5000001    1    1    2    0    0 -0.11417209242E+03  0.12973357553E+03 -0.11533462928E+04  0.11819212065E+04  0.19200000000E+03 0.  0.
   -5000001    1    1    2    0    0  0.11417209242E+03 -0.12973357553E+03 -0.87198131658E+03  0.90944020351E+03  0.19200000000E+03 0.  0.
<mgrwt>
<rscale>  0 0.52138337E+03</rscale>
<asrwt>0</asrwt>
<pdfrwt beam="1">  1        1 0.29404913E+00 0.52138337E+03</pdfrwt>
<pdfrwt beam="2">  1       -1 0.47167014E-02 0.52138337E+03</pdfrwt>
<totfact> 0.72400673E+02</totfact>
</mgrwt>
</event>
<event>
 4    1  0.7145298E-006  0.5332508E+03  0.7818608E-02  0.1005447E+00
          1   -1    0    0  501    0  0.00000000000E+00  0.00000000000E+00  0.10745404615E+04  0.10745404615E+04  0.50400000000E-02 0.  1.
         -1   -1    0    0    0  501 -0.00000000000E+00 -0.00000000000E+00 -0.66157678135E+02  0.66157678327E+02  0.50400000000E-02 0. -1.
    5000001    1    1    2    0    0  0.15143544559E+03 -0.98185737388E+02  0.41724728351E+03  0.49349004934E+03  0.19200000000E+03 0.  0.
   -5000001    1    1    2    0    0 -0.15143544559E+03  0.98185737388E+02  0.59113549984E+03  0.64720809047E+03  0.19200000000E+03 0.  0.
<mgrwt>
<rscale>  0 0.53325079E+03</rscale>
<asrwt>0</asrwt>
<pdfrwt beam="1">  1        1 0.15350578E+00 0.53325079E+03</pdfrwt>
<pdfrwt beam="2">  1       -1 0.94510969E-02 0.53325079E+03</pdfrwt>
<totfact> 0.10617570E+03</totfact>
</mgrwt>
</event>
<event>
 4    1  0.7145298E-006  0.5946141E+03  0.7818608E-02  0.9916644E-01
         -1   -1    0    0    0  501 -0.00000000000E+00  0.00000000000E+00  0.53375762698E+03  0.53375762701E+03  0.50400000000E-02 0. -1.
          1   -1    0    0  501    0  0.00000000000E+00 -0.00000000000E+00 -0.16560228513E+03  0.16560228520E+03  0.50400000000E-02 0.  1.
    5000001    1    1    2    0    0  0.57761428650E+02  0.24005435120E+02 -0.72569623564E+02  0.21457631234E+03  0.19200000000E+03 0.  0.
   -5000001    1    1    2    0    0 -0.57761428650E+02 -0.24005435120E+02  0.44072496542E+03  0.48478359987E+03  0.19200000000E+03 0.  0.
<mgrwt>
<rscale>  0 0.59461410E+03</rscale>
<asrwt>0</asrwt>
<pdfrwt beam="1">  1        1 0.23657469E-01 0.59461410E+03</pdfrwt>
<pdfrwt beam="2">  1       -1 0.76251089E-01 0.59461410E+03</pdfrwt>
<totfact> 0.36752410E+02</totfact>
</mgrwt>
</event>
<event>
 4    1  0.7145298E-006  0.8614866E+03  0.7818608E-02  0.9475048E-01
         -1   -1    0    0    0  501 -0.00000000000E+00  0.00000000000E+00  0.59230871883E+03  0.59230871885E+03  0.50400000000E-02 0. -1.
          1   -1    0    0  501    0  0.00000000000E+00 -0.00000000000E+00 -0.31324848870E+03  0.31324848874E+03  0.50400000000E-02 0.  1.
    5000001    1    1    2    0    0  0.18464941437E+03 -0.32944932029E+03  0.57812928247E+02  0.42759629972E+03  0.19200000000E+03 0.  0.
   -5000001    1    1    2    0    0 -0.18464941437E+03  0.32944932029E+03  0.22124730188E+03  0.47796090787E+03  0.19200000000E+03 0.  0.
<mgrwt>
<rscale>  0 0.86148665E+03</rscale>
<asrwt>0</asrwt>
<pdfrwt beam="1">  1        1 0.44749784E-01 0.86148665E+03</pdfrwt>
<pdfrwt beam="2">  1       -1 0.84615531E-01 0.86148665E+03</pdfrwt>
<totfact> 0.12741419E+02</totfact>
</mgrwt>
</event>
<event>
 4    1  0.7145298E-006  0.6988918E+03  0.7818608E-02  0.9719129E-01
         -1   -1    0    0    0  501 -0.00000000000E+00  0.00000000000E+00  0.62551229785E+02  0.62551229988E+02  0.50400000000E-02 0. -1.
          1   -1    0    0  501    0  0.00000000000E+00 -0.00000000000E+00 -0.19521988881E+04  0.19521988881E+04  0.50400000000E-02 0.  1.
    5000001    1    1    2    0    0 -0.18146472271E+03  0.22825409374E+03 -0.98749133845E+03  0.10473932024E+04  0.19200000000E+03 0.  0.
   -5000001    1    1    2    0    0  0.18146472271E+03 -0.22825409374E+03 -0.90215631989E+03  0.96735691573E+03  0.19200000000E+03 0.  0.
<mgrwt>
<rscale>  0 0.69889181E+03</rscale>
<asrwt>0</asrwt>
<pdfrwt beam="1">  1        1 0.27888552E+00 0.69889181E+03</pdfrwt>
<pdfrwt beam="2">  1       -1 0.89358912E-02 0.69889181E+03</pdfrwt>
<totfact> 0.30958294E+02</totfact>
</mgrwt>
</event>
<event>
 4    1  0.7145298E-006  0.5010771E+03  0.7818608E-02  0.1013498E+00
          1   -1    0    0  501    0  0.00000000000E+00  0.00000000000E+00  0.42551024191E+04  0.42551024191E+04  0.50400000000E-02 0.  1.
         -1   -1    0    0    0  501 -0.00000000000E+00 -0.00000000000E+00 -0.14751600756E+02  0.14751601617E+02  0.50400000000E-02 0. -1.
    5000001    1    1    2    0    0  0.15591227431E+03 -0.14956836906E+02  0.18043987479E+04  0.18213322557E+04  0.19200000000E+03 0.  0.
   -5000001    1    1    2    0    0 -0.15591227431E+03  0.14956836906E+02  0.24359520705E+04  0.24485217651E+04  0.19200000000E+03 0.  0.
<mgrwt>
<rscale>  0 0.50107714E+03</rscale>
<asrwt>0</asrwt>
<pdfrwt beam="1">  1        1 0.60787260E+00 0.50107714E+03</pdfrwt>
<pdfrwt beam="2">  1       -1 0.21073687E-02 0.50107714E+03</pdfrwt>
<totfact> 0.82723420E+01</totfact>
</mgrwt>
</event>
<event>
 4    1  0.7145298E-006  0.4936164E+03  0.7818608E-02  0.1015459E+00
          1   -1    0    0  501    0  0.00000000000E+00  0.00000000000E+00  0.37852890446E+03  0.37852890449E+03  0.50400000000E-02 0.  1.
         -1   -1    0    0    0  501 -0.00000000000E+00 -0.00000000000E+00 -0.16092373588E+03  0.16092373596E+03  0.50400000000E-02 0. -1.
    5000001    1    1    2    0    0  0.11123512860E+03 -0.14061003604E+02  0.22589312949E+03  0.31695846985E+03  0.19200000000E+03 0.  0.
   -5000001    1    1    2    0    0 -0.11123512860E+03  0.14061003604E+02 -0.82879609076E+01  0.22249417061E+03  0.19200000000E+03 0.  0.
<mgrwt>
<rscale>  0 0.49361639E+03</rscale>
<asrwt>0</asrwt>
<pdfrwt beam="1">  1        1 0.54075557E-01 0.49361639E+03</pdfrwt>
<pdfrwt beam="2">  1       -1 0.22989105E-01 0.49361639E+03</pdfrwt>
<totfact> 0.11513734E+03</totfact>
</mgrwt>
</event>
<event>
 4    1  0.7145298E-006  0.7901925E+03  0.7818608E-02  0.9574323E-01
         -1   -1    0    0    0  501 -0.00000000000E+00  0.00000000000E+00  0.13405865235E+03  0.13405865244E+03  0.50400000000E-02 0. -1.
          1   -1    0    0  501    0  0.00000000000E+00 -0.00000000000E+00 -0.11644235948E+04  0.11644235949E+04  0.50400000000E-02 0.  1.
    5000001    1    1    2    0    0  0.29889584000E+03 -0.11742011661E+02 -0.23170214953E+03  0.42429527938E+03  0.19200000000E+03 0.  0.
   -5000001    1    1    2    0    0 -0.29889584000E+03  0.11742011661E+02 -0.79866279297E+03  0.87418696792E+03  0.19200000000E+03 0.  0.
<mgrwt>
<rscale>  0 0.79019253E+03</rscale>
<asrwt>0</asrwt>
<pdfrwt beam="1">  1        1 0.16634622E+00 0.79019253E+03</pdfrwt>
<pdfrwt beam="2">  1       -1 0.19151237E-01 0.79019253E+03</pdfrwt>
<totfact> 0.29077121E+02</totfact>
</mgrwt>
</event>
<event>
 4    1  0.7145298E-006  0.6449729E+03  0.7818608E-02  0.9816258E-01
         -1   -1    0    0    0  501 -0.00000000000E+00  0.00000000000E+00  0.86016850047E+02  0.86016850194E+02  0.50400000000E-02 0.  1.
          1   -1    0    0  501    0  0.00000000000E+00 -0.00000000000E+00 -0.12090363238E+04  0.12090363238E+04  0.50400000000E-02 0. -1.
    5000001    1    1    2    0    0  0.11072361304E+02  0.25202530970E+03 -0.68020037368E+03  0.75045046624E+03  0.19200000000E+03 0.  0.
   -5000001    1    1    2    0    0 -0.11072361304E+02 -0.25202530970E+03 -0.44281910004E+03  0.54460270773E+03  0.19200000000E+03 0.  0.
<mgrwt>
<rscale>  0 0.64497286E+03</rscale>
<asrwt>0</asrwt>
<pdfrwt beam="1">  1        1 0.17271946E+00 0.64497286E+03</pdfrwt>
<pdfrwt beam="2">  1       -1 0.12288122E-01 0.64497286E+03</pdfrwt>
<totfact> 0.56202482E+02</totfact>
</mgrwt>
</event>
<event>
 4    1  0.7145298E-006  0.5528548E+03  0.7818608E-02  0.1000835E+00
         -1   -1    0    0    0  501 -0.00000000000E+00  0.00000000000E+00  0.35361655235E+03  0.35361655239E+03  0.50400000000E-02 0. -1.
          1   -1    0    0  501    0  0.00000000000E+00 -0.00000000000E+00 -0.21608744517E+03  0.21608744522E+03  0.50400000000E-02 0.  1.
    5000001    1    1    2    0    0 -0.17904547199E+03  0.53120068792E+02 -0.16485714642E+01  0.26785395375E+03  0.19200000000E+03 0.  0.
   -5000001    1    1    2    0    0  0.17904547199E+03 -0.53120068792E+02  0.13917767865E+03  0.30185004387E+03  0.19200000000E+03 0.  0.
<mgrwt>
<rscale>  0 0.55285476E+03</rscale>
<asrwt>0</asrwt>
<pdfrwt beam="1">  1        1 0.30869635E-01 0.55285476E+03</pdfrwt>
<pdfrwt beam="2">  1       -1 0.50516650E-01 0.55285476E+03</pdfrwt>
<totfact> 0.58828712E+02</totfact>
</mgrwt>
</event>
<event>
 4    1  0.7145298E-006  0.1176078E+04  0.7818608E-02  0.9134057E-01
         -1   -1    0    0    0  501 -0.00000000000E+00  0.00000000000E+00  0.43380490208E+03  0.43380490211E+03  0.50400000000E-02 0. -1.
          1   -1    0    0  501    0  0.00000000000E+00 -0.00000000000E+00 -0.79710968877E+03  0.79710968878E+03  0.50400000000E-02 0.  1.
    5000001    1    1    2    0    0 -0.67222989571E+02 -0.46045342439E+03 -0.49978169757E+03  0.70935324880E+03  0.19200000000E+03 0.  0.
   -5000001    1    1    2    0    0  0.67222989571E+02  0.46045342439E+03  0.13647691088E+03  0.52156134209E+03  0.19200000000E+03 0.  0.
<mgrwt>
<rscale>  0 0.11760784E+04</rscale>
<asrwt>0</asrwt>
<pdfrwt beam="1">  1        1 0.11387281E+00 0.11760784E+04</pdfrwt>
<pdfrwt beam="2">  1       -1 0.61972129E-01 0.11760784E+04</pdfrwt>
<totfact> 0.65537564E+01</totfact>
</mgrwt>
</event>
<event>
 4    1  0.7145298E-006  0.5215334E+03  0.7818608E-02  0.1008306E+00
         -1   -1    0    0    0  501 -0.00000000000E+00  0.00000000000E+00  0.21966756582E+03  0.21966756587E+03  0.50400000000E-02 0. -1.
          1   -1    0    0  501    0  0.00000000000E+00 -0.00000000000E+00 -0.30955533829E+03  0.30955533834E+03  0.50400000000E-02 0.  1.
    5000001    1    1    2    0    0  0.24276778863E+02 -0.17199828686E+03 -0.76425411062E+02  0.26995854521E+03  0.19200000000E+03 0.  0.
   -5000001    1    1    2    0    0 -0.24276778863E+02  0.17199828686E+03 -0.13462361417E+02  0.25926435900E+03  0.19200000000E+03 0.  0.
<mgrwt>
<rscale>  0 0.52153338E+03</rscale>
<asrwt>0</asrwt>
<pdfrwt beam="1">  1        1 0.44222191E-01 0.52153338E+03</pdfrwt>
<pdfrwt beam="2">  1       -1 0.31381081E-01 0.52153338E+03</pdfrwt>
<totfact> 0.87719527E+02</totfact>
</mgrwt>
</event>
<event>
 4    1  0.7145298E-006  0.6472765E+03  0.7818608E-02  0.9811903E-01
         -1   -1    0    0    0  501 -0.00000000000E+00  0.00000000000E+00  0.50722215944E+02  0.50722216194E+02  0.50400000000E-02 0.  1.
          1   -1    0    0  501    0  0.00000000000E+00 -0.00000000000E+00 -0.20650065851E+04  0.20650065851E+04  0.50400000000E-02 0. -1.
    5000001    1    1    2    0    0 -0.16583307201E+03 -0.19995738750E+03 -0.10720352847E+04  0.11196460227E+04  0.19200000000E+03 0.  0.
   -5000001    1    1    2    0    0  0.16583307201E+03  0.19995738750E+03 -0.94224908445E+03  0.99608277855E+03  0.19200000000E+03 0.  0.
<mgrwt>
<rscale>  0 0.64727648E+03</rscale>
<asrwt>0</asrwt>
<pdfrwt beam="1">  1        1 0.29500089E+00 0.64727648E+03</pdfrwt>
<pdfrwt beam="2">  1       -1 0.72460321E-02 0.64727648E+03</pdfrwt>
<totfact> 0.36721590E+02</totfact>
</mgrwt>
</event>
<event>
 4    1  0.7145298E-006  0.7995066E+03  0.7818608E-02  0.9560731E-01
          1   -1    0    0  501    0  0.00000000000E+00  0.00000000000E+00  0.68591697865E+03  0.68591697867E+03  0.50400000000E-02 0.  1.
         -1   -1    0    0    0  501 -0.00000000000E+00 -0.00000000000E+00 -0.23297676431E+03  0.23297676436E+03  0.50400000000E-02 0. -1.
    5000001    1    1    2    0    0 -0.31075334524E+03 -0.10752043204E+03  0.86599293460E+02  0.39050188541E+03  0.19200000000E+03 0.  0.
   -5000001    1    1    2    0    0  0.31075334524E+03  0.10752043204E+03  0.36634092088E+03  0.52839185762E+03  0.19200000000E+03 0.  0.
<mgrwt>
<rscale>  0 0.79950664E+03</rscale>
<asrwt>0</asrwt>
<pdfrwt beam="1">  1        1 0.97988140E-01 0.79950664E+03</pdfrwt>
<pdfrwt beam="2">  1       -1 0.33282395E-01 0.79950664E+03</pdfrwt>
<totfact> 0.26880746E+02</totfact>
</mgrwt>
</event>
<event>
 4    1  0.7145298E-006  0.9508993E+03  0.7818608E-02  0.9364100E-01
          1   -1    0    0  501    0  0.00000000000E+00  0.00000000000E+00  0.17046757478E+04  0.17046757478E+04  0.50400000000E-02 0.  1.
         -1   -1    0    0    0  501 -0.00000000000E+00 -0.00000000000E+00 -0.13260724306E+03  0.13260724315E+03  0.50400000000E-02 0. -1.
    5000001    1    1    2    0    0 -0.25005422892E+03 -0.34476939479E+03  0.61544254537E+03  0.77267495083E+03  0.19200000000E+03 0.  0.
   -5000001    1    1    2    0    0  0.25005422892E+03  0.34476939479E+03  0.95662595940E+03  0.10646080402E+04  0.19200000000E+03 0.  0.
<mgrwt>
<rscale>  0 0.95089926E+03</rscale>
<asrwt>0</asrwt>
<pdfrwt beam="1">  1        1 0.24352511E+00 0.95089926E+03</pdfrwt>
<pdfrwt beam="2">  1       -1 0.18943892E-01 0.95089926E+03</pdfrwt>
<totfact> 0.12916956E+02</totfact>
</mgrwt>
</event>
<event>
 4    1  0.7145298E-006  0.4904979E+03  0.7818608E-02  0.1016289E+00
         -1   -1    0    0    0  501 -0.00000000000E+00  0.00000000000E+00  0.12679908892E+03  0.12679908902E+03  0.50400000000E-02 0.  1.
          1   -1    0    0  501    0  0.00000000000E+00 -0.00000000000E+00 -0.47434914945E+03  0.47434914948E+03  0.50400000000E-02 0. -1.
    5000001    1    1    2    0    0 -0.13194117541E+03  0.55364453625E+02 -0.10881490147E+03  0.26301783072E+03  0.19200000000E+03 0.  0.
   -5000001    1    1    2    0    0  0.13194117541E+03 -0.55364453625E+02 -0.23873515906E+03  0.33813040778E+03  0.19200000000E+03 0.  0.
<mgrwt>
<rscale>  0 0.49049787E+03</rscale>
<asrwt>0</asrwt>
<pdfrwt beam="1">  1        1 0.67764164E-01 0.49049787E+03</pdfrwt>
<pdfrwt beam="2">  1       -1 0.18114156E-01 0.49049787E+03</pdfrwt>
<totfact> 0.12714028E+03</totfact>
</mgrwt>
</event>
<event>
 4    1  0.7145298E-006  0.7478334E+03  0.7818608E-02  0.9638756E-01
          1   -1    0    0  501    0  0.00000000000E+00  0.00000000000E+00  0.74148990248E+03  0.74148990250E+03  0.50400000000E-02 0.  1.
         -1   -1    0    0    0  501 -0.00000000000E+00 -0.00000000000E+00 -0.18855777258E+03  0.18855777265E+03  0.50400000000E-02 0. -1.
    5000001    1    1    2    0    0  0.17778638201E+03 -0.26647162884E+03  0.29921368576E+03  0.47854775765E+03  0.19200000000E+03 0.  0.
   -5000001    1    1    2    0    0 -0.17778638201E+03  0.26647162884E+03  0.25371844414E+03  0.45149991750E+03  0.19200000000E+03 0.  0.
<mgrwt>
<rscale>  0 0.74783336E+03</rscale>
<asrwt>0</asrwt>
<pdfrwt beam="1">  1        1 0.10592713E+00 0.74783336E+03</pdfrwt>
<pdfrwt beam="2">  1       -1 0.26936825E-01 0.74783336E+03</pdfrwt>
<totfact> 0.34707792E+02</totfact>
</mgrwt>
</event>
<event>
 4    1  0.7145298E-006  0.5033746E+03  0.7818608E-02  0.1012902E+00
          1   -1    0    0  501    0  0.00000000000E+00  0.00000000000E+00  0.27398941164E+04  0.27398941164E+04  0.50400000000E-02 0.  1.
         -1   -1    0    0    0  501 -0.00000000000E+00 -0.00000000000E+00 -0.23120053228E+02  0.23120053778E+02  0.50400000000E-02 0. -1.
    5000001    1    1    2    0    0  0.12702832324E+03  0.58721827648E+01  0.19157774450E+04  0.19295693551E+04  0.19200000000E+03 0.  0.
   -5000001    1    1    2    0    0 -0.12702832324E+03 -0.58721827648E+01  0.80099661816E+03  0.83344481506E+03  0.19200000000E+03 0.  0.
<mgrwt>
<rscale>  0 0.50337461E+03</rscale>
<asrwt>0</asrwt>
<pdfrwt beam="1">  1        1 0.39141361E+00 0.50337461E+03</pdfrwt>
<pdfrwt beam="2">  1       -1 0.33028634E-02 0.50337461E+03</pdfrwt>
<totfact> 0.47017098E+02</totfact>
</mgrwt>
</event>
<event>
 4    1  0.7145298E-006  0.5129892E+03  0.7818608E-02  0.1010443E+00
         -1   -1    0    0    0  501 -0.00000000000E+00  0.00000000000E+00  0.55594236078E+03  0.55594236081E+03  0.50400000000E-02 0. -1.
          1   -1    0    0  501    0  0.00000000000E+00 -0.00000000000E+00 -0.11833869146E+03  0.11833869156E+03  0.50400000000E-02 0.  1.
    5000001    1    1    2    0    0  0.15063383551E+03 -0.17438639607E+02  0.11757619198E+03  0.27144579472E+03  0.19200000000E+03 0.  0.
   -5000001    1    1    2    0    0 -0.15063383551E+03  0.17438639607E+02  0.32002747735E+03  0.40283525765E+03  0.19200000000E+03 0.  0.
<mgrwt>
<rscale>  0 0.51298925E+03</rscale>
<asrwt>0</asrwt>
<pdfrwt beam="1">  1        1 0.16905527E-01 0.51298925E+03</pdfrwt>
<pdfrwt beam="2">  1       -1 0.79420337E-01 0.51298925E+03</pdfrwt>
<totfact> 0.52644366E+02</totfact>
</mgrwt>
</event>
<event>
 4    1  0.7145298E-006  0.5650911E+03  0.7818608E-02  0.9980600E-01
          1   -1    0    0  501    0  0.00000000000E+00  0.00000000000E+00  0.11469655553E+04  0.11469655553E+04  0.50400000000E-02 0.  1.
         -1   -1    0    0    0  501 -0.00000000000E+00 -0.00000000000E+00 -0.69602782885E+02  0.69602783068E+02  0.50400000000E-02 0. -1.
    5000001    1    1    2    0    0  0.20252544095E+03  0.38799036174E+02  0.49321168912E+03  0.56801733224E+03  0.19200000000E+03 0.  0.
   -5000001    1    1    2    0    0 -0.20252544095E+03 -0.38799036174E+02  0.58415108325E+03  0.64855100610E+03  0.19200000000E+03 0.  0.
<mgrwt>
<rscale>  0 0.56509112E+03</rscale>
<asrwt>0</asrwt>
<pdfrwt beam="1">  1        1 0.16385223E+00 0.56509112E+03</pdfrwt>
<pdfrwt beam="2">  1       -1 0.99432543E-02 0.56509112E+03</pdfrwt>
<totfact> 0.87084840E+02</totfact>
</mgrwt>
</event>
<event>
 4    1  0.7145298E-006  0.7517668E+03  0.7818608E-02  0.9632583E-01
          1   -1    0    0  501    0  0.00000000000E+00  0.00000000000E+00  0.98405545549E+03  0.98405545550E+03  0.50400000000E-02 0. -1.
         -1   -1    0    0    0  501 -0.00000000000E+00 -0.00000000000E+00 -0.14357762889E+03  0.14357762898E+03  0.50400000000E-02 0.  1.
    5000001    1    1    2    0    0 -0.10205278099E+03  0.21334940982E+03  0.89931795300E+02  0.31762315499E+03  0.19200000000E+03 0.  0.
   -5000001    1    1    2    0    0  0.10205278099E+03 -0.21334940982E+03  0.75054603129E+03  0.81000992949E+03  0.19200000000E+03 0.  0.
<mgrwt>
<rscale>  0 0.75176685E+03</rscale>
<asrwt>0</asrwt>
<pdfrwt beam="1">  1        1 0.14057935E+00 0.75176685E+03</pdfrwt>
<pdfrwt beam="2">  1       -1 0.20511090E-01 0.75176685E+03</pdfrwt>
<totfact> 0.35077915E+02</totfact>
</mgrwt>
</event>
<event>
 4    1  0.7145298E-006  0.8696032E+03  0.7818608E-02  0.9464397E-01
         -1   -1    0    0    0  501 -0.00000000000E+00  0.00000000000E+00  0.24840922810E+03  0.24840922815E+03  0.50400000000E-02 0.  1.
          1   -1    0    0  501    0  0.00000000000E+00 -0.00000000000E+00 -0.76105236343E+03  0.76105236345E+03  0.50400000000E-02 0. -1.
    5000001    1    1    2    0    0 -0.34764605456E+03 -0.16633280895E+02 -0.51758447058E+02  0.40084583337E+03  0.19200000000E+03 0.  0.
   -5000001    1    1    2    0    0  0.34764605456E+03  0.16633280895E+02 -0.46088468827E+03  0.60861575823E+03  0.19200000000E+03 0.  0.
<mgrwt>
<rscale>  0 0.86960320E+03</rscale>
<asrwt>0</asrwt>
<pdfrwt beam="1">  1        1 0.10872176E+00 0.86960320E+03</pdfrwt>
<pdfrwt beam="2">  1       -1 0.35487033E-01 0.86960320E+03</pdfrwt>
<totfact> 0.20464189E+02</totfact>
</mgrwt>
</event>
<event>
 4    1  0.7145298E-006  0.9108080E+03  0.7818608E-02  0.9412171E-01
          1   -1    0    0  501    0  0.00000000000E+00  0.00000000000E+00  0.24364821377E+04  0.24364821377E+04  0.50400000000E-02 0.  1.
         -1   -1    0    0    0  501 -0.00000000000E+00 -0.00000000000E+00 -0.85119772927E+02  0.85119773076E+02  0.50400000000E-02 0. -1.
    5000001    1    1    2    0    0  0.24351862915E+03 -0.31795651826E+03  0.89701853229E+03  0.10009515061E+04  0.19200000000E+03 0.  0.
   -5000001    1    1    2    0    0 -0.24351862915E+03  0.31795651826E+03  0.14543438325E+04  0.15206504047E+04  0.19200000000E+03 0.  0.
<mgrwt>
<rscale>  0 0.91080801E+03</rscale>
<asrwt>0</asrwt>
<pdfrwt beam="1">  1        1 0.34806887E+00 0.91080801E+03</pdfrwt>
<pdfrwt beam="2">  1       -1 0.12159968E-01 0.91080801E+03</pdfrwt>
<totfact> 0.93102286E+01</totfact>
</mgrwt>
</event>
<event>
 4    1  0.7145298E-006  0.5072754E+03  0.7818608E-02  0.1011897E+00
         -1   -1    0    0    0  501 -0.00000000000E+00  0.00000000000E+00  0.82035681661E+02  0.82035681816E+02  0.50400000000E-02 0. -1.
          1   -1    0    0  501    0  0.00000000000E+00 -0.00000000000E+00 -0.78419637059E+03  0.78419637061E+03  0.50400000000E-02 0.  1.
    5000001    1    1    2    0    0 -0.21430112042E+01 -0.16556680267E+03 -0.33887055540E+03  0.42321887004E+03  0.19200000000E+03 0.  0.
   -5000001    1    1    2    0    0  0.21430112042E+01  0.16556680267E+03 -0.36329013354E+03  0.44301318239E+03  0.19200000000E+03 0.  0.
<mgrwt>
<rscale>  0 0.50727540E+03</rscale>
<asrwt>0</asrwt>
<pdfrwt beam="1">  1        1 0.11202805E+00 0.50727540E+03</pdfrwt>
<pdfrwt beam="2">  1       -1 0.11719384E-01 0.50727540E+03</pdfrwt>
<totfact> 0.12640251E+03</totfact>
</mgrwt>
</event>
<event>
 4    1  0.7145298E-006  0.1655806E+04  0.7818608E-02  0.8786979E-01
         -1   -1    0    0    0  501 -0.00000000000E+00  0.00000000000E+00  0.18248965625E+04  0.18248965625E+04  0.50400000000E-02 0. -1.
          1   -1    0    0  501    0  0.00000000000E+00 -0.00000000000E+00 -0.37559565314E+03  0.37559565317E+03  0.50400000000E-02 0.  1.
    5000001    1    1    2    0    0 -0.77660712434E+03 -0.98374313553E+02  0.97597095996E+03  0.12657722725E+04  0.19200000000E+03 0.  0.
   -5000001    1    1    2    0    0  0.77660712434E+03  0.98374313553E+02  0.47332994936E+03  0.93471994314E+03  0.19200000000E+03 0.  0.
<mgrwt>
<rscale>  0 0.16558058E+04</rscale>
<asrwt>0</asrwt>
<pdfrwt beam="1">  1        1 0.53656521E-01 0.16558058E+04</pdfrwt>
<pdfrwt beam="2">  1       -1 0.26069951E+00 0.16558058E+04</pdfrwt>
<totfact> 0.40923232E+00</totfact>
</mgrwt>
</event>
<event>
 4    1  0.7145298E-006  0.4218184E+03  0.7818608E-02  0.1036476E+00
          1   -1    0    0  501    0  0.00000000000E+00  0.00000000000E+00  0.14995134037E+03  0.14995134045E+03  0.50400000000E-02 0. -1.
         -1   -1    0    0    0  501 -0.00000000000E+00 -0.00000000000E+00 -0.29664743409E+03  0.29664743413E+03  0.50400000000E-02 0.  1.
    5000001    1    1    2    0    0 -0.56575287837E+02 -0.66465636480E+02 -0.72833316443E+02  0.22313031173E+03  0.19200000000E+03 0.  0.
   -5000001    1    1    2    0    0  0.56575287837E+02  0.66465636480E+02 -0.73862777279E+02  0.22346846286E+03  0.19200000000E+03 0.  0.
<mgrwt>
<rscale>  0 0.42181835E+03</rscale>
<asrwt>0</asrwt>
<pdfrwt beam="1">  1        1 0.21421620E-01 0.42181835E+03</pdfrwt>
<pdfrwt beam="2">  1       -1 0.42378205E-01 0.42181835E+03</pdfrwt>
<totfact> 0.13069923E+03</totfact>
</mgrwt>
</event>
<event>
 4    1  0.7145298E-006  0.5479449E+03  0.7818608E-02  0.1001971E+00
         -1   -1    0    0    0  501 -0.00000000000E+00  0.00000000000E+00  0.13346177503E+03  0.13346177513E+03  0.50400000000E-02 0.  1.
          1   -1    0    0  501    0  0.00000000000E+00 -0.00000000000E+00 -0.56241499444E+03  0.56241499446E+03  0.50400000000E-02 0. -1.
    5000001    1    1    2    0    0  0.59811073424E+02 -0.15571005009E+03 -0.34382674336E+03  0.42767255424E+03  0.19200000000E+03 0.  0.
   -5000001    1    1    2    0    0 -0.59811073424E+02  0.15571005009E+03 -0.85126476047E+02  0.26820421534E+03  0.19200000000E+03 0.  0.
<mgrwt>
<rscale>  0 0.54794490E+03</rscale>
<asrwt>0</asrwt>
<pdfrwt beam="1">  1        1 0.80344998E-01 0.54794490E+03</pdfrwt>
<pdfrwt beam="2">  1       -1 0.19065968E-01 0.54794490E+03</pdfrwt>
<totfact> 0.92841257E+02</totfact>
</mgrwt>
</event>
<event>
 4    1  0.7145298E-006  0.4792557E+03  0.7818608E-02  0.1019340E+00
          1   -1    0    0  501    0  0.00000000000E+00  0.00000000000E+00  0.40240196561E+03  0.40240196565E+03  0.50400000000E-02 0.  1.
         -1   -1    0    0    0  501 -0.00000000000E+00 -0.00000000000E+00 -0.14269687754E+03  0.14269687763E+03  0.50400000000E-02 0. -1.
    5000001    1    1    2    0    0 -0.14048129530E+03 -0.24837808652E+02  0.14616097267E+03  0.28031935538E+03  0.19200000000E+03 0.  0.
   -5000001    1    1    2    0    0  0.14048129530E+03  0.24837808652E+02  0.11354411541E+03  0.26477948790E+03  0.19200000000E+03 0.  0.
<mgrwt>
<rscale>  0 0.47925569E+03</rscale>
<asrwt>0</asrwt>
<pdfrwt beam="1">  1        1 0.57485995E-01 0.47925569E+03</pdfrwt>
<pdfrwt beam="2">  1       -1 0.20385268E-01 0.47925569E+03</pdfrwt>
<totfact> 0.12990058E+03</totfact>
</mgrwt>
</event>
<event>
 4    1  0.7145298E-006  0.5153053E+03  0.7818608E-02  0.1009859E+00
          1   -1    0    0  501    0  0.00000000000E+00  0.00000000000E+00  0.86907447429E+02  0.86907447575E+02  0.50400000000E-02 0.  1.
         -1   -1    0    0    0  501 -0.00000000000E+00 -0.00000000000E+00 -0.76385729855E+03  0.76385729856E+03  0.50400000000E-02 0. -1.
    5000001    1    1    2    0    0 -0.14962971041E+03 -0.68763535186E+02 -0.41941417562E+03  0.48978538639E+03  0.19200000000E+03 0.  0.
   -5000001    1    1    2    0    0  0.14962971041E+03  0.68763535186E+02 -0.25753567549E+03  0.36097935974E+03  0.19200000000E+03 0.  0.
<mgrwt>
<rscale>  0 0.51530530E+03</rscale>
<asrwt>0</asrwt>
<pdfrwt beam="1">  1        1 0.12415350E-01 0.51530530E+03</pdfrwt>
<pdfrwt beam="2">  1       -1 0.10912247E+00 0.51530530E+03</pdfrwt>
<totfact> 0.39442479E+02</totfact>
</mgrwt>
</event>
<event>
 4    1  0.7145298E-006  0.5965753E+03  0.7818608E-02  0.9912537E-01
         -1   -1    0    0    0  501 -0.00000000000E+00  0.00000000000E+00  0.16701689456E+03  0.16701689463E+03  0.50400000000E-02 0.  1.
          1   -1    0    0  501    0  0.00000000000E+00 -0.00000000000E+00 -0.53273361927E+03  0.53273361929E+03  0.50400000000E-02 0. -1.
    5000001    1    1    2    0    0 -0.15441877469E+03  0.15734070042E+03 -0.11336430540E+03  0.31355497082E+03  0.19200000000E+03 0.  0.
   -5000001    1    1    2    0    0  0.15441877469E+03 -0.15734070042E+03 -0.25235241931E+03  0.38619554311E+03  0.19200000000E+03 0.  0.
<mgrwt>
<rscale>  0 0.59657528E+03</rscale>
<asrwt>0</asrwt>
<pdfrwt beam="1">  1        1 0.76104802E-01 0.59657528E+03</pdfrwt>
<pdfrwt beam="2">  1       -1 0.23859557E-01 0.59657528E+03</pdfrwt>
<totfact> 0.68724899E+02</totfact>
</mgrwt>
</event>
<event>
 4    1  0.7145298E-006  0.7850894E+03  0.7818608E-02  0.9581854E-01
         -1   -1    0    0    0  501 -0.00000000000E+00  0.00000000000E+00  0.62872508239E+03  0.62872508241E+03  0.50400000000E-02 0. -1.
          1   -1    0    0  501    0  0.00000000000E+00 -0.00000000000E+00 -0.24508539100E+03  0.24508539105E+03  0.50400000000E-02 0.  1.
    5000001    1    1    2    0    0 -0.20697416294E+03 -0.21948154508E+03  0.37203389580E+03  0.51602681363E+03  0.19200000000E+03 0.  0.
   -5000001    1    1    2    0    0  0.20697416294E+03  0.21948154508E+03  0.11605795589E+02  0.35778365984E+03  0.19200000000E+03 0.  0.
<mgrwt>
<rscale>  0 0.78508938E+03</rscale>
<asrwt>0</asrwt>
<pdfrwt beam="1">  1        1 0.35012199E-01 0.78508938E+03</pdfrwt>
<pdfrwt beam="2">  1       -1 0.89817869E-01 0.78508938E+03</pdfrwt>
<totfact> 0.15434163E+02</totfact>
</mgrwt>
</event>
<event>
 4    1  0.7145298E-006  0.6583788E+03  0.7818608E-02  0.9791183E-01
         -1   -1    0    0    0  501 -0.00000000000E+00  0.00000000000E+00  0.12516418289E+04  0.12516418290E+04  0.50400000000E-02 0. -1.
          1   -1    0    0  501    0  0.00000000000E+00 -0.00000000000E+00 -0.86578822556E+02  0.86578822703E+02  0.50400000000E-02 0.  1.
    5000001    1    1    2    0    0  0.20540790921E+03 -0.14880094740E+03  0.75461414638E+03  0.81892651748E+03  0.19200000000E+03 0.  0.
   -5000001    1    1    2    0    0 -0.20540790921E+03  0.14880094740E+03  0.41044886001E+03  0.51929413418E+03  0.19200000000E+03 0.  0.
<mgrwt>
<rscale>  0 0.65837885E+03</rscale>
<asrwt>0</asrwt>
<pdfrwt beam="1">  1        1 0.12368403E-01 0.65837885E+03</pdfrwt>
<pdfrwt beam="2">  1       -1 0.17880598E+00 0.65837885E+03</pdfrwt>
<totfact> 0.10903614E+02</totfact>
</mgrwt>
</event>
<event>
 4    1  0.7145298E-006  0.5390900E+03  0.7818608E-02  0.1004051E+00
         -1   -1    0    0    0  501 -0.00000000000E+00  0.00000000000E+00  0.48370170943E+02  0.48370171205E+02  0.50400000000E-02 0. -1.
          1   -1    0    0  501    0  0.00000000000E+00 -0.00000000000E+00 -0.15020520321E+04  0.15020520321E+04  0.50400000000E-02 0.  1.
    5000001    1    1    2    0    0 -0.18860641660E+03 -0.13706714656E+02 -0.74266136957E+03  0.79004440651E+03  0.19200000000E+03 0.  0.
   -5000001    1    1    2    0    0  0.18860641660E+03  0.13706714656E+02 -0.71102049158E+03  0.76037779679E+03  0.19200000000E+03 0.  0.
<mgrwt>
<rscale>  0 0.53909003E+03</rscale>
<asrwt>0</asrwt>
<pdfrwt beam="1">  1        1 0.21457883E+00 0.53909003E+03</pdfrwt>
<pdfrwt beam="2">  1       -1 0.69100254E-02 0.53909003E+03</pdfrwt>
<totfact> 0.89423308E+02</totfact>
</mgrwt>
</event>
<event>
 4    1  0.7145298E-006  0.8673909E+03  0.7818608E-02  0.9467288E-01
          1   -1    0    0  501    0  0.00000000000E+00  0.00000000000E+00  0.96417120462E+03  0.96417120463E+03  0.50400000000E-02 0.  1.
         -1   -1    0    0    0  501 -0.00000000000E+00 -0.00000000000E+00 -0.19508129161E+03  0.19508129167E+03  0.50400000000E-02 0. -1.
    5000001    1    1    2    0    0 -0.35097520304E+03  0.44610789005E+01  0.60827809020E+03  0.72805887769E+03  0.19200000000E+03 0.  0.
   -5000001    1    1    2    0    0  0.35097520304E+03 -0.44610789005E+01  0.16081182282E+03  0.43119361861E+03  0.19200000000E+03 0.  0.
<mgrwt>
<rscale>  0 0.86739095E+03</rscale>
<asrwt>0</asrwt>
<pdfrwt beam="1">  1        1 0.13773874E+00 0.86739095E+03</pdfrwt>
<pdfrwt beam="2">  1       -1 0.27868756E-01 0.86739095E+03</pdfrwt>
<totfact> 0.21442989E+02</totfact>
</mgrwt>
</event>
<event>
 4    1  0.7145298E-006  0.8890610E+03  0.7818608E-02  0.9439360E-01
         -1   -1    0    0    0  501 -0.00000000000E+00  0.00000000000E+00  0.79804562074E+03  0.79804562075E+03  0.50400000000E-02 0. -1.
          1   -1    0    0  501    0  0.00000000000E+00 -0.00000000000E+00 -0.24761414828E+03  0.24761414833E+03  0.50400000000E-02 0.  1.
    5000001    1    1    2    0    0  0.35057527129E+03  0.19332154613E+03  0.24979518417E+03  0.50944859905E+03  0.19200000000E+03 0.  0.
   -5000001    1    1    2    0    0 -0.35057527129E+03 -0.19332154613E+03  0.30063628829E+03  0.53621117004E+03  0.19200000000E+03 0.  0.
<mgrwt>
<rscale>  0 0.88906105E+03</rscale>
<asrwt>0</asrwt>
<pdfrwt beam="1">  1        1 0.35373450E-01 0.88906105E+03</pdfrwt>
<pdfrwt beam="2">  1       -1 0.11400652E+00 0.88906105E+03</pdfrwt>
<totfact> 0.87651811E+01</totfact>
</mgrwt>
</event>
<event>
 4    1  0.7145298E-006  0.7462851E+03  0.7818608E-02  0.9641197E-01
         -1   -1    0    0    0  501 -0.00000000000E+00  0.00000000000E+00  0.78821103088E+02  0.78821103249E+02  0.50400000000E-02 0. -1.
          1   -1    0    0  501    0  0.00000000000E+00 -0.00000000000E+00 -0.17664731400E+04  0.17664731400E+04  0.50400000000E-02 0.  1.
    5000001    1    1    2    0    0  0.31018509203E+02  0.29920539992E+03 -0.11133930063E+04  0.11691851888E+04  0.19200000000E+03 0.  0.
   -5000001    1    1    2    0    0 -0.31018509203E+02 -0.29920539992E+03 -0.57425903054E+03  0.67610905437E+03  0.19200000000E+03 0.  0.
<mgrwt>
<rscale>  0 0.74628510E+03</rscale>
<asrwt>0</asrwt>
<pdfrwt beam="1">  1        1 0.25235328E+00 0.74628510E+03</pdfrwt>
<pdfrwt beam="2">  1       -1 0.11260159E-01 0.74628510E+03</pdfrwt>
<totfact> 0.27932811E+02</totfact>
</mgrwt>
</event>
<event>
 4    1  0.7145298E-006  0.5752965E+03  0.7818608E-02  0.9958026E-01
         -1   -1    0    0    0  501 -0.00000000000E+00  0.00000000000E+00  0.20010832355E+03  0.20010832361E+03  0.50400000000E-02 0.  1.
          1   -1    0    0  501    0  0.00000000000E+00 -0.00000000000E+00 -0.41348365149E+03  0.41348365152E+03  0.50400000000E-02 0. -1.
    5000001    1    1    2    0    0 -0.21034737129E+02  0.21308583244E+03 -0.11247944310E+03  0.30881006666E+03  0.19200000000E+03 0.  0.
   -5000001    1    1    2    0    0  0.21034737129E+02 -0.21308583244E+03 -0.10089588483E+03  0.30478190847E+03  0.19200000000E+03 0.  0.
<mgrwt>
<rscale>  0 0.57529652E+03</rscale>
<asrwt>0</asrwt>
<pdfrwt beam="1">  1        1 0.59069093E-01 0.57529652E+03</pdfrwt>
<pdfrwt beam="2">  1       -1 0.28586904E-01 0.57529652E+03</pdfrwt>
<totfact> 0.70823190E+02</totfact>
</mgrwt>
</event>
<event>
 4    1  0.7145298E-006  0.4248252E+03  0.7818608E-02  0.1035507E+00
         -1   -1    0    0    0  501 -0.00000000000E+00  0.00000000000E+00  0.46277021347E+02  0.46277021621E+02  0.50400000000E-02 0. -1.
          1   -1    0    0  501    0  0.00000000000E+00 -0.00000000000E+00 -0.97497888916E+03  0.97497888917E+03  0.50400000000E-02 0.  1.
    5000001    1    1    2    0    0 -0.52396503108E+02  0.58315189222E+01 -0.64223819690E+03  0.67239371034E+03  0.19200000000E+03 0.  0.
   -5000001    1    1    2    0    0  0.52396503108E+02 -0.58315189222E+01 -0.28646367091E+03  0.34886220045E+03  0.19200000000E+03 0.  0.
<mgrwt>
<rscale>  0 0.42482523E+03</rscale>
<asrwt>0</asrwt>
<pdfrwt beam="1">  1        1 0.13928269E+00 0.42482523E+03</pdfrwt>
<pdfrwt beam="2">  1       -1 0.66110037E-02 0.42482523E+03</pdfrwt>
<totfact> 0.21860013E+03</totfact>
</mgrwt>
</event>
<event>
 4    1  0.7145298E-006  0.5704451E+03  0.7818608E-02  0.9968694E-01
         -1   -1    0    0    0  501 -0.00000000000E+00  0.00000000000E+00  0.51217643993E+02  0.51217644241E+02  0.50400000000E-02 0.  1.
          1   -1    0    0  501    0  0.00000000000E+00 -0.00000000000E+00 -0.15883572642E+04  0.15883572642E+04  0.50400000000E-02 0. -1.
    5000001    1    1    2    0    0  0.19060845519E+03 -0.58488198084E+02 -0.96635723164E+03  0.10052177633E+04  0.19200000000E+03 0.  0.
   -5000001    1    1    2    0    0 -0.19060845519E+03  0.58488198084E+02 -0.57078238855E+03  0.63435714513E+03  0.19200000000E+03 0.  0.
<mgrwt>
<rscale>  0 0.57044515E+03</rscale>
<asrwt>0</asrwt>
<pdfrwt beam="1">  1        1 0.22690815E+00 0.57044515E+03</pdfrwt>
<pdfrwt beam="2">  1       -1 0.73168073E-02 0.57044515E+03</pdfrwt>
<totfact> 0.72016761E+02</totfact>
</mgrwt>
</event>
<event>
 4    1  0.7145298E-006  0.4906204E+03  0.7818608E-02  0.1016257E+00
         -1   -1    0    0    0  501 -0.00000000000E+00  0.00000000000E+00  0.15144879116E+03  0.15144879125E+03  0.50400000000E-02 0. -1.
          1   -1    0    0  501    0  0.00000000000E+00 -0.00000000000E+00 -0.39734292123E+03  0.39734292127E+03  0.50400000000E-02 0.  1.
    5000001    1    1    2    0    0 -0.12712054435E+03  0.56906744915E+02 -0.19293658895E+03  0.30575568314E+03  0.19200000000E+03 0.  0.
   -5000001    1    1    2    0    0  0.12712054435E+03 -0.56906744915E+02 -0.52957541115E+02  0.24303602938E+03  0.19200000000E+03 0.  0.
<mgrwt>
<rscale>  0 0.49062044E+03</rscale>
<asrwt>0</asrwt>
<pdfrwt beam="1">  1        1 0.56763274E-01 0.49062044E+03</pdfrwt>
<pdfrwt beam="2">  1       -1 0.21635542E-01 0.49062044E+03</pdfrwt>
<totfact> 0.11964195E+03</totfact>
</mgrwt>
</event>
<event>
 4    1  0.7145298E-006  0.6334844E+03  0.7818608E-02  0.9838273E-01
         -1   -1    0    0    0  501 -0.00000000000E+00  0.00000000000E+00  0.14476090797E+03  0.14476090806E+03  0.50400000000E-02 0. -1.
          1   -1    0    0  501    0  0.00000000000E+00 -0.00000000000E+00 -0.69304352158E+03  0.69304352160E+03  0.50400000000E-02 0.  1.
    5000001    1    1    2    0    0 -0.16722505088E+02 -0.25017618055E+03 -0.30637007232E+03  0.43999361894E+03  0.19200000000E+03 0.  0.
   -5000001    1    1    2    0    0  0.16722505088E+02  0.25017618055E+03 -0.24191254129E+03  0.39781081072E+03  0.19200000000E+03 0.  0.
<mgrwt>
<rscale>  0 0.63348436E+03</rscale>
<asrwt>0</asrwt>
<pdfrwt beam="1">  1        1 0.99006216E-01 0.63348436E+03</pdfrwt>
<pdfrwt beam="2">  1       -1 0.20680130E-01 0.63348436E+03</pdfrwt>
<totfact> 0.60251688E+02</totfact>
</mgrwt>
</event>
<event>
 4    1  0.7145298E-006  0.5082490E+03  0.7818608E-02  0.1011648E+00
         -1   -1    0    0    0  501 -0.00000000000E+00  0.00000000000E+00  0.29457737158E+03  0.29457737162E+03  0.50400000000E-02 0.  1.
          1   -1    0    0  501    0  0.00000000000E+00 -0.00000000000E+00 -0.21922682216E+03  0.21922682222E+03  0.50400000000E-02 0. -1.
    5000001    1    1    2    0    0  0.99651453021E+02  0.12133416011E+03 -0.18272837402E+02  0.24869717949E+03  0.19200000000E+03 0.  0.
   -5000001    1    1    2    0    0 -0.99651453021E+02 -0.12133416011E+03  0.93623386817E+02  0.26510701435E+03  0.19200000000E+03 0.  0.
<mgrwt>
<rscale>  0 0.50824900E+03</rscale>
<asrwt>0</asrwt>
<pdfrwt beam="1">  1        1 0.31318117E-01 0.50824900E+03</pdfrwt>
<pdfrwt beam="2">  1       -1 0.42082482E-01 0.50824900E+03</pdfrwt>
<totfact> 0.81045588E+02</totfact>
</mgrwt>
</event>
<event>
 4    1  0.7145298E-006  0.6676363E+03  0.7818608E-02  0.9774237E-01
         -1   -1    0    0    0  501 -0.00000000000E+00  0.00000000000E+00  0.27310672190E+03  0.27310672195E+03  0.50400000000E-02 0. -1.
          1   -1    0    0  501    0  0.00000000000E+00 -0.00000000000E+00 -0.40802562984E+03  0.40802562987E+03  0.50400000000E-02 0.  1.
    5000001    1    1    2    0    0 -0.82500475967E+02  0.25690199313E+03 -0.11032765427E+03  0.34905752234E+03  0.19200000000E+03 0.  0.
   -5000001    1    1    2    0    0  0.82500475967E+02 -0.25690199313E+03 -0.24591253668E+02  0.33207482947E+03  0.19200000000E+03 0.  0.
<mgrwt>
<rscale>  0 0.66763625E+03</rscale>
<asrwt>0</asrwt>
<pdfrwt beam="1">  1        1 0.58289375E-01 0.66763625E+03</pdfrwt>
<pdfrwt beam="2">  1       -1 0.39015246E-01 0.66763625E+03</pdfrwt>
<totfact> 0.41552018E+02</totfact>
</mgrwt>
</event>
<event>
 4    1  0.7145298E-006  0.1384022E+04  0.7818608E-02  0.8965466E-01
          1   -1    0    0  501    0  0.00000000000E+00  0.00000000000E+00  0.34111445155E+03  0.34111445159E+03  0.50400000000E-02 0.  1.
         -1   -1    0    0    0  501 -0.00000000000E+00 -0.00000000000E+00 -0.14038668398E+04  0.14038668398E+04  0.50400000000E-02 0. -1.
    5000001    1    1    2    0    0  0.34858453883E+03 -0.31368844042E+03  0.62814175474E+02  0.51060869460E+03  0.19200000000E+03 0.  0.
   -5000001    1    1    2    0    0 -0.34858453883E+03  0.31368844042E+03 -0.11255665637E+04  0.12343725968E+04  0.19200000000E+03 0.  0.
<mgrwt>
<rscale>  0 0.13840221E+04</rscale>
<asrwt>0</asrwt>
<pdfrwt beam="1">  1        1 0.48730637E-01 0.13840221E+04</pdfrwt>
<pdfrwt beam="2">  1       -1 0.20055240E+00 0.13840221E+04</pdfrwt>
<totfact> 0.11909684E+01</totfact>
</mgrwt>
</event>
<event>
 4    1  0.7145298E-006  0.5428052E+03  0.7818608E-02  0.1003173E+00
          1   -1    0    0  501    0  0.00000000000E+00  0.00000000000E+00  0.25934734345E+04  0.25934734345E+04  0.50400000000E-02 0. -1.
         -1   -1    0    0    0  501 -0.00000000000E+00 -0.00000000000E+00 -0.28401826938E+02  0.28401827385E+02  0.50400000000E-02 0.  1.
    5000001    1    1    2    0    0  0.63721402958E+02 -0.14702463202E+03  0.77321023897E+03  0.81264674568E+03  0.19200000000E+03 0.  0.
   -5000001    1    1    2    0    0 -0.63721402958E+02  0.14702463202E+03  0.17918613686E+04  0.18092285162E+04  0.19200000000E+03 0.  0.
<mgrwt>
<rscale>  0 0.54280525E+03</rscale>
<asrwt>0</asrwt>
<pdfrwt beam="1">  1        1 0.37049606E+00 0.54280525E+03</pdfrwt>
<pdfrwt beam="2">  1       -1 0.40574055E-02 0.54280525E+03</pdfrwt>
<totfact> 0.42420952E+02</totfact>
</mgrwt>
</event>
<event>
 4    1  0.7145298E-006  0.9158195E+03  0.7818608E-02  0.9406020E-01
          1   -1    0    0  501    0  0.00000000000E+00  0.00000000000E+00  0.14266983197E+03  0.14266983206E+03  0.50400000000E-02 0.  1.
         -1   -1    0    0    0  501 -0.00000000000E+00 -0.00000000000E+00 -0.14696963316E+04  0.14696963316E+04  0.50400000000E-02 0. -1.
    5000001    1    1    2    0    0  0.24361513352E+03 -0.77868896298E+01 -0.70620233639E+02  0.31821405740E+03  0.19200000000E+03 0.  0.
   -5000001    1    1    2    0    0 -0.24361513352E+03  0.77868896298E+01 -0.12564062660E+04  0.12941521063E+04  0.19200000000E+03 0.  0.
<mgrwt>
<rscale>  0 0.91581948E+03</rscale>
<asrwt>0</asrwt>
<pdfrwt beam="1">  1        1 0.20381405E-01 0.91581948E+03</pdfrwt>
<pdfrwt beam="2">  1       -1 0.20995661E+00 0.91581948E+03</pdfrwt>
<totfact> 0.33301529E+01</totfact>
</mgrwt>
</event>
<event>
 4    1  0.7145298E-006  0.5986611E+03  0.7818608E-02  0.9908188E-01
         -1   -1    0    0    0  501 -0.00000000000E+00  0.00000000000E+00  0.23986473344E+03  0.23986473349E+03  0.50400000000E-02 0. -1.
          1   -1    0    0  501    0  0.00000000000E+00 -0.00000000000E+00 -0.37353877689E+03  0.37353877692E+03  0.50400000000E-02 0.  1.
    5000001    1    1    2    0    0 -0.90639645009E+02  0.21096819705E+03 -0.70334847644E+02  0.30746400799E+03  0.19200000000E+03 0.  0.
   -5000001    1    1    2    0    0  0.90639645009E+02 -0.21096819705E+03 -0.63339195805E+02  0.30593950242E+03  0.19200000000E+03 0.  0.
<mgrwt>
<rscale>  0 0.59866110E+03</rscale>
<asrwt>0</asrwt>
<pdfrwt beam="1">  1        1 0.53362683E-01 0.59866110E+03</pdfrwt>
<pdfrwt beam="2">  1       -1 0.34266390E-01 0.59866110E+03</pdfrwt>
<totfact> 0.58917673E+02</totfact>
</mgrwt>
</event>
<event>
 4    1  0.7145298E-006  0.9135130E+03  0.7818608E-02  0.9408845E-01
          1   -1    0    0  501    0  0.00000000000E+00  0.00000000000E+00  0.10671861591E+04  0.10671861591E+04  0.50400000000E-02 0.  1.
         -1   -1    0    0    0  501 -0.00000000000E+00 -0.00000000000E+00 -0.19549211988E+03  0.19549211994E+03  0.50400000000E-02 0. -1.
    5000001    1    1    2    0    0 -0.20338469156E+03 -0.36052195133E+03  0.40748367572E+03  0.61175841321E+03  0.19200000000E+03 0.  0.
   -5000001    1    1    2    0    0  0.20338469156E+03  0.36052195133E+03  0.46421036348E+03  0.65091986582E+03  0.19200000000E+03 0.  0.
<mgrwt>
<rscale>  0 0.91351297E+03</rscale>
<asrwt>0</asrwt>
<pdfrwt beam="1">  1        1 0.15245517E+00 0.91351297E+03</pdfrwt>
<pdfrwt beam="2">  1       -1 0.27927445E-01 0.91351297E+03</pdfrwt>
<totfact> 0.17868472E+02</totfact>
</mgrwt>
</event>
<event>
 4    1  0.7145298E-006  0.9909682E+03  0.7818608E-02  0.9318507E-01
         -1   -1    0    0    0  501 -0.00000000000E+00  0.00000000000E+00  0.69985597160E+02  0.69985597342E+02  0.50400000000E-02 0. -1.
          1   -1    0    0  501    0  0.00000000000E+00 -0.00000000000E+00 -0.35079286242E+04  0.35079286242E+04  0.50400000000E-02 0.  1.
    5000001    1    1    2    0    0 -0.81941189225E+02 -0.44163309607E+03 -0.14193561157E+04  0.15010629345E+04  0.19200000000E+03 0.  0.
   -5000001    1    1    2    0    0  0.81941189225E+02  0.44163309607E+03 -0.20185869113E+04  0.20768512871E+04  0.19200000000E+03 0.  0.
<mgrwt>
<rscale>  0 0.99096817E+03</rscale>
<asrwt>0</asrwt>
<pdfrwt beam="1">  1        1 0.50113255E+00 0.99096817E+03</pdfrwt>
<pdfrwt beam="2">  1       -1 0.99979446E-02 0.99096817E+03</pdfrwt>
<totfact> 0.25126130E+01</totfact>
</mgrwt>
</event>
<event>
 4    1  0.7145298E-006  0.8319779E+03  0.7818608E-02  0.9514850E-01
          1   -1    0    0  501    0  0.00000000000E+00  0.00000000000E+00  0.63729406809E+03  0.63729406811E+03  0.50400000000E-02 0.  1.
         -1   -1    0    0    0  501 -0.00000000000E+00 -0.00000000000E+00 -0.27153371262E+03  0.27153371267E+03  0.50400000000E-02 0. -1.
    5000001    1    1    2    0    0 -0.17851546716E+03  0.25957764599E+03  0.39281567687E+03  0.53890303609E+03  0.19200000000E+03 0.  0.
   -5000001    1    1    2    0    0  0.17851546716E+03 -0.25957764599E+03 -0.27055321405E+02  0.36992474468E+03  0.19200000000E+03 0.  0.
<mgrwt>
<rscale>  0 0.83197794E+03</rscale>
<asrwt>0</asrwt>
<pdfrwt beam="1">  1        1 0.91042008E-01 0.83197794E+03</pdfrwt>
<pdfrwt beam="2">  1       -1 0.38790531E-01 0.83197794E+03</pdfrwt>
<totfact> 0.22701225E+02</totfact>
</mgrwt>
</event>
<event>
 4    1  0.7145298E-006  0.1194704E+04  0.7818608E-02  0.9117505E-01
          1   -1    0    0  501    0  0.00000000000E+00  0.00000000000E+00  0.38796055229E+03  0.38796055232E+03  0.50400000000E-02 0.  1.
         -1   -1    0    0    0  501 -0.00000000000E+00 -0.00000000000E+00 -0.91975634528E+03  0.91975634529E+03  0.50400000000E-02 0. -1.
    5000001    1    1    2    0    0  0.51599815856E+03  0.10698453002E+02 -0.12488757614E+02  0.55080715827E+03  0.19200000000E+03 0.  0.
   -5000001    1    1    2    0    0 -0.51599815856E+03 -0.10698453002E+02 -0.51930703537E+03  0.75690973935E+03  0.19200000000E+03 0.  0.
<mgrwt>
<rscale>  0 0.11947036E+04</rscale>
<asrwt>0</asrwt>
<pdfrwt beam="1">  1        1 0.55422936E-01 0.11947036E+04</pdfrwt>
<pdfrwt beam="2">  1       -1 0.13139376E+00 0.11947036E+04</pdfrwt>
<totfact> 0.33732927E+01</totfact>
</mgrwt>
</event>
<event>
 4    1  0.7145298E-006  0.8470874E+03  0.7818608E-02  0.9494255E-01
          1   -1    0    0  501    0  0.00000000000E+00  0.00000000000E+00  0.22405910113E+03  0.22405910119E+03  0.50400000000E-02 0.  1.
         -1   -1    0    0    0  501 -0.00000000000E+00 -0.00000000000E+00 -0.80063365772E+03  0.80063365773E+03  0.50400000000E-02 0. -1.
    5000001    1    1    2    0    0  0.35975961083E+03  0.10472813097E+03 -0.34411960262E+03  0.54376213541E+03  0.19200000000E+03 0.  0.
   -5000001    1    1    2    0    0 -0.35975961083E+03 -0.10472813097E+03 -0.23245495397E+03  0.48093062351E+03  0.19200000000E+03 0.  0.
<mgrwt>
<rscale>  0 0.84708738E+03</rscale>
<asrwt>0</asrwt>
<pdfrwt beam="1">  1        1 0.32008443E-01 0.84708738E+03</pdfrwt>
<pdfrwt beam="2">  1       -1 0.11437624E+00 0.84708738E+03</pdfrwt>
<totfact> 0.99264279E+01</totfact>
</mgrwt>
</event>
<event>
 4    1  0.7145298E-006  0.5370146E+03  0.7818608E-02  0.1004545E+00
          1   -1    0    0  501    0  0.00000000000E+00  0.00000000000E+00  0.25093535430E+04  0.25093535430E+04  0.50400000000E-02 0. -1.
         -1   -1    0    0    0  501 -0.00000000000E+00 -0.00000000000E+00 -0.28730970372E+02  0.28730970814E+02  0.50400000000E-02 0.  1.
    5000001    1    1    2    0    0  0.10842023206E+03  0.12183455840E+03  0.80115927479E+03  0.83983259636E+03  0.19200000000E+03 0.  0.
   -5000001    1    1    2    0    0 -0.10842023206E+03 -0.12183455840E+03  0.16794632979E+04  0.16982519175E+04  0.19200000000E+03 0.  0.
<mgrwt>
<rscale>  0 0.53701457E+03</rscale>
<asrwt>0</asrwt>
<pdfrwt beam="1">  1        1 0.35847917E+00 0.53701457E+03</pdfrwt>
<pdfrwt beam="2">  1       -1 0.41044233E-02 0.53701457E+03</pdfrwt>
<totfact> 0.47061985E+02</totfact>
</mgrwt>
</event>
<event>
 4    1  0.7145298E-006  0.8587424E+03  0.7818608E-02  0.9478678E-01
         -1   -1    0    0    0  501 -0.00000000000E+00  0.00000000000E+00  0.25754537826E+03  0.25754537831E+03  0.50400000000E-02 0.  1.
          1   -1    0    0  501    0  0.00000000000E+00 -0.00000000000E+00 -0.71583354600E+03  0.71583354601E+03  0.50400000000E-02 0. -1.
    5000001    1    1    2    0    0  0.26167481347E+03 -0.62576572834E+02 -0.53978353063E+03  0.63294533367E+03  0.19200000000E+03 0.  0.
   -5000001    1    1    2    0    0 -0.26167481347E+03  0.62576572834E+02  0.81495362898E+02  0.34043359065E+03  0.19200000000E+03 0.  0.
<mgrwt>
<rscale>  0 0.85874239E+03</rscale>
<asrwt>0</asrwt>
<pdfrwt beam="1">  1        1 0.10226193E+00 0.85874239E+03</pdfrwt>
<pdfrwt beam="2">  1       -1 0.36792197E-01 0.85874239E+03</pdfrwt>
<totfact> 0.21045876E+02</totfact>
</mgrwt>
</event>
<event>
 4    1  0.7145298E-006  0.4509946E+03  0.7818608E-02  0.1027426E+00
         -1   -1    0    0    0  501 -0.00000000000E+00  0.00000000000E+00  0.82238902270E+03  0.82238902272E+03  0.50400000000E-02 0. -1.
          1   -1    0    0  501    0  0.00000000000E+00 -0.00000000000E+00 -0.61830865012E+02  0.61830865218E+02  0.50400000000E-02 0.  1.
    5000001    1    1    2    0    0 -0.81939282705E+02  0.29550062017E+02  0.22345838653E+03  0.30722126021E+03  0.19200000000E+03 0.  0.
   -5000001    1    1    2    0    0  0.81939282705E+02 -0.29550062017E+02  0.53709977116E+03  0.57699862772E+03  0.19200000000E+03 0.  0.
<mgrwt>
<rscale>  0 0.45099457E+03</rscale>
<asrwt>0</asrwt>
<pdfrwt beam="1">  1        1 0.88329806E-02 0.45099457E+03</pdfrwt>
<pdfrwt beam="2">  1       -1 0.11748415E+00 0.45099457E+03</pdfrwt>
<totfact> 0.52805288E+02</totfact>
</mgrwt>
</event>
<event>
 4    1  0.7145298E-006  0.6084549E+03  0.7818608E-02  0.9888019E-01
         -1   -1    0    0    0  501 -0.00000000000E+00  0.00000000000E+00  0.95856132408E+03  0.95856132410E+03  0.50400000000E-02 0. -1.
          1   -1    0    0  501    0  0.00000000000E+00 -0.00000000000E+00 -0.96555458376E+02  0.96555458508E+02  0.50400000000E-02 0.  1.
    5000001    1    1    2    0    0 -0.91549429003E+02  0.92233963169E+02  0.89417916809E+02  0.24849137965E+03  0.19200000000E+03 0.  0.
   -5000001    1    1    2    0    0  0.91549429003E+02 -0.92233963169E+02  0.77258794890E+03  0.80662540296E+03  0.19200000000E+03 0.  0.
<mgrwt>
<rscale>  0 0.60845486E+03</rscale>
<asrwt>0</asrwt>
<pdfrwt beam="1">  1        1 0.13793637E-01 0.60845486E+03</pdfrwt>
<pdfrwt beam="2">  1       -1 0.13693733E+00 0.60845486E+03</pdfrwt>
<totfact> 0.19581148E+02</totfact>
</mgrwt>
</event>
<event>
 4    1  0.7145298E-006  0.5167511E+03  0.7818608E-02  0.1009497E+00
         -1   -1    0    0    0  501 -0.00000000000E+00  0.00000000000E+00  0.44383470267E+03  0.44383470270E+03  0.50400000000E-02 0. -1.
          1   -1    0    0  501    0  0.00000000000E+00 -0.00000000000E+00 -0.15041170087E+03  0.15041170096E+03  0.50400000000E-02 0.  1.
    5000001    1    1    2    0    0 -0.16089481029E+03  0.62651241678E+02  0.15710038272E+03  0.30225295419E+03  0.19200000000E+03 0.  0.
   -5000001    1    1    2    0    0  0.16089481029E+03 -0.62651241678E+02  0.13632261907E+03  0.29199344947E+03  0.19200000000E+03 0.  0.
<mgrwt>
<rscale>  0 0.51675113E+03</rscale>
<asrwt>0</asrwt>
<pdfrwt beam="1">  1        1 0.21487386E-01 0.51675113E+03</pdfrwt>
<pdfrwt beam="2">  1       -1 0.63404958E-01 0.51675113E+03</pdfrwt>
<totfact> 0.60737125E+02</totfact>
</mgrwt>
</event>
<event>
 4    1  0.7145298E-006  0.4703196E+03  0.7818608E-02  0.1021830E+00
         -1   -1    0    0    0  501 -0.00000000000E+00  0.00000000000E+00  0.75898691976E+03  0.75898691978E+03  0.50400000000E-02 0.  1.
          1   -1    0    0  501    0  0.00000000000E+00 -0.00000000000E+00 -0.72860444504E+02  0.72860444679E+02  0.50400000000E-02 0. -1.
    5000001    1    1    2    0    0 -0.36891364040E+02  0.12789937880E+03  0.29570668681E+03  0.37686293060E+03  0.19200000000E+03 0.  0.
   -5000001    1    1    2    0    0  0.36891364040E+02 -0.12789937880E+03  0.39041978844E+03  0.45498443385E+03  0.19200000000E+03 0.  0.
<mgrwt>
<rscale>  0 0.47031957E+03</rscale>
<asrwt>0</asrwt>
<pdfrwt beam="1">  1        1 0.10408635E-01 0.47031957E+03</pdfrwt>
<pdfrwt beam="2">  1       -1 0.10842670E+00 0.47031957E+03</pdfrwt>
<totfact> 0.50923865E+02</totfact>
</mgrwt>
</event>
<event>
 4    1  0.7145298E-006  0.4623670E+03  0.7818608E-02  0.1024097E+00
          1   -1    0    0  501    0  0.00000000000E+00  0.00000000000E+00  0.78814103457E+03  0.78814103459E+03  0.50400000000E-02 0. -1.
         -1   -1    0    0    0  501 -0.00000000000E+00 -0.00000000000E+00 -0.67812494717E+02  0.67812494904E+02  0.50400000000E-02 0.  1.
    5000001    1    1    2    0    0 -0.11318986511E+03  0.10137364711E+02  0.47226917741E+03  0.52231876058E+03  0.19200000000E+03 0.  0.
   -5000001    1    1    2    0    0  0.11318986511E+03 -0.10137364711E+02  0.24805936245E+03  0.33363476891E+03  0.19200000000E+03 0.  0.
<mgrwt>
<rscale>  0 0.46236700E+03</rscale>
<asrwt>0</asrwt>
<pdfrwt beam="1">  1        1 0.11259158E+00 0.46236700E+03</pdfrwt>
<pdfrwt beam="2">  1       -1 0.96874993E-02 0.46236700E+03</pdfrwt>
<totfact> 0.16938690E+03</totfact>
</mgrwt>
</event>
<event>
 4    1  0.7145298E-006  0.5808649E+03  0.7818608E-02  0.9945920E-01
         -1   -1    0    0    0  501 -0.00000000000E+00  0.00000000000E+00  0.26776431868E+03  0.26776431872E+03  0.50400000000E-02 0. -1.
          1   -1    0    0  501    0  0.00000000000E+00 -0.00000000000E+00 -0.31501955707E+03  0.31501955711E+03  0.50400000000E-02 0.  1.
    5000001    1    1    2    0    0 -0.13753746961E+03 -0.11897207147E+03  0.96836061910E+02  0.28162409738E+03  0.19200000000E+03 0.  0.
   -5000001    1    1    2    0    0  0.13753746961E+03  0.11897207147E+03 -0.14409130031E+03  0.30115977846E+03  0.19200000000E+03 0.  0.
<mgrwt>
<rscale>  0 0.58086486E+03</rscale>
<asrwt>0</asrwt>
<pdfrwt beam="1">  1        1 0.45002794E-01 0.58086486E+03</pdfrwt>
<pdfrwt beam="2">  1       -1 0.38252045E-01 0.58086486E+03</pdfrwt>
<totfact> 0.60394102E+02</totfact>
</mgrwt>
</event>
<event>
 4    1  0.7145298E-006  0.4832862E+03  0.7818608E-02  0.1018236E+00
          1   -1    0    0  501    0  0.00000000000E+00  0.00000000000E+00  0.15116914930E+04  0.15116914930E+04  0.50400000000E-02 0.  1.
         -1   -1    0    0    0  501 -0.00000000000E+00 -0.00000000000E+00 -0.38626519521E+02  0.38626519850E+02  0.50400000000E-02 0. -1.
    5000001    1    1    2    0    0 -0.12569253225E+03 -0.63086448327E+02  0.87068382622E+03  0.90262552472E+03  0.19200000000E+03 0.  0.
   -5000001    1    1    2    0    0  0.12569253225E+03  0.63086448327E+02  0.60238114729E+03  0.64769248817E+03  0.19200000000E+03 0.  0.
<mgrwt>
<rscale>  0 0.48328617E+03</rscale>
<asrwt>0</asrwt>
<pdfrwt beam="1">  1        1 0.21595599E+00 0.48328617E+03</pdfrwt>
<pdfrwt beam="2">  1       -1 0.55180725E-02 0.48328617E+03</pdfrwt>
<totfact> 0.12486196E+03</totfact>
</mgrwt>
</event>
<event>
 4    1  0.7145298E-006  0.5655478E+03  0.7818608E-02  0.9979579E-01
          1   -1    0    0  501    0  0.00000000000E+00  0.00000000000E+00  0.83618029193E+03  0.83618029195E+03  0.50400000000E-02 0.  1.
         -1   -1    0    0    0  501 -0.00000000000E+00 -0.00000000000E+00 -0.95626596141E+02  0.95626596274E+02  0.50400000000E-02 0. -1.
    5000001    1    1    2    0    0 -0.37420683738E+02 -0.18944211055E+03  0.49584713805E+03  0.56570045530E+03  0.19200000000E+03 0.  0.
   -5000001    1    1    2    0    0  0.37420683738E+02  0.18944211055E+03  0.24470655775E+03  0.36610643292E+03  0.19200000000E+03 0.  0.
<mgrwt>
<rscale>  0 0.56554779E+03</rscale>
<asrwt>0</asrwt>
<pdfrwt beam="1">  1        1 0.11945433E+00 0.56554779E+03</pdfrwt>
<pdfrwt beam="2">  1       -1 0.13660942E-01 0.56554779E+03</pdfrwt>
<totfact> 0.89565743E+02</totfact>
</mgrwt>
</event>
<event>
 4    1  0.7145298E-006  0.5797302E+03  0.7818608E-02  0.9948375E-01
         -1   -1    0    0    0  501 -0.00000000000E+00  0.00000000000E+00  0.44114161051E+03  0.44114161054E+03  0.50400000000E-02 0. -1.
          1   -1    0    0  501    0  0.00000000000E+00 -0.00000000000E+00 -0.19046438067E+03  0.19046438074E+03  0.50400000000E-02 0.  1.
    5000001    1    1    2    0    0  0.18940440219E+03  0.99425211519E+02  0.16607949199E+03  0.33197258609E+03  0.19200000000E+03 0.  0.
   -5000001    1    1    2    0    0 -0.18940440219E+03 -0.99425211519E+02  0.84597737843E+02  0.29963340519E+03  0.19200000000E+03 0.  0.
<mgrwt>
<rscale>  0 0.57973016E+03</rscale>
<asrwt>0</asrwt>
<pdfrwt beam="1">  1        1 0.27209197E-01 0.57973016E+03</pdfrwt>
<pdfrwt beam="2">  1       -1 0.63020230E-01 0.57973016E+03</pdfrwt>
<totfact> 0.45139705E+02</totfact>
</mgrwt>
</event>
<event>
 4    1  0.7145298E-006  0.5058174E+03  0.7818608E-02  0.1012272E+00
          1   -1    0    0  501    0  0.00000000000E+00  0.00000000000E+00  0.11002686226E+03  0.11002686238E+03  0.50400000000E-02 0.  1.
         -1   -1    0    0    0  501 -0.00000000000E+00 -0.00000000000E+00 -0.58133805878E+03  0.58133805880E+03  0.50400000000E-02 0. -1.
    5000001    1    1    2    0    0 -0.15730475423E+03  0.37271956579E+02 -0.19319986681E+03  0.31673991379E+03  0.19200000000E+03 0.  0.
   -5000001    1    1    2    0    0  0.15730475423E+03 -0.37271956579E+02 -0.27811132971E+03  0.37462500739E+03  0.19200000000E+03 0.  0.
<mgrwt>
<rscale>  0 0.50581737E+03</rscale>
<asrwt>0</asrwt>
<pdfrwt beam="1">  1        1 0.15718123E-01 0.50581737E+03</pdfrwt>
<pdfrwt beam="2">  1       -1 0.83048293E-01 0.50581737E+03</pdfrwt>
<totfact> 0.52780586E+02</totfact>
</mgrwt>
</event>
<event>
 4    1  0.7145298E-006  0.4484347E+03  0.7818608E-02  0.1028190E+00
         -1   -1    0    0    0  501 -0.00000000000E+00  0.00000000000E+00  0.45503443522E+02  0.45503443802E+02  0.50400000000E-02 0.  1.
          1   -1    0    0  501    0  0.00000000000E+00 -0.00000000000E+00 -0.11048267407E+04  0.11048267407E+04  0.50400000000E-02 0. -1.
    5000001    1    1    2    0    0 -0.10372343931E+03 -0.23848604510E+02 -0.41261054688E+03  0.46737433733E+03  0.19200000000E+03 0.  0.
   -5000001    1    1    2    0    0  0.10372343931E+03  0.23848604510E+02 -0.64671275029E+03  0.68295584717E+03  0.19200000000E+03 0.  0.
<mgrwt>
<rscale>  0 0.44843471E+03</rscale>
<asrwt>0</asrwt>
<pdfrwt beam="1">  1        1 0.15783237E+00 0.44843471E+03</pdfrwt>
<pdfrwt beam="2">  1       -1 0.65004926E-02 0.44843471E+03</pdfrwt>
<totfact> 0.18091169E+03</totfact>
</mgrwt>
</event>
<event>
 4    1  0.7145298E-006  0.7366095E+03  0.7818608E-02  0.9656595E-01
          1   -1    0    0  501    0  0.00000000000E+00  0.00000000000E+00  0.10985171143E+04  0.10985171143E+04  0.50400000000E-02 0.  1.
         -1   -1    0    0    0  501 -0.00000000000E+00 -0.00000000000E+00 -0.12348317002E+03  0.12348317012E+03  0.50400000000E-02 0. -1.
    5000001    1    1    2    0    0 -0.28893021213E+03  0.39666992493E+02  0.29312736436E+03  0.45589668732E+03  0.19200000000E+03 0.  0.
   -5000001    1    1    2    0    0  0.28893021213E+03 -0.39666992493E+02  0.68190657992E+03  0.76610359712E+03  0.19200000000E+03 0.  0.
<mgrwt>
<rscale>  0 0.73660946E+03</rscale>
<asrwt>0</asrwt>
<pdfrwt beam="1">  1        1 0.15693102E+00 0.73660946E+03</pdfrwt>
<pdfrwt beam="2">  1       -1 0.17640453E-01 0.73660946E+03</pdfrwt>
<totfact> 0.37178971E+02</totfact>
</mgrwt>
</event>
<event>
 4    1  0.7145298E-006  0.6289561E+03  0.7818608E-02  0.9847088E-01
          1   -1    0    0  501    0  0.00000000000E+00  0.00000000000E+00  0.14216575548E+04  0.14216575548E+04  0.50400000000E-02 0.  1.
         -1   -1    0    0    0  501 -0.00000000000E+00 -0.00000000000E+00 -0.69564187047E+02  0.69564187229E+02  0.50400000000E-02 0. -1.
    5000001    1    1    2    0    0 -0.16892968193E+03 -0.16798207578E+03  0.84828317682E+03  0.90177800112E+03  0.19200000000E+03 0.  0.
   -5000001    1    1    2    0    0  0.16892968193E+03  0.16798207578E+03  0.50381019092E+03  0.58944374091E+03  0.19200000000E+03 0.  0.
<mgrwt>
<rscale>  0 0.62895613E+03</rscale>
<asrwt>0</asrwt>
<pdfrwt beam="1">  1        1 0.20309395E+00 0.62895613E+03</pdfrwt>
<pdfrwt beam="2">  1       -1 0.99377404E-02 0.62895613E+03</pdfrwt>
<totfact> 0.56877376E+02</totfact>
</mgrwt>
</event>
<event>
 4    1  0.7145298E-006  0.8717182E+03  0.7818608E-02  0.9461642E-01
          1   -1    0    0  501    0  0.00000000000E+00  0.00000000000E+00  0.71644283704E+03  0.71644283705E+03  0.50400000000E-02 0.  1.
         -1   -1    0    0    0  501 -0.00000000000E+00 -0.00000000000E+00 -0.26516164558E+03  0.26516164562E+03  0.50400000000E-02 0. -1.
    5000001    1    1    2    0    0 -0.21083459078E+03  0.31811434818E+03  0.12837377776E+03  0.44608495828E+03  0.19200000000E+03 0.  0.
   -5000001    1    1    2    0    0  0.21083459078E+03 -0.31811434818E+03  0.32290741370E+03  0.53551952440E+03  0.19200000000E+03 0.  0.
<mgrwt>
<rscale>  0 0.87171822E+03</rscale>
<asrwt>0</asrwt>
<pdfrwt beam="1">  1        1 0.10234897E+00 0.87171822E+03</pdfrwt>
<pdfrwt beam="2">  1       -1 0.37880236E-01 0.87171822E+03</pdfrwt>
<totfact> 0.19931001E+02</totfact>
</mgrwt>
</event>
<event>
 4    1  0.7145298E-006  0.5625593E+03  0.7818608E-02  0.9986280E-01
         -1   -1    0    0    0  501 -0.00000000000E+00  0.00000000000E+00  0.18549225979E+03  0.18549225986E+03  0.50400000000E-02 0. -1.
          1   -1    0    0  501    0  0.00000000000E+00 -0.00000000000E+00 -0.42653126391E+03  0.42653126394E+03  0.50400000000E-02 0.  1.
    5000001    1    1    2    0    0 -0.27394440716E+00 -0.19714192620E+03 -0.18385549176E+03  0.33095597284E+03  0.19200000000E+03 0.  0.
   -5000001    1    1    2    0    0  0.27394440716E+00  0.19714192620E+03 -0.57183512362E+02  0.28106755095E+03  0.19200000000E+03 0.  0.
<mgrwt>
<rscale>  0 0.56255932E+03</rscale>
<asrwt>0</asrwt>
<pdfrwt beam="1">  1        1 0.60933038E-01 0.56255932E+03</pdfrwt>
<pdfrwt beam="2">  1       -1 0.26498894E-01 0.56255932E+03</pdfrwt>
<totfact> 0.77455661E+02</totfact>
</mgrwt>
</event>
<event>
 4    1  0.7145298E-006  0.6749016E+03  0.7818608E-02  0.9761143E-01
         -1   -1    0    0    0  501 -0.00000000000E+00  0.00000000000E+00  0.12714678775E+03  0.12714678785E+03  0.50400000000E-02 0. -1.
          1   -1    0    0  501    0  0.00000000000E+00 -0.00000000000E+00 -0.89560310585E+03  0.89560310586E+03  0.50400000000E-02 0.  1.
    5000001    1    1    2    0    0 -0.27196537365E+03 -0.24573205952E+02 -0.45908447001E+03  0.56761920115E+03  0.19200000000E+03 0.  0.
   -5000001    1    1    2    0    0  0.27196537365E+03  0.24573205952E+02 -0.30937184809E+03  0.45513069256E+03  0.19200000000E+03 0.  0.
<mgrwt>
<rscale>  0 0.67490165E+03</rscale>
<asrwt>0</asrwt>
<pdfrwt beam="1">  1        1 0.12794330E+00 0.67490165E+03</pdfrwt>
<pdfrwt beam="2">  1       -1 0.18163827E-01 0.67490165E+03</pdfrwt>
<totfact> 0.50338590E+02</totfact>
</mgrwt>
</event>
<event>
 4    1  0.7145298E-006  0.5856354E+03  0.7818608E-02  0.9935664E-01
          1   -1    0    0  501    0  0.00000000000E+00  0.00000000000E+00  0.21888156727E+04  0.21888156727E+04  0.50400000000E-02 0.  1.
         -1   -1    0    0    0  501 -0.00000000000E+00 -0.00000000000E+00 -0.39172879577E+02  0.39172879901E+02  0.50400000000E-02 0. -1.
    5000001    1    1    2    0    0  0.15388450814E+03  0.10319735653E+03  0.61595272422E+03  0.67126142055E+03  0.19200000000E+03 0.  0.
   -5000001    1    1    2    0    0 -0.15388450814E+03 -0.10319735653E+03  0.15336900689E+04  0.15567271321E+04  0.19200000000E+03 0.  0.
<mgrwt>
<rscale>  0 0.58563543E+03</rscale>
<asrwt>0</asrwt>
<pdfrwt beam="1">  1        1 0.31268791E+00 0.58563543E+03</pdfrwt>
<pdfrwt beam="2">  1       -1 0.55961265E-02 0.58563543E+03</pdfrwt>
<totfact> 0.46117347E+02</totfact>
</mgrwt>
</event>
<event>
 4    1  0.7145298E-006  0.5823544E+03  0.7818608E-02  0.9942707E-01
          1   -1    0    0  501    0  0.00000000000E+00  0.00000000000E+00  0.21319730703E+04  0.21319730703E+04  0.50400000000E-02 0.  1.
         -1   -1    0    0    0  501 -0.00000000000E+00 -0.00000000000E+00 -0.39767929702E+02  0.39767930021E+02  0.50400000000E-02 0. -1.
    5000001    1    1    2    0    0 -0.21878875156E+03  0.51222515204E+01  0.10648974625E+04  0.11039770654E+04  0.19200000000E+03 0.  0.
   -5000001    1    1    2    0    0  0.21878875156E+03 -0.51222515204E+01  0.10273076781E+04  0.10677639350E+04  0.19200000000E+03 0.  0.
<mgrwt>
<rscale>  0 0.58235438E+03</rscale>
<asrwt>0</asrwt>
<pdfrwt beam="1">  1        1 0.30456764E+00 0.58235438E+03</pdfrwt>
<pdfrwt beam="2">  1       -1 0.56811317E-02 0.58235438E+03</pdfrwt>
<totfact> 0.48862487E+02</totfact>
</mgrwt>
</event>
<event>
 4    1  0.7145298E-006  0.1405201E+04  0.7818608E-02  0.8950062E-01
         -1   -1    0    0    0  501 -0.00000000000E+00  0.00000000000E+00  0.17533073416E+04  0.17533073417E+04  0.50400000000E-02 0. -1.
          1   -1    0    0  501    0  0.00000000000E+00 -0.00000000000E+00 -0.28155215811E+03  0.28155215816E+03  0.50400000000E-02 0.  1.
    5000001    1    1    2    0    0  0.16621466191E+01  0.60723423977E+03  0.30618887320E+03  0.70664829354E+03  0.19200000000E+03 0.  0.
   -5000001    1    1    2    0    0 -0.16621466191E+01 -0.60723423977E+03  0.11655663103E+04  0.13282112063E+04  0.19200000000E+03 0.  0.
<mgrwt>
<rscale>  0 0.14052010E+04</rscale>
<asrwt>0</asrwt>
<pdfrwt beam="1">  1        1 0.40221738E-01 0.14052010E+04</pdfrwt>
<pdfrwt beam="2">  1       -1 0.25047247E+00 0.14052010E+04</pdfrwt>
<totfact> 0.70949464E+00</totfact>
</mgrwt>
</event>
<event>
 4    1  0.7145298E-006  0.4936404E+03  0.7818608E-02  0.1015452E+00
          1   -1    0    0  501    0  0.00000000000E+00  0.00000000000E+00  0.28021524029E+04  0.28021524029E+04  0.50400000000E-02 0.  1.
         -1   -1    0    0    0  501 -0.00000000000E+00 -0.00000000000E+00 -0.21740508841E+02  0.21740509425E+02  0.50400000000E-02 0. -1.
    5000001    1    1    2    0    0 -0.11935231218E+03  0.20714936603E+02  0.83610565471E+03  0.86637794805E+03  0.19200000000E+03 0.  0.
   -5000001    1    1    2    0    0  0.11935231218E+03 -0.20714936603E+02  0.19443062393E+04  0.19575149643E+04  0.19200000000E+03 0.  0.
<mgrwt>
<rscale>  0 0.49364044E+03</rscale>
<asrwt>0</asrwt>
<pdfrwt beam="1">  1        1 0.40030714E+00 0.49364044E+03</pdfrwt>
<pdfrwt beam="2">  1       -1 0.31057897E-02 0.49364044E+03</pdfrwt>
<totfact> 0.47153655E+02</totfact>
</mgrwt>
</event>
<event>
 4    1  0.7145298E-006  0.5288283E+03  0.7818608E-02  0.1006517E+00
          1   -1    0    0  501    0  0.00000000000E+00  0.00000000000E+00  0.58079406011E+03  0.58079406013E+03  0.50400000000E-02 0.  1.
         -1   -1    0    0    0  501 -0.00000000000E+00 -0.00000000000E+00 -0.12037800942E+03  0.12037800953E+03  0.50400000000E-02 0. -1.
    5000001    1    1    2    0    0  0.17026317858E+03  0.62910084857E+02  0.24370382053E+03  0.35944788343E+03  0.19200000000E+03 0.  0.
   -5000001    1    1    2    0    0 -0.17026317858E+03 -0.62910084857E+02  0.21671223016E+03  0.34172418624E+03  0.19200000000E+03 0.  0.
<mgrwt>
<rscale>  0 0.52882826E+03</rscale>
<asrwt>0</asrwt>
<pdfrwt beam="1">  1        1 0.82970578E-01 0.52882826E+03</pdfrwt>
<pdfrwt beam="2">  1       -1 0.17196859E-01 0.52882826E+03</pdfrwt>
<totfact> 0.10521684E+03</totfact>
</mgrwt>
</event>
<event>
 4    1  0.7145298E-006  0.7155477E+03  0.7818608E-02  0.9691007E-01
          1   -1    0    0  501    0  0.00000000000E+00  0.00000000000E+00  0.11866810837E+04  0.11866810837E+04  0.50400000000E-02 0.  1.
         -1   -1    0    0    0  501 -0.00000000000E+00 -0.00000000000E+00 -0.10786564646E+03  0.10786564657E+03  0.50400000000E-02 0. -1.
    5000001    1    1    2    0    0 -0.20045206884E+03  0.21711026124E+03  0.42758665593E+03  0.55408685760E+03  0.19200000000E+03 0.  0.
   -5000001    1    1    2    0    0  0.20045206884E+03 -0.21711026124E+03  0.65122878129E+03  0.74045987266E+03  0.19200000000E+03 0.  0.
<mgrwt>
<rscale>  0 0.71554768E+03</rscale>
<asrwt>0</asrwt>
<pdfrwt beam="1">  1        1 0.16952586E+00 0.71554768E+03</pdfrwt>
<pdfrwt beam="2">  1       -1 0.15409379E-01 0.71554768E+03</pdfrwt>
<totfact> 0.40273822E+02</totfact>
</mgrwt>
</event>
<event>
 4    1  0.7145298E-006  0.5093200E+03  0.7818608E-02  0.1011374E+00
         -1   -1    0    0    0  501 -0.00000000000E+00  0.00000000000E+00  0.12358884762E+04  0.12358884762E+04  0.50400000000E-02 0.  1.
          1   -1    0    0  501    0  0.00000000000E+00 -0.00000000000E+00 -0.52473769745E+02  0.52473769987E+02  0.50400000000E-02 0. -1.
    5000001    1    1    2    0    0 -0.15851273044E+03  0.38868696303E+02  0.49874197506E+03  0.55878852793E+03  0.19200000000E+03 0.  0.
   -5000001    1    1    2    0    0  0.15851273044E+03 -0.38868696303E+02  0.68467273139E+03  0.72957371826E+03  0.19200000000E+03 0.  0.
<mgrwt>
<rscale>  0 0.50932005E+03</rscale>
<asrwt>0</asrwt>
<pdfrwt beam="1">  1        1 0.74962523E-02 0.50932005E+03</pdfrwt>
<pdfrwt beam="2">  1       -1 0.17655551E+00 0.50932005E+03</pdfrwt>
<totfact> 0.22724513E+02</totfact>
</mgrwt>
</event>
<event>
 4    1  0.7145298E-006  0.7513338E+03  0.7818608E-02  0.9633260E-01
         -1   -1    0    0    0  501 -0.00000000000E+00  0.00000000000E+00  0.72849603581E+02  0.72849603756E+02  0.50400000000E-02 0. -1.
          1   -1    0    0  501    0  0.00000000000E+00 -0.00000000000E+00 -0.19372187032E+04  0.19372187032E+04  0.50400000000E-02 0.  1.
    5000001    1    1    2    0    0  0.19279767340E+03 -0.13217519675E+02 -0.24012608846E+03  0.36313934523E+03  0.19200000000E+03 0.  0.
   -5000001    1    1    2    0    0 -0.19279767340E+03  0.13217519675E+02 -0.16242430111E+04  0.16469289617E+04  0.19200000000E+03 0.  0.
<mgrwt>
<rscale>  0 0.75133379E+03</rscale>
<asrwt>0</asrwt>
<pdfrwt beam="1">  1        1 0.27674550E+00 0.75133379E+03</pdfrwt>
<pdfrwt beam="2">  1       -1 0.10407087E-01 0.75133379E+03</pdfrwt>
<totfact> 0.24762555E+02</totfact>
</mgrwt>
</event>
<event>
 4    1  0.7145298E-006  0.8071607E+03  0.7818608E-02  0.9549710E-01
         -1   -1    0    0    0  501 -0.00000000000E+00  0.00000000000E+00  0.21899894319E+03  0.21899894324E+03  0.50400000000E-02 0. -1.
          1   -1    0    0  501    0  0.00000000000E+00 -0.00000000000E+00 -0.74373455570E+03  0.74373455571E+03  0.50400000000E-02 0.  1.
    5000001    1    1    2    0    0  0.17383195890E+03  0.17907794090E+03  0.38729278279E+02  0.31725449697E+03  0.19200000000E+03 0.  0.
   -5000001    1    1    2    0    0 -0.17383195890E+03 -0.17907794090E+03 -0.56346489079E+03  0.64547900199E+03  0.19200000000E+03 0.  0.
<mgrwt>
<rscale>  0 0.80716066E+03</rscale>
<asrwt>0</asrwt>
<pdfrwt beam="1">  1        1 0.10624779E+00 0.80716066E+03</pdfrwt>
<pdfrwt beam="2">  1       -1 0.31285564E-01 0.80716066E+03</pdfrwt>
<totfact> 0.26570125E+02</totfact>
</mgrwt>
</event>
<event>
 4    1  0.7145298E-006  0.5519439E+03  0.7818608E-02  0.1001045E+00
          1   -1    0    0  501    0  0.00000000000E+00  0.00000000000E+00  0.19167050689E+03  0.19167050696E+03  0.50400000000E-02 0.  1.
         -1   -1    0    0    0  501 -0.00000000000E+00 -0.00000000000E+00 -0.39735120932E+03  0.39735120935E+03  0.50400000000E-02 0. -1.
    5000001    1    1    2    0    0  0.10237745172E+03  0.91491578795E+02  0.49749728849E+02  0.24122787387E+03  0.19200000000E+03 0.  0.
   -5000001    1    1    2    0    0 -0.10237745172E+03 -0.91491578795E+02 -0.25543043128E+03  0.34779384243E+03  0.19200000000E+03 0.  0.
<mgrwt>
<rscale>  0 0.55194387E+03</rscale>
<asrwt>0</asrwt>
<pdfrwt beam="1">  1        1 0.27381501E-01 0.55194387E+03</pdfrwt>
<pdfrwt beam="2">  1       -1 0.56764458E-01 0.55194387E+03</pdfrwt>
<totfact> 0.54977346E+02</totfact>
</mgrwt>
</event>
<event>
 4    1  0.7145298E-006  0.9333664E+03  0.7818608E-02  0.9384807E-01
         -1   -1    0    0    0  501 -0.00000000000E+00  0.00000000000E+00  0.38353735613E+03  0.38353735616E+03  0.50400000000E-02 0. -1.
          1   -1    0    0  501    0  0.00000000000E+00 -0.00000000000E+00 -0.56785393117E+03  0.56785393120E+03  0.50400000000E-02 0.  1.
    5000001    1    1    2    0    0 -0.20969632864E+03  0.33107658001E+03  0.76398224229E+02  0.44304056331E+03  0.19200000000E+03 0.  0.
   -5000001    1    1    2    0    0  0.20969632864E+03 -0.33107658001E+03 -0.26071479928E+03  0.50835072404E+03  0.19200000000E+03 0.  0.
<mgrwt>
<rscale>  0 0.93336637E+03</rscale>
<asrwt>0</asrwt>
<pdfrwt beam="1">  1        1 0.81121990E-01 0.93336637E+03</pdfrwt>
<pdfrwt beam="2">  1       -1 0.54791051E-01 0.93336637E+03</pdfrwt>
<totfact> 0.13937873E+02</totfact>
</mgrwt>
</event>
<event>
 4    1  0.7145298E-006  0.8715743E+03  0.7818608E-02  0.9461830E-01
          1   -1    0    0  501    0  0.00000000000E+00  0.00000000000E+00  0.57075066289E+03  0.57075066291E+03  0.50400000000E-02 0. -1.
         -1   -1    0    0    0  501 -0.00000000000E+00 -0.00000000000E+00 -0.33273797674E+03  0.33273797677E+03  0.50400000000E-02 0.  1.
    5000001    1    1    2    0    0  0.26948921707E+03  0.27898039402E+03  0.17178147220E+03  0.46564726194E+03  0.19200000000E+03 0.  0.
   -5000001    1    1    2    0    0 -0.26948921707E+03 -0.27898039402E+03  0.66231213950E+02  0.43784137774E+03  0.19200000000E+03 0.  0.
<mgrwt>
<rscale>  0 0.87157426E+03</rscale>
<asrwt>0</asrwt>
<pdfrwt beam="1">  1        1 0.81535809E-01 0.87157426E+03</pdfrwt>
<pdfrwt beam="2">  1       -1 0.47533997E-01 0.87157426E+03</pdfrwt>
<totfact> 0.18203078E+02</totfact>
</mgrwt>
</event>
<event>
 4    1  0.7145298E-006  0.4964123E+03  0.7818608E-02  0.1014720E+00
          1   -1    0    0  501    0  0.00000000000E+00  0.00000000000E+00  0.21670464230E+04  0.21670464230E+04  0.50400000000E-02 0.  1.
         -1   -1    0    0    0  501 -0.00000000000E+00 -0.00000000000E+00 -0.28428687655E+02  0.28428688102E+02  0.50400000000E-02 0. -1.
    5000001    1    1    2    0    0  0.14471523740E+03  0.16247083485E+02  0.13322938830E+04  0.13539119094E+04  0.19200000000E+03 0.  0.
   -5000001    1    1    2    0    0 -0.14471523740E+03 -0.16247083485E+02  0.80632385234E+03  0.84156320173E+03  0.19200000000E+03 0.  0.
<mgrwt>
<rscale>  0 0.49641227E+03</rscale>
<asrwt>0</asrwt>
<pdfrwt beam="1">  1        1 0.30957807E+00 0.49641227E+03</pdfrwt>
<pdfrwt beam="2">  1       -1 0.40612410E-02 0.49641227E+03</pdfrwt>
<totfact> 0.78039380E+02</totfact>
</mgrwt>
</event>
<event>
 4    1  0.7145298E-006  0.5646472E+03  0.7818608E-02  0.9981594E-01
          1   -1    0    0  501    0  0.00000000000E+00  0.00000000000E+00  0.38341297202E+02  0.38341297533E+02  0.50400000000E-02 0.  1.
         -1   -1    0    0    0  501 -0.00000000000E+00 -0.00000000000E+00 -0.20788710716E+04  0.20788710716E+04  0.50400000000E-02 0. -1.
    5000001    1    1    2    0    0 -0.82635625790E+02 -0.18811120657E+03 -0.11142406612E+04  0.11491782820E+04  0.19200000000E+03 0.  0.
   -5000001    1    1    2    0    0  0.82635625790E+02  0.18811120657E+03 -0.92628911315E+03  0.96803408712E+03  0.19200000000E+03 0.  0.
<mgrwt>
<rscale>  0 0.56464720E+03</rscale>
<asrwt>0</asrwt>
<pdfrwt beam="1">  1        1 0.54773295E-02 0.56464720E+03</pdfrwt>
<pdfrwt beam="2">  1       -1 0.29698151E+00 0.56464720E+03</pdfrwt>
<totfact> 0.56993449E+01</totfact>
</mgrwt>
</event>
<event>
 4    1  0.7145298E-006  0.5641050E+03  0.7818608E-02  0.9982809E-01
          1   -1    0    0  501    0  0.00000000000E+00  0.00000000000E+00  0.54380113514E+03  0.54380113517E+03  0.50400000000E-02 0.  1.
         -1   -1    0    0    0  501 -0.00000000000E+00 -0.00000000000E+00 -0.14629171484E+03  0.14629171492E+03  0.50400000000E-02 0. -1.
    5000001    1    1    2    0    0  0.99655338941E+02  0.16876712416E+03  0.11875837176E+03  0.29896668651E+03  0.19200000000E+03 0.  0.
   -5000001    1    1    2    0    0 -0.99655338941E+02 -0.16876712416E+03  0.27875104854E+03  0.39112616359E+03  0.19200000000E+03 0.  0.
<mgrwt>
<rscale>  0 0.56410496E+03</rscale>
<asrwt>0</asrwt>
<pdfrwt beam="1">  1        1 0.77685877E-01 0.56410496E+03</pdfrwt>
<pdfrwt beam="2">  1       -1 0.20898816E-01 0.56410496E+03</pdfrwt>
<totfact> 0.83491014E+02</totfact>
</mgrwt>
</event>
<event>
 4    1  0.7145298E-006  0.1147875E+04  0.7818608E-02  0.9159746E-01
         -1   -1    0    0    0  501 -0.00000000000E+00  0.00000000000E+00  0.23370522526E+03  0.23370522531E+03  0.50400000000E-02 0. -1.
          1   -1    0    0  501    0  0.00000000000E+00 -0.00000000000E+00 -0.14094872518E+04  0.14094872518E+04  0.50400000000E-02 0.  1.
    5000001    1    1    2    0    0  0.25680768080E+03  0.17885590136E+03 -0.12193804590E+04  0.12734568395E+04  0.19200000000E+03 0.  0.
   -5000001    1    1    2    0    0 -0.25680768080E+03 -0.17885590136E+03  0.43598432482E+02  0.36973563756E+03  0.19200000000E+03 0.  0.
<mgrwt>
<rscale>  0 0.11478755E+04</rscale>
<asrwt>0</asrwt>
<pdfrwt beam="1">  1        1 0.20135532E+00 0.11478755E+04</pdfrwt>
<pdfrwt beam="2">  1       -1 0.33386462E-01 0.11478755E+04</pdfrwt>
<totfact> 0.74731189E+01</totfact>
</mgrwt>
</event>
<event>
 4    1  0.7145298E-006  0.5548003E+03  0.7818608E-02  0.1000389E+00
         -1   -1    0    0    0  501 -0.00000000000E+00  0.00000000000E+00  0.10944600879E+03  0.10944600891E+03  0.50400000000E-02 0. -1.
          1   -1    0    0  501    0  0.00000000000E+00 -0.00000000000E+00 -0.70309413300E+03  0.70309413302E+03  0.50400000000E-02 0.  1.
    5000001    1    1    2    0    0 -0.13767398007E+03 -0.35752307478E+02 -0.90458347829E+02  0.25549768095E+03  0.19200000000E+03 0.  0.
   -5000001    1    1    2    0    0  0.13767398007E+03  0.35752307478E+02 -0.50318977638E+03  0.55704246098E+03  0.19200000000E+03 0.  0.
<mgrwt>
<rscale>  0 0.55480031E+03</rscale>
<asrwt>0</asrwt>
<pdfrwt beam="1">  1        1 0.10044202E+00 0.55480031E+03</pdfrwt>
<pdfrwt beam="2">  1       -1 0.15635145E-01 0.55480031E+03</pdfrwt>
<totfact> 0.93594667E+02</totfact>
</mgrwt>
</event>
<event>
 4    1  0.7145298E-006  0.5997912E+03  0.7818608E-02  0.9905839E-01
          1   -1    0    0  501    0  0.00000000000E+00  0.00000000000E+00  0.67035514122E+03  0.67035514124E+03  0.50400000000E-02 0.  1.
         -1   -1    0    0    0  501 -0.00000000000E+00 -0.00000000000E+00 -0.13416378022E+03  0.13416378031E+03  0.50400000000E-02 0. -1.
    5000001    1    1    2    0    0 -0.26033110920E+02  0.20798373400E+03  0.13987095156E+03  0.31680094628E+03  0.19200000000E+03 0.  0.
   -5000001    1    1    2    0    0  0.26033110920E+02 -0.20798373400E+03  0.39632040944E+03  0.48771797527E+03  0.19200000000E+03 0.  0.
<mgrwt>
<rscale>  0 0.59979123E+03</rscale>
<asrwt>0</asrwt>
<pdfrwt beam="1">  1        1 0.95765019E-01 0.59979123E+03</pdfrwt>
<pdfrwt beam="2">  1       -1 0.19166255E-01 0.59979123E+03</pdfrwt>
<totfact> 0.71809152E+02</totfact>
</mgrwt>
</event>
<event>
 4    1  0.7145298E-006  0.6637833E+03  0.7818608E-02  0.9781254E-01
          1   -1    0    0  501    0  0.00000000000E+00  0.00000000000E+00  0.28558609768E+03  0.28558609772E+03  0.50400000000E-02 0.  1.
         -1   -1    0    0    0  501 -0.00000000000E+00 -0.00000000000E+00 -0.38570526255E+03  0.38570526258E+03  0.50400000000E-02 0. -1.
    5000001    1    1    2    0    0 -0.12365019436E+03  0.20544388447E+03  0.77026048409E+02  0.31669160450E+03  0.19200000000E+03 0.  0.
   -5000001    1    1    2    0    0  0.12365019436E+03 -0.20544388447E+03 -0.17714521328E+03  0.35459975581E+03  0.19200000000E+03 0.  0.
<mgrwt>
<rscale>  0 0.66378328E+03</rscale>
<asrwt>0</asrwt>
<pdfrwt beam="1">  1        1 0.40798014E-01 0.66378328E+03</pdfrwt>
<pdfrwt beam="2">  1       -1 0.55100751E-01 0.66378328E+03</pdfrwt>
<totfact> 0.34703072E+02</totfact>
</mgrwt>
</event>
<event>
 4    1  0.7145298E-006  0.6537695E+03  0.7818608E-02  0.9799732E-01
          1   -1    0    0  501    0  0.00000000000E+00  0.00000000000E+00  0.60631914650E+03  0.60631914652E+03  0.50400000000E-02 0.  1.
         -1   -1    0    0    0  501 -0.00000000000E+00 -0.00000000000E+00 -0.17623332529E+03  0.17623332537E+03  0.50400000000E-02 0. -1.
    5000001    1    1    2    0    0  0.24885057119E+03 -0.86653035353E+02  0.24322382112E+03  0.40676428368E+03  0.19200000000E+03 0.  0.
   -5000001    1    1    2    0    0 -0.24885057119E+03  0.86653035353E+02  0.18686200009E+03  0.37578818821E+03  0.19200000000E+03 0.  0.
<mgrwt>
<rscale>  0 0.65376950E+03</rscale>
<asrwt>0</asrwt>
<pdfrwt beam="1">  1        1 0.86617022E-01 0.65376950E+03</pdfrwt>
<pdfrwt beam="2">  1       -1 0.25176189E-01 0.65376950E+03</pdfrwt>
<totfact> 0.52372767E+02</totfact>
</mgrwt>
</event>
<event>
 4    1  0.7145298E-006  0.3958158E+03  0.7818608E-02  0.1045238E+00
          1   -1    0    0  501    0  0.00000000000E+00  0.00000000000E+00  0.14578106736E+03  0.14578106745E+03  0.50400000000E-02 0.  1.
         -1   -1    0    0    0  501 -0.00000000000E+00 -0.00000000000E+00 -0.26867362952E+03  0.26867362957E+03  0.50400000000E-02 0. -1.
    5000001    1    1    2    0    0 -0.13354939870E+02  0.26432478053E+02 -0.21898729651E+02  0.19550085595E+03  0.19200000000E+03 0.  0.
   -5000001    1    1    2    0    0  0.13354939870E+02 -0.26432478053E+02 -0.10099383251E+03  0.21895384107E+03  0.19200000000E+03 0.  0.
<mgrwt>
<rscale>  0 0.39581576E+03</rscale>
<asrwt>0</asrwt>
<pdfrwt beam="1">  1        1 0.20825867E-01 0.39581576E+03</pdfrwt>
<pdfrwt beam="2">  1       -1 0.38381947E-01 0.39581576E+03</pdfrwt>
<totfact> 0.16191403E+03</totfact>
</mgrwt>
</event>
<event>
 4    1  0.7145298E-006  0.5871868E+03  0.7818608E-02  0.9932352E-01
         -1   -1    0    0    0  501 -0.00000000000E+00  0.00000000000E+00  0.54850852679E+02  0.54850852911E+02  0.50400000000E-02 0.  1.
          1   -1    0    0  501    0  0.00000000000E+00 -0.00000000000E+00 -0.15714812885E+04  0.15714812885E+04  0.50400000000E-02 0. -1.
    5000001    1    1    2    0    0  0.20993351249E+03 -0.32286192866E+01 -0.55762010148E+03  0.62600853127E+03  0.19200000000E+03 0.  0.
   -5000001    1    1    2    0    0 -0.20993351249E+03  0.32286192866E+01 -0.95901033436E+03  0.10003236102E+04  0.19200000000E+03 0.  0.
<mgrwt>
<rscale>  0 0.58718681E+03</rscale>
<asrwt>0</asrwt>
<pdfrwt beam="1">  1        1 0.22449730E+00 0.58718681E+03</pdfrwt>
<pdfrwt beam="2">  1       -1 0.78358371E-02 0.58718681E+03</pdfrwt>
<totfact> 0.66294083E+02</totfact>
</mgrwt>
</event>
<event>
 4    1  0.7145298E-006  0.4211788E+03  0.7818608E-02  0.1036683E+00
          1   -1    0    0  501    0  0.00000000000E+00  0.00000000000E+00  0.15085058991E+03  0.15085058999E+03  0.50400000000E-02 0.  1.
         -1   -1    0    0    0  501 -0.00000000000E+00 -0.00000000000E+00 -0.29398554095E+03  0.29398554100E+03  0.50400000000E-02 0. -1.
    5000001    1    1    2    0    0  0.23672275700E+02 -0.82120696571E+02 -0.57409019403E+02  0.21786229814E+03  0.19200000000E+03 0.  0.
   -5000001    1    1    2    0    0 -0.23672275700E+02  0.82120696571E+02 -0.85725931641E+02  0.22697383285E+03  0.19200000000E+03 0.  0.
<mgrwt>
<rscale>  0 0.42117879E+03</rscale>
<asrwt>0</asrwt>
<pdfrwt beam="1">  1        1 0.21550084E-01 0.42117879E+03</pdfrwt>
<pdfrwt beam="2">  1       -1 0.41997934E-01 0.42117879E+03</pdfrwt>
<totfact> 0.13182148E+03</totfact>
</mgrwt>
</event>
<event>
 4    1  0.7145298E-006  0.8372520E+03  0.7818608E-02  0.9507608E-01
          1   -1    0    0  501    0  0.00000000000E+00  0.00000000000E+00  0.10466126581E+04  0.10466126581E+04  0.50400000000E-02 0.  1.
         -1   -1    0    0    0  501 -0.00000000000E+00 -0.00000000000E+00 -0.16744275785E+03  0.16744275793E+03  0.50400000000E-02 0. -1.
    5000001    1    1    2    0    0 -0.28935161968E+03 -0.22548605065E+03  0.35001715793E+03  0.54216633028E+03  0.19200000000E+03 0.  0.
   -5000001    1    1    2    0    0  0.28935161968E+03  0.22548605065E+03  0.52915274231E+03  0.67188908574E+03  0.19200000000E+03 0.  0.
<mgrwt>
<rscale>  0 0.83725196E+03</rscale>
<asrwt>0</asrwt>
<pdfrwt beam="1">  1        1 0.14951610E+00 0.83725196E+03</pdfrwt>
<pdfrwt beam="2">  1       -1 0.23920393E-01 0.83725196E+03</pdfrwt>
<totfact> 0.24228018E+02</totfact>
</mgrwt>
</event>
<event>
 4    1  0.7145298E-006  0.5119027E+03  0.7818608E-02  0.1010718E+00
          1   -1    0    0  501    0  0.00000000000E+00  0.00000000000E+00  0.13716412469E+04  0.13716412469E+04  0.50400000000E-02 0.  1.
         -1   -1    0    0    0  501 -0.00000000000E+00 -0.00000000000E+00 -0.47761103886E+02  0.47761104152E+02  0.50400000000E-02 0. -1.
    5000001    1    1    2    0    0  0.11924900669E+03 -0.11688559540E+03  0.73860839914E+03  0.78120991756E+03  0.19200000000E+03 0.  0.
   -5000001    1    1    2    0    0 -0.11924900669E+03  0.11688559540E+03  0.58527174390E+03  0.63819243353E+03  0.19200000000E+03 0.  0.
<mgrwt>
<rscale>  0 0.51190273E+03</rscale>
<asrwt>0</asrwt>
<pdfrwt beam="1">  1        1 0.19594877E+00 0.51190273E+03</pdfrwt>
<pdfrwt beam="2">  1       -1 0.68230140E-02 0.51190273E+03</pdfrwt>
<totfact> 0.11081896E+03</totfact>
</mgrwt>
</event>
<event>
 4    1  0.7145298E-006  0.4403588E+03  0.7818608E-02  0.1030637E+00
          1   -1    0    0  501    0  0.00000000000E+00  0.00000000000E+00  0.19291847421E+04  0.19291847421E+04  0.50400000000E-02 0.  1.
         -1   -1    0    0    0  501 -0.00000000000E+00 -0.00000000000E+00 -0.25129249153E+02  0.25129249658E+02  0.50400000000E-02 0. -1.
    5000001    1    1    2    0    0  0.16255529286E+02 -0.97654944857E+02  0.11410593140E+04  0.11613272961E+04  0.19200000000E+03 0.  0.
   -5000001    1    1    2    0    0 -0.16255529286E+02  0.97654944857E+02  0.76299617888E+03  0.79298669565E+03  0.19200000000E+03 0.  0.
<mgrwt>
<rscale>  0 0.44035878E+03</rscale>
<asrwt>0</asrwt>
<pdfrwt beam="1">  1        1 0.27559787E+00 0.44035878E+03</pdfrwt>
<pdfrwt beam="2">  1       -1 0.35898921E-02 0.44035878E+03</pdfrwt>
<totfact> 0.13195580E+03</totfact>
</mgrwt>
</event>
<event>
 4    1  0.7145298E-006  0.7743145E+03  0.7818608E-02  0.9597959E-01
          1   -1    0    0  501    0  0.00000000000E+00  0.00000000000E+00  0.93666323746E+03  0.93666323747E+03  0.50400000000E-02 0.  1.
         -1   -1    0    0    0  501 -0.00000000000E+00 -0.00000000000E+00 -0.16002626751E+03  0.16002626759E+03  0.50400000000E-02 0. -1.
    5000001    1    1    2    0    0  0.87594794298E+02 -0.47466686461E+01  0.84798739081E+03  0.87386611893E+03  0.19200000000E+03 0.  0.
   -5000001    1    1    2    0    0 -0.87594794298E+02  0.47466686461E+01 -0.71350420853E+02  0.22282338613E+03  0.19200000000E+03 0.  0.
<mgrwt>
<rscale>  0 0.77431446E+03</rscale>
<asrwt>0</asrwt>
<pdfrwt beam="1">  1        1 0.13380903E+00 0.77431446E+03</pdfrwt>
<pdfrwt beam="2">  1       -1 0.22860895E-01 0.77431446E+03</pdfrwt>
<totfact> 0.31727442E+02</totfact>
</mgrwt>
</event>
<event>
 4    1  0.7145298E-006  0.4339675E+03  0.7818608E-02  0.1032614E+00
          1   -1    0    0  501    0  0.00000000000E+00  0.00000000000E+00  0.15966262634E+03  0.15966262642E+03  0.50400000000E-02 0. -1.
         -1   -1    0    0    0  501 -0.00000000000E+00 -0.00000000000E+00 -0.29488393281E+03  0.29488393286E+03  0.50400000000E-02 0.  1.
    5000001    1    1    2    0    0  0.49908436456E+02  0.85317946453E+02 -0.89778867959E+02  0.23386801651E+03  0.19200000000E+03 0.  0.
   -5000001    1    1    2    0    0 -0.49908436456E+02 -0.85317946453E+02 -0.45442438516E+02  0.22067854276E+03  0.19200000000E+03 0.  0.
<mgrwt>
<rscale>  0 0.43396748E+03</rscale>
<asrwt>0</asrwt>
<pdfrwt beam="1">  1        1 0.22808947E-01 0.43396748E+03</pdfrwt>
<pdfrwt beam="2">  1       -1 0.42126276E-01 0.43396748E+03</pdfrwt>
<totfact> 0.12178986E+03</totfact>
</mgrwt>
</event>
<event>
 4    1  0.7145298E-006  0.1030059E+04  0.7818608E-02  0.9276177E-01
         -1   -1    0    0    0  501 -0.00000000000E+00  0.00000000000E+00  0.32694056745E+03  0.32694056749E+03  0.50400000000E-02 0. -1.
          1   -1    0    0  501    0  0.00000000000E+00 -0.00000000000E+00 -0.81132624214E+03  0.81132624216E+03  0.50400000000E-02 0.  1.
    5000001    1    1    2    0    0 -0.37196398543E+03 -0.25626621283E+03 -0.41467228084E+03  0.64253146133E+03  0.19200000000E+03 0.  0.
   -5000001    1    1    2    0    0  0.37196398543E+03  0.25626621283E+03 -0.69713393845E+02  0.49573534832E+03  0.19200000000E+03 0.  0.
<mgrwt>
<rscale>  0 0.10300591E+04</rscale>
<asrwt>0</asrwt>
<pdfrwt beam="1">  1        1 0.11590375E+00 0.10300591E+04</pdfrwt>
<pdfrwt beam="2">  1       -1 0.46705796E-01 0.10300591E+04</pdfrwt>
<totfact> 0.11113368E+02</totfact>
</mgrwt>
</event>
<event>
 4    1  0.7145298E-006  0.6197809E+03  0.7818608E-02  0.9865196E-01
          1   -1    0    0  501    0  0.00000000000E+00  0.00000000000E+00  0.34668744310E+04  0.34668744310E+04  0.50400000000E-02 0. -1.
         -1   -1    0    0    0  501 -0.00000000000E+00 -0.00000000000E+00 -0.27699902995E+02  0.27699903454E+02  0.50400000000E-02 0.  1.
    5000001    1    1    2    0    0 -0.53742762163E+01 -0.24303461250E+03  0.17678871943E+04  0.17948213943E+04  0.19200000000E+03 0.  0.
   -5000001    1    1    2    0    0  0.53742762163E+01  0.24303461250E+03  0.16712873337E+04  0.16997529401E+04  0.19200000000E+03 0.  0.
<mgrwt>
<rscale>  0 0.61978088E+03</rscale>
<asrwt>0</asrwt>
<pdfrwt beam="1">  1        1 0.49526770E+00 0.61978088E+03</pdfrwt>
<pdfrwt beam="2">  1       -1 0.39571297E-02 0.61978088E+03</pdfrwt>
<totfact> 0.11816719E+02</totfact>
</mgrwt>
</event>
<event>
 4    1  0.7145298E-006  0.4303765E+03  0.7818608E-02  0.1033741E+00
          1   -1    0    0  501    0  0.00000000000E+00  0.00000000000E+00  0.70132874893E+03  0.70132874895E+03  0.50400000000E-02 0.  1.
         -1   -1    0    0    0  501 -0.00000000000E+00 -0.00000000000E+00 -0.66026071539E+02  0.66026071731E+02  0.50400000000E-02 0. -1.
    5000001    1    1    2    0    0 -0.20482003389E+02  0.91137055478E+02  0.26992502802E+03  0.34416419932E+03  0.19200000000E+03 0.  0.
   -5000001    1    1    2    0    0  0.20482003389E+02 -0.91137055478E+02  0.36537764937E+03  0.42319062136E+03  0.19200000000E+03 0.  0.
<mgrwt>
<rscale>  0 0.43037650E+03</rscale>
<asrwt>0</asrwt>
<pdfrwt beam="1">  1        1 0.10018982E+00 0.43037650E+03</pdfrwt>
<pdfrwt beam="2">  1       -1 0.94322965E-02 0.43037650E+03</pdfrwt>
<totfact> 0.20987631E+03</totfact>
</mgrwt>
</event>
<event>
 4    1  0.7145298E-006  0.6585617E+03  0.7818608E-02  0.9790845E-01
          1   -1    0    0  501    0  0.00000000000E+00  0.00000000000E+00  0.19341604229E+03  0.19341604236E+03  0.50400000000E-02 0.  1.
         -1   -1    0    0    0  501 -0.00000000000E+00 -0.00000000000E+00 -0.56058362996E+03  0.56058362998E+03  0.50400000000E-02 0. -1.
    5000001    1    1    2    0    0 -0.90148844963E+01 -0.18989200673E+03  0.31897189342E+02  0.27206924312E+03  0.19200000000E+03 0.  0.
   -5000001    1    1    2    0    0  0.90148844963E+01  0.18989200673E+03 -0.39906477701E+03  0.48193042922E+03  0.19200000000E+03 0.  0.
<mgrwt>
<rscale>  0 0.65856167E+03</rscale>
<asrwt>0</asrwt>
<pdfrwt beam="1">  1        1 0.27630863E-01 0.65856167E+03</pdfrwt>
<pdfrwt beam="2">  1       -1 0.80083375E-01 0.65856167E+03</pdfrwt>
<totfact> 0.27021805E+02</totfact>
</mgrwt>
</event>
<event>
 4    1  0.7145298E-006  0.8407860E+03  0.7818608E-02  0.9502788E-01
          1   -1    0    0  501    0  0.00000000000E+00  0.00000000000E+00  0.23153595258E+03  0.23153595263E+03  0.50400000000E-02 0.  1.
         -1   -1    0    0    0  501 -0.00000000000E+00 -0.00000000000E+00 -0.76329512644E+03  0.76329512646E+03  0.50400000000E-02 0. -1.
    5000001    1    1    2    0    0  0.32198590691E+03  0.12220576919E+03 -0.93368984958E+02  0.40520481441E+03  0.19200000000E+03 0.  0.
   -5000001    1    1    2    0    0 -0.32198590691E+03 -0.12220576919E+03 -0.43839018890E+03  0.58962626468E+03  0.19200000000E+03 0.  0.
<mgrwt>
<rscale>  0 0.84078598E+03</rscale>
<asrwt>0</asrwt>
<pdfrwt beam="1">  1        1 0.33076565E-01 0.84078598E+03</pdfrwt>
<pdfrwt beam="2">  1       -1 0.10904216E+00 0.84078598E+03</pdfrwt>
<totfact> 0.10656874E+02</totfact>
</mgrwt>
</event>
<event>
 4    1  0.7145298E-006  0.6381575E+03  0.7818608E-02  0.9829258E-01
          1   -1    0    0  501    0  0.00000000000E+00  0.00000000000E+00  0.53341845919E+03  0.53341845921E+03  0.50400000000E-02 0.  1.
         -1   -1    0    0    0  501 -0.00000000000E+00 -0.00000000000E+00 -0.19086562407E+03  0.19086562414E+03  0.50400000000E-02 0. -1.
    5000001    1    1    2    0    0  0.36768431981E+02 -0.23964433888E+03  0.82155423171E+02  0.31999193787E+03  0.19200000000E+03 0.  0.
   -5000001    1    1    2    0    0 -0.36768431981E+02  0.23964433888E+03  0.26039741195E+03  0.40429214548E+03  0.19200000000E+03 0.  0.
<mgrwt>
<rscale>  0 0.63815750E+03</rscale>
<asrwt>0</asrwt>
<pdfrwt beam="1">  1        1 0.76202638E-01 0.63815750E+03</pdfrwt>
<pdfrwt beam="2">  1       -1 0.27266517E-01 0.63815750E+03</pdfrwt>
<totfact> 0.54601928E+02</totfact>
</mgrwt>
</event>
<event>
 4    1  0.7145298E-006  0.5003944E+03  0.7818608E-02  0.1013676E+00
          1   -1    0    0  501    0  0.00000000000E+00  0.00000000000E+00  0.15711051296E+04  0.15711051296E+04  0.50400000000E-02 0.  1.
         -1   -1    0    0    0  501 -0.00000000000E+00 -0.00000000000E+00 -0.39843704366E+02  0.39843704685E+02  0.50400000000E-02 0. -1.
    5000001    1    1    2    0    0 -0.12814958063E+03  0.45602913756E+02  0.49183935640E+03  0.54522646053E+03  0.19200000000E+03 0.  0.
   -5000001    1    1    2    0    0  0.12814958063E+03 -0.45602913756E+02  0.10394220689E+04  0.10657223738E+04  0.19200000000E+03 0.  0.
<mgrwt>
<rscale>  0 0.50039444E+03</rscale>
<asrwt>0</asrwt>
<pdfrwt beam="1">  1        1 0.22444366E+00 0.50039444E+03</pdfrwt>
<pdfrwt beam="2">  1       -1 0.56919561E-02 0.50039444E+03</pdfrwt>
<totfact> 0.10911192E+03</totfact>
</mgrwt>
</event>
<event>
 4    1  0.7145298E-006  0.9452259E+03  0.7818608E-02  0.9370748E-01
          1   -1    0    0  501    0  0.00000000000E+00  0.00000000000E+00  0.14135418672E+04  0.14135418672E+04  0.50400000000E-02 0.  1.
         -1   -1    0    0    0  501 -0.00000000000E+00 -0.00000000000E+00 -0.15801653613E+03  0.15801653621E+03  0.50400000000E-02 0. -1.
    5000001    1    1    2    0    0  0.49093798923E+02  0.35866858065E+03  0.23626550700E+03  0.47301029760E+03  0.19200000000E+03 0.  0.
   -5000001    1    1    2    0    0 -0.49093798923E+02 -0.35866858065E+03  0.10192598240E+04  0.10985481058E+04  0.19200000000E+03 0.  0.
<mgrwt>
<rscale>  0 0.94522588E+03</rscale>
<asrwt>0</asrwt>
<pdfrwt beam="1">  1        1 0.20193454E+00 0.94522588E+03</pdfrwt>
<pdfrwt beam="2">  1       -1 0.22573792E-01 0.94522588E+03</pdfrwt>
<totfact> 0.14834468E+02</totfact>
</mgrwt>
</event>
<event>
 4    1  0.7145298E-006  0.5200943E+03  0.7818608E-02  0.1008663E+00
          1   -1    0    0  501    0  0.00000000000E+00  0.00000000000E+00  0.27091455843E+03  0.27091455848E+03  0.50400000000E-02 0.  1.
         -1   -1    0    0    0  501 -0.00000000000E+00 -0.00000000000E+00 -0.24961563561E+03  0.24961563566E+03  0.50400000000E-02 0. -1.
    5000001    1    1    2    0    0 -0.15502156873E+03 -0.81397447748E+02  0.20820580306E+02  0.26068127634E+03  0.19200000000E+03 0.  0.
   -5000001    1    1    2    0    0  0.15502156873E+03  0.81397447748E+02  0.47834251809E+00  0.25984891780E+03  0.19200000000E+03 0.  0.
<mgrwt>
<rscale>  0 0.52009426E+03</rscale>
<asrwt>0</asrwt>
<pdfrwt beam="1">  1        1 0.38702080E-01 0.52009426E+03</pdfrwt>
<pdfrwt beam="2">  1       -1 0.35659376E-01 0.52009426E+03</pdfrwt>
<totfact> 0.83149200E+02</totfact>
</mgrwt>
</event>
<event>
 4    1  0.7145298E-006  0.7733128E+03  0.7818608E-02  0.9599470E-01
         -1   -1    0    0    0  501 -0.00000000000E+00  0.00000000000E+00  0.10981298313E+03  0.10981298324E+03  0.50400000000E-02 0. -1.
          1   -1    0    0  501    0  0.00000000000E+00 -0.00000000000E+00 -0.13614344869E+04  0.13614344869E+04  0.50400000000E-02 0.  1.
    5000001    1    1    2    0    0  0.12761653633E+03 -0.30660629226E+03 -0.53366517557E+03  0.65723353415E+03  0.19200000000E+03 0.  0.
   -5000001    1    1    2    0    0 -0.12761653633E+03  0.30660629226E+03 -0.71795632818E+03  0.81401393598E+03  0.19200000000E+03 0.  0.
<mgrwt>
<rscale>  0 0.77331283E+03</rscale>
<asrwt>0</asrwt>
<pdfrwt beam="1">  1        1 0.19449063E+00 0.77331283E+03</pdfrwt>
<pdfrwt beam="2">  1       -1 0.15687570E-01 0.77331283E+03</pdfrwt>
<totfact> 0.29708879E+02</totfact>
</mgrwt>
</event>
<event>
 4    1  0.7145298E-006  0.5067961E+03  0.7818608E-02  0.1012020E+00
         -1   -1    0    0    0  501 -0.00000000000E+00  0.00000000000E+00  0.10551711155E+03  0.10551711167E+03  0.50400000000E-02 0.  1.
          1   -1    0    0  501    0  0.00000000000E+00 -0.00000000000E+00 -0.60853227728E+03  0.60853227730E+03  0.50400000000E-02 0. -1.
    5000001    1    1    2    0    0  0.25408232725E+02 -0.12253154509E+03 -0.40382399978E+03  0.46432465003E+03  0.19200000000E+03 0.  0.
   -5000001    1    1    2    0    0 -0.25408232725E+02  0.12253154509E+03 -0.99191165951E+02  0.24972473893E+03  0.19200000000E+03 0.  0.
<mgrwt>
<rscale>  0 0.50679609E+03</rscale>
<asrwt>0</asrwt>
<pdfrwt beam="1">  1        1 0.86933181E-01 0.50679609E+03</pdfrwt>
<pdfrwt beam="2">  1       -1 0.15073873E-01 0.50679609E+03</pdfrwt>
<totfact> 0.12214137E+03</totfact>
</mgrwt>
</event>
<event>
 4    1  0.7145298E-006  0.7314835E+03  0.7818608E-02  0.9664856E-01
         -1   -1    0    0    0  501 -0.00000000000E+00  0.00000000000E+00  0.26823315927E+03  0.26823315932E+03  0.50400000000E-02 0.  1.
          1   -1    0    0  501    0  0.00000000000E+00 -0.00000000000E+00 -0.49869681812E+03  0.49869681815E+03  0.50400000000E-02 0. -1.
    5000001    1    1    2    0    0 -0.28253805763E+03 -0.12659839027E+03 -0.14917528046E+03  0.39366504890E+03  0.19200000000E+03 0.  0.
   -5000001    1    1    2    0    0  0.28253805763E+03  0.12659839027E+03 -0.81288378393E+02  0.37326492856E+03  0.19200000000E+03 0.  0.
<mgrwt>
<rscale>  0 0.73148349E+03</rscale>
<asrwt>0</asrwt>
<pdfrwt beam="1">  1        1 0.71242402E-01 0.73148349E+03</pdfrwt>
<pdfrwt beam="2">  1       -1 0.38319023E-01 0.73148349E+03</pdfrwt>
<totfact> 0.32785674E+02</totfact>
</mgrwt>
</event>
<event>
 4    1  0.7145298E-006  0.6083145E+03  0.7818608E-02  0.9888305E-01
         -1   -1    0    0    0  501 -0.00000000000E+00  0.00000000000E+00  0.21466186452E+03  0.21466186458E+03  0.50400000000E-02 0.  1.
          1   -1    0    0  501    0  0.00000000000E+00 -0.00000000000E+00 -0.43096440720E+03  0.43096440723E+03  0.50400000000E-02 0. -1.
    5000001    1    1    2    0    0 -0.72004502559E+02  0.10107058181E+03  0.10477225403E+03  0.25147790382E+03  0.19200000000E+03 0.  0.
   -5000001    1    1    2    0    0  0.72004502559E+02 -0.10107058181E+03 -0.32107479671E+03  0.39414836798E+03  0.19200000000E+03 0.  0.
<mgrwt>
<rscale>  0 0.60831447E+03</rscale>
<asrwt>0</asrwt>
<pdfrwt beam="1">  1        1 0.61566344E-01 0.60831447E+03</pdfrwt>
<pdfrwt beam="2">  1       -1 0.30665981E-01 0.60831447E+03</pdfrwt>
<totfact> 0.59351225E+02</totfact>
</mgrwt>
</event>
<event>
 4    1  0.7145298E-006  0.4306470E+03  0.7818608E-02  0.1033656E+00
         -1   -1    0    0    0  501 -0.00000000000E+00  0.00000000000E+00  0.19450341205E+03  0.19450341211E+03  0.50400000000E-02 0. -1.
          1   -1    0    0  501    0  0.00000000000E+00 -0.00000000000E+00 -0.23837226789E+03  0.23837226794E+03  0.50400000000E-02 0.  1.
    5000001    1    1    2    0    0 -0.34109644893E+02  0.90399425232E+02 -0.90346392251E+01  0.21513053866E+03  0.19200000000E+03 0.  0.
   -5000001    1    1    2    0    0  0.34109644893E+02 -0.90399425232E+02 -0.34834216617E+02  0.21774514140E+03  0.19200000000E+03 0.  0.
<mgrwt>
<rscale>  0 0.43064705E+03</rscale>
<asrwt>0</asrwt>
<pdfrwt beam="1">  1        1 0.34053181E-01 0.43064705E+03</pdfrwt>
<pdfrwt beam="2">  1       -1 0.27786202E-01 0.43064705E+03</pdfrwt>
<totfact> 0.15104312E+03</totfact>
</mgrwt>
</event>
<event>
 4    1  0.7145298E-006  0.6305372E+03  0.7818608E-02  0.9844001E-01
         -1   -1    0    0    0  501 -0.00000000000E+00  0.00000000000E+00  0.12474345870E+03  0.12474345880E+03  0.50400000000E-02 0. -1.
          1   -1    0    0  501    0  0.00000000000E+00 -0.00000000000E+00 -0.79678950780E+03  0.79678950781E+03  0.50400000000E-02 0.  1.
    5000001    1    1    2    0    0 -0.65715589681E+02  0.18377267675E+03 -0.10754472620E+03  0.29414418842E+03  0.19200000000E+03 0.  0.
   -5000001    1    1    2    0    0  0.65715589681E+02 -0.18377267675E+03 -0.56450132290E+03  0.62738877819E+03  0.19200000000E+03 0.  0.
<mgrwt>
<rscale>  0 0.63053717E+03</rscale>
<asrwt>0</asrwt>
<pdfrwt beam="1">  1        1 0.11382707E+00 0.63053717E+03</pdfrwt>
<pdfrwt beam="2">  1       -1 0.17820495E-01 0.63053717E+03</pdfrwt>
<totfact> 0.62552136E+02</totfact>
</mgrwt>
</event>
<event>
 4    1  0.7145298E-006  0.5130938E+03  0.7818608E-02  0.1010417E+00
         -1   -1    0    0    0  501 -0.00000000000E+00  0.00000000000E+00  0.95035010260E+02  0.95035010394E+02  0.50400000000E-02 0.  1.
          1   -1    0    0  501    0  0.00000000000E+00 -0.00000000000E+00 -0.69254805692E+03  0.69254805693E+03  0.50400000000E-02 0. -1.
    5000001    1    1    2    0    0 -0.62397753124E+02  0.13812195300E+03 -0.18004517138E+03  0.30372918403E+03  0.19200000000E+03 0.  0.
   -5000001    1    1    2    0    0  0.62397753124E+02 -0.13812195300E+03 -0.41746787528E+03  0.48385388330E+03  0.19200000000E+03 0.  0.
<mgrwt>
<rscale>  0 0.51309380E+03</rscale>
<asrwt>0</asrwt>
<pdfrwt beam="1">  1        1 0.98935434E-01 0.51309380E+03</pdfrwt>
<pdfrwt beam="2">  1       -1 0.13576430E-01 0.51309380E+03</pdfrwt>
<totfact> 0.12020731E+03</totfact>
</mgrwt>
</event>
<event>
 4    1  0.7145298E-006  0.4337242E+03  0.7818608E-02  0.1032690E+00
         -1   -1    0    0    0  501 -0.00000000000E+00  0.00000000000E+00  0.27790664420E+02  0.27790664877E+02  0.50400000000E-02 0.  1.
          1   -1    0    0  501    0  0.00000000000E+00 -0.00000000000E+00 -0.16922647275E+04  0.16922647275E+04  0.50400000000E-02 0. -1.
    5000001    1    1    2    0    0 -0.86675649205E+02 -0.42031053572E+02 -0.95027377764E+03  0.97425023998E+03  0.19200000000E+03 0.  0.
   -5000001    1    1    2    0    0  0.86675649205E+02  0.42031053572E+02 -0.71420028541E+03  0.74580515238E+03  0.19200000000E+03 0.  0.
<mgrwt>
<rscale>  0 0.43372416E+03</rscale>
<asrwt>0</asrwt>
<pdfrwt beam="1">  1        1 0.24175204E+00 0.43372416E+03</pdfrwt>
<pdfrwt beam="2">  1       -1 0.39700960E-02 0.43372416E+03</pdfrwt>
<totfact> 0.15877462E+03</totfact>
</mgrwt>
</event>
<event>
 4    1  0.7145298E-006  0.5218569E+03  0.7818608E-02  0.1008226E+00
          1   -1    0    0  501    0  0.00000000000E+00  0.00000000000E+00  0.19561391290E+03  0.19561391296E+03  0.50400000000E-02 0.  1.
         -1   -1    0    0    0  501 -0.00000000000E+00 -0.00000000000E+00 -0.34805123681E+03  0.34805123685E+03  0.50400000000E-02 0. -1.
    5000001    1    1    2    0    0  0.94685933656E+02  0.13959121952E+03 -0.21403003518E+02  0.25646290796E+03  0.19200000000E+03 0.  0.
   -5000001    1    1    2    0    0 -0.94685933656E+02 -0.13959121952E+03 -0.13103432040E+03  0.28720224185E+03  0.19200000000E+03 0.  0.
<mgrwt>
<rscale>  0 0.52185693E+03</rscale>
<asrwt>0</asrwt>
<pdfrwt beam="1">  1        1 0.27944845E-01 0.52185693E+03</pdfrwt>
<pdfrwt beam="2">  1       -1 0.49721605E-01 0.52185693E+03</pdfrwt>
<totfact> 0.68949383E+02</totfact>
</mgrwt>
</event>
<event>
 4    1  0.7145298E-006  0.2351417E+04  0.7818608E-02  0.8457919E-01
         -1   -1    0    0    0  501 -0.00000000000E+00  0.00000000000E+00  0.12293064880E+04  0.12293064880E+04  0.50400000000E-02 0. -1.
          1   -1    0    0  501    0  0.00000000000E+00 -0.00000000000E+00 -0.11244476450E+04  0.11244476450E+04  0.50400000000E-02 0.  1.
    5000001    1    1    2    0    0  0.64897250882E+03 -0.87743179442E+03  0.44572562869E+03  0.11943982615E+04  0.19200000000E+03 0.  0.
   -5000001    1    1    2    0    0 -0.64897250882E+03  0.87743179442E+03 -0.34086678567E+03  0.11593558714E+04  0.19200000000E+03 0.  0.
<mgrwt>
<rscale>  0 0.23514173E+04</rscale>
<asrwt>0</asrwt>
<pdfrwt beam="1">  1        1 0.16063538E+00 0.23514173E+04</pdfrwt>
<pdfrwt beam="2">  1       -1 0.17561521E+00 0.23514173E+04</pdfrwt>
<totfact> 0.28336463E+00</totfact>
</mgrwt>
</event>
<event>
 4    1  0.7145298E-006  0.7923013E+03  0.7818608E-02  0.9571228E-01
         -1   -1    0    0    0  501 -0.00000000000E+00  0.00000000000E+00  0.91655216501E+02  0.91655216639E+02  0.50400000000E-02 0. -1.
          1   -1    0    0  501    0  0.00000000000E+00 -0.00000000000E+00 -0.17122356880E+04  0.17122356880E+04  0.50400000000E-02 0.  1.
    5000001    1    1    2    0    0 -0.22233650598E+03 -0.25737979192E+03 -0.65937852911E+03  0.76636931295E+03  0.19200000000E+03 0.  0.
   -5000001    1    1    2    0    0  0.22233650598E+03  0.25737979192E+03 -0.96120194238E+03  0.10375215917E+04  0.19200000000E+03 0.  0.
<mgrwt>
<rscale>  0 0.79230129E+03</rscale>
<asrwt>0</asrwt>
<pdfrwt beam="1">  1        1 0.24460508E+00 0.79230129E+03</pdfrwt>
<pdfrwt beam="2">  1       -1 0.13093603E-01 0.79230129E+03</pdfrwt>
<totfact> 0.23648655E+02</totfact>
</mgrwt>
</event>
<event>
 4    1  0.7145298E-006  0.4500960E+03  0.7818608E-02  0.1027693E+00
          1   -1    0    0  501    0  0.00000000000E+00  0.00000000000E+00  0.11237913974E+03  0.11237913986E+03  0.50400000000E-02 0.  1.
         -1   -1    0    0    0  501 -0.00000000000E+00 -0.00000000000E+00 -0.45067620262E+03  0.45067620265E+03  0.50400000000E-02 0. -1.
    5000001    1    1    2    0    0 -0.11323014676E+03  0.30386781038E+02 -0.16141866801E+03  0.27688338516E+03  0.19200000000E+03 0.  0.
   -5000001    1    1    2    0    0  0.11323014676E+03 -0.30386781038E+02 -0.17687839487E+03  0.28617195734E+03  0.19200000000E+03 0.  0.
<mgrwt>
<rscale>  0 0.45009601E+03</rscale>
<asrwt>0</asrwt>
<pdfrwt beam="1">  1        1 0.16054163E-01 0.45009601E+03</pdfrwt>
<pdfrwt beam="2">  1       -1 0.64382314E-01 0.45009601E+03</pdfrwt>
<totfact> 0.86572983E+02</totfact>
</mgrwt>
</event>
<event>
 4    1  0.7145298E-006  0.4963027E+03  0.7818608E-02  0.1014748E+00
          1   -1    0    0  501    0  0.00000000000E+00  0.00000000000E+00  0.11824397225E+03  0.11824397236E+03  0.50400000000E-02 0.  1.
         -1   -1    0    0    0  501 -0.00000000000E+00 -0.00000000000E+00 -0.52078003019E+03  0.52078003022E+03  0.50400000000E-02 0. -1.
    5000001    1    1    2    0    0 -0.14262938777E+03 -0.66101195375E+02 -0.20333985221E+03  0.32081709086E+03  0.19200000000E+03 0.  0.
   -5000001    1    1    2    0    0  0.14262938777E+03  0.66101195375E+02 -0.19919620573E+03  0.31820691172E+03  0.19200000000E+03 0.  0.
<mgrwt>
<rscale>  0 0.49630273E+03</rscale>
<asrwt>0</asrwt>
<pdfrwt beam="1">  1        1 0.16891996E-01 0.49630273E+03</pdfrwt>
<pdfrwt beam="2">  1       -1 0.74397146E-01 0.49630273E+03</pdfrwt>
<totfact> 0.60395913E+02</totfact>
</mgrwt>
</event>
<event>
 4    1  0.7145298E-006  0.4864056E+03  0.7818608E-02  0.1017389E+00
          1   -1    0    0  501    0  0.00000000000E+00  0.00000000000E+00  0.28779771925E+03  0.28779771929E+03  0.50400000000E-02 0.  1.
         -1   -1    0    0    0  501 -0.00000000000E+00 -0.00000000000E+00 -0.20551794229E+03  0.20551794235E+03  0.50400000000E-02 0. -1.
    5000001    1    1    2    0    0  0.81695786860E+02  0.11998093732E+03  0.58028611365E+01  0.24076399255E+03  0.19200000000E+03 0.  0.
   -5000001    1    1    2    0    0 -0.81695786860E+02 -0.11998093732E+03  0.76476915823E+02  0.25255166910E+03  0.19200000000E+03 0.  0.
<mgrwt>
<rscale>  0 0.48640557E+03</rscale>
<asrwt>0</asrwt>
<pdfrwt beam="1">  1        1 0.41113959E-01 0.48640557E+03</pdfrwt>
<pdfrwt beam="2">  1       -1 0.29359707E-01 0.48640557E+03</pdfrwt>
<totfact> 0.10808814E+03</totfact>
</mgrwt>
</event>
<event>
 4    1  0.7145298E-006  0.5428581E+03  0.7818608E-02  0.1003161E+00
          1   -1    0    0  501    0  0.00000000000E+00  0.00000000000E+00  0.34443871234E+04  0.34443871234E+04  0.50400000000E-02 0.  1.
         -1   -1    0    0    0  501 -0.00000000000E+00 -0.00000000000E+00 -0.21389504239E+02  0.21389504833E+02  0.50400000000E-02 0. -1.
    5000001    1    1    2    0    0  0.17866952033E+03  0.55585258199E+02  0.19821527289E+04  0.20002014796E+04  0.19200000000E+03 0.  0.
   -5000001    1    1    2    0    0 -0.17866952033E+03 -0.55585258199E+02  0.14408448903E+04  0.14655751486E+04  0.19200000000E+03 0.  0.
<mgrwt>
<rscale>  0 0.54285812E+03</rscale>
<asrwt>0</asrwt>
<pdfrwt beam="1">  1        1 0.49205544E+00 0.54285812E+03</pdfrwt>
<pdfrwt beam="2">  1       -1 0.30556427E-02 0.54285812E+03</pdfrwt>
<totfact> 0.18274791E+02</totfact>
</mgrwt>
</event>
<event>
 4    1  0.7145298E-006  0.4404531E+03  0.7818608E-02  0.1030608E+00
         -1   -1    0    0    0  501 -0.00000000000E+00  0.00000000000E+00  0.41348307108E+02  0.41348307415E+02  0.50400000000E-02 0. -1.
          1   -1    0    0  501    0  0.00000000000E+00 -0.00000000000E+00 -0.11729554672E+04  0.11729554672E+04  0.50400000000E-02 0.  1.
    5000001    1    1    2    0    0 -0.98174872212E+02  0.38741820442E+02 -0.50437330122E+03  0.54990513833E+03  0.19200000000E+03 0.  0.
   -5000001    1    1    2    0    0  0.98174872212E+02 -0.38741820442E+02 -0.62723385884E+03  0.66439863625E+03  0.19200000000E+03 0.  0.
<mgrwt>
<rscale>  0 0.44045305E+03</rscale>
<asrwt>0</asrwt>
<pdfrwt beam="1">  1        1 0.16756505E+00 0.44045305E+03</pdfrwt>
<pdfrwt beam="2">  1       -1 0.59069018E-02 0.44045305E+03</pdfrwt>
<totfact> 0.18795300E+03</totfact>
</mgrwt>
</event>
<event>
 4    1  0.7145298E-006  0.7661322E+03  0.7818608E-02  0.9610376E-01
          1   -1    0    0  501    0  0.00000000000E+00  0.00000000000E+00  0.80949707382E+03  0.80949707383E+03  0.50400000000E-02 0.  1.
         -1   -1    0    0    0  501 -0.00000000000E+00 -0.00000000000E+00 -0.18127262051E+03  0.18127262058E+03  0.50400000000E-02 0. -1.
    5000001    1    1    2    0    0 -0.22791608381E+03 -0.16297873688E+03  0.85072235384E+02  0.35015581556E+03  0.19200000000E+03 0.  0.
   -5000001    1    1    2    0    0  0.22791608381E+03  0.16297873688E+03  0.54315221793E+03  0.64061387885E+03  0.19200000000E+03 0.  0.
<mgrwt>
<rscale>  0 0.76613225E+03</rscale>
<asrwt>0</asrwt>
<pdfrwt beam="1">  1        1 0.11564244E+00 0.76613225E+03</pdfrwt>
<pdfrwt beam="2">  1       -1 0.25896089E-01 0.76613225E+03</pdfrwt>
<totfact> 0.32450664E+02</totfact>
</mgrwt>
</event>
<event>
 4    1  0.7145298E-006  0.5462519E+03  0.7818608E-02  0.1002365E+00
          1   -1    0    0  501    0  0.00000000000E+00  0.00000000000E+00  0.10181492311E+04  0.10181492311E+04  0.50400000000E-02 0.  1.
         -1   -1    0    0    0  501 -0.00000000000E+00 -0.00000000000E+00 -0.73268021897E+02  0.73268022070E+02  0.50400000000E-02 0. -1.
    5000001    1    1    2    0    0 -0.12495710256E+03  0.11536475159E+03  0.65998218625E+03  0.70807046934E+03  0.19200000000E+03 0.  0.
   -5000001    1    1    2    0    0  0.12495710256E+03 -0.11536475159E+03  0.28489902291E+03  0.38334678379E+03  0.19200000000E+03 0.  0.
<mgrwt>
<rscale>  0 0.54625188E+03</rscale>
<asrwt>0</asrwt>
<pdfrwt beam="1">  1        1 0.14544989E+00 0.54625188E+03</pdfrwt>
<pdfrwt beam="2">  1       -1 0.10466860E-01 0.54625188E+03</pdfrwt>
<totfact> 0.99268009E+02</totfact>
</mgrwt>
</event>
<event>
 4    1  0.7145298E-006  0.5375951E+03  0.7818608E-02  0.1004407E+00
          1   -1    0    0  501    0  0.00000000000E+00  0.00000000000E+00  0.67904095744E+03  0.67904095746E+03  0.50400000000E-02 0.  1.
         -1   -1    0    0    0  501 -0.00000000000E+00 -0.00000000000E+00 -0.10640318497E+03  0.10640318509E+03  0.50400000000E-02 0. -1.
    5000001    1    1    2    0    0 -0.17326360350E+03  0.17828950306E+02  0.39014450632E+03  0.46841742450E+03  0.19200000000E+03 0.  0.
   -5000001    1    1    2    0    0  0.17326360350E+03 -0.17828950306E+02  0.18249326615E+03  0.31702671805E+03  0.19200000000E+03 0.  0.
<mgrwt>
<rscale>  0 0.53759509E+03</rscale>
<asrwt>0</asrwt>
<pdfrwt beam="1">  1        1 0.97005853E-01 0.53759509E+03</pdfrwt>
<pdfrwt beam="2">  1       -1 0.15200455E-01 0.53759509E+03</pdfrwt>
<totfact> 0.10308309E+03</totfact>
</mgrwt>
</event>
<event>
 4    1  0.7145298E-006  0.5130282E+03  0.7818608E-02  0.1010433E+00
          1   -1    0    0  501    0  0.00000000000E+00  0.00000000000E+00  0.61904208532E+02  0.61904208737E+02  0.50400000000E-02 0. -1.
         -1   -1    0    0    0  501 -0.00000000000E+00 -0.00000000000E+00 -0.10629241916E+04  0.10629241916E+04  0.50400000000E-02 0.  1.
    5000001    1    1    2    0    0 -0.15078433936E+03 -0.16537436193E+02 -0.66929298839E+03  0.71261946935E+03  0.19200000000E+03 0.  0.
   -5000001    1    1    2    0    0  0.15078433936E+03  0.16537436193E+02 -0.33172699467E+03  0.41220893098E+03  0.19200000000E+03 0.  0.
<mgrwt>
<rscale>  0 0.51302819E+03</rscale>
<asrwt>0</asrwt>
<pdfrwt beam="1">  1        1 0.88434590E-02 0.51302819E+03</pdfrwt>
<pdfrwt beam="2">  1       -1 0.15184630E+00 0.51302819E+03</pdfrwt>
<totfact> 0.27509645E+02</totfact>
</mgrwt>
</event>
<event>
 4    1  0.7145298E-006  0.6896593E+03  0.7818608E-02  0.9735081E-01
          1   -1    0    0  501    0  0.00000000000E+00  0.00000000000E+00  0.73376767455E+03  0.73376767456E+03  0.50400000000E-02 0. -1.
         -1   -1    0    0    0  501 -0.00000000000E+00 -0.00000000000E+00 -0.16205060812E+03  0.16205060820E+03  0.50400000000E-02 0.  1.
    5000001    1    1    2    0    0  0.16850784593E+02 -0.28536788450E+03  0.26245187180E+03  0.43297085752E+03  0.19200000000E+03 0.  0.
   -5000001    1    1    2    0    0 -0.16850784593E+02  0.28536788450E+03  0.30926519462E+03  0.46284742524E+03  0.19200000000E+03 0.  0.
<mgrwt>
<rscale>  0 0.68965933E+03</rscale>
<asrwt>0</asrwt>
<pdfrwt beam="1">  1        1 0.10482395E+00 0.68965933E+03</pdfrwt>
<pdfrwt beam="2">  1       -1 0.23150087E-01 0.68965933E+03</pdfrwt>
<totfact> 0.45741922E+02</totfact>
</mgrwt>
</event>
<event>
 4    1  0.7145298E-006  0.6677700E+03  0.7818608E-02  0.9773995E-01
          1   -1    0    0  501    0  0.00000000000E+00  0.00000000000E+00  0.10790555338E+03  0.10790555350E+03  0.50400000000E-02 0.  1.
         -1   -1    0    0    0  501 -0.00000000000E+00 -0.00000000000E+00 -0.10331183235E+04  0.10331183235E+04  0.50400000000E-02 0. -1.
    5000001    1    1    2    0    0 -0.42398401576E+02 -0.26690146458E+03 -0.53055171201E+03  0.62560621430E+03  0.19200000000E+03 0.  0.
   -5000001    1    1    2    0    0  0.42398401576E+02  0.26690146458E+03 -0.39466105813E+03  0.51541766273E+03  0.19200000000E+03 0.  0.
<mgrwt>
<rscale>  0 0.66777003E+03</rscale>
<asrwt>0</asrwt>
<pdfrwt beam="1">  1        1 0.15415080E-01 0.66777003E+03</pdfrwt>
<pdfrwt beam="2">  1       -1 0.14758833E+00 0.66777003E+03</pdfrwt>
<totfact> 0.13820651E+02</totfact>
</mgrwt>
</event>
<event>
 4    1  0.7145298E-006  0.5141068E+03  0.7818608E-02  0.1010161E+00
          1   -1    0    0  501    0  0.00000000000E+00  0.00000000000E+00  0.31688759348E+03  0.31688759352E+03  0.50400000000E-02 0. -1.
         -1   -1    0    0    0  501 -0.00000000000E+00 -0.00000000000E+00 -0.20851701298E+03  0.20851701304E+03  0.50400000000E-02 0.  1.
    5000001    1    1    2    0    0  0.16963321794E+03 -0.19273624073E+02  0.62459711980E+02  0.26440899537E+03  0.19200000000E+03 0.  0.
   -5000001    1    1    2    0    0 -0.16963321794E+03  0.19273624073E+02  0.45910868522E+02  0.26099561119E+03  0.19200000000E+03 0.  0.
<mgrwt>
<rscale>  0 0.51410682E+03</rscale>
<asrwt>0</asrwt>
<pdfrwt beam="1">  1        1 0.45269656E-01 0.51410682E+03</pdfrwt>
<pdfrwt beam="2">  1       -1 0.29788145E-01 0.51410682E+03</pdfrwt>
<totfact> 0.93177566E+02</totfact>
</mgrwt>
</event>
<event>
 4    1  0.7145298E-006  0.4780920E+03  0.7818608E-02  0.1019661E+00
         -1   -1    0    0    0  501 -0.00000000000E+00  0.00000000000E+00  0.30295440193E+02  0.30295440612E+02  0.50400000000E-02 0. -1.
          1   -1    0    0  501    0  0.00000000000E+00 -0.00000000000E+00 -0.18861911934E+04  0.18861911934E+04  0.50400000000E-02 0.  1.
    5000001    1    1    2    0    0  0.90500621681E+02 -0.65631244358E+02 -0.57434420706E+03  0.61581904075E+03  0.19200000000E+03 0.  0.
   -5000001    1    1    2    0    0 -0.90500621681E+02  0.65631244358E+02 -0.12815515461E+04  0.13006675932E+04  0.19200000000E+03 0.  0.
<mgrwt>
<rscale>  0 0.47809201E+03</rscale>
<asrwt>0</asrwt>
<pdfrwt beam="1">  1        1 0.26945581E+00 0.47809201E+03</pdfrwt>
<pdfrwt beam="2">  1       -1 0.43279213E-02 0.47809201E+03</pdfrwt>
<totfact> 0.10555385E+03</totfact>
</mgrwt>
</event>
<event>
 4    1  0.7145298E-006  0.5325532E+03  0.7818608E-02  0.1005615E+00
          1   -1    0    0  501    0  0.00000000000E+00  0.00000000000E+00  0.15598371476E+03  0.15598371484E+03  0.50400000000E-02 0. -1.
         -1   -1    0    0    0  501 -0.00000000000E+00 -0.00000000000E+00 -0.45455538827E+03  0.45455538830E+03  0.50400000000E-02 0.  1.
    5000001    1    1    2    0    0 -0.17461340054E+03 -0.59460541736E+02 -0.15355119912E+03  0.30735543988E+03  0.19200000000E+03 0.  0.
   -5000001    1    1    2    0    0  0.17461340054E+03  0.59460541736E+02 -0.14502047439E+03  0.30318366326E+03  0.19200000000E+03 0.  0.
<mgrwt>
<rscale>  0 0.53255324E+03</rscale>
<asrwt>0</asrwt>
<pdfrwt beam="1">  1        1 0.22283388E-01 0.53255324E+03</pdfrwt>
<pdfrwt beam="2">  1       -1 0.64936483E-01 0.53255324E+03</pdfrwt>
<totfact> 0.55216135E+02</totfact>
</mgrwt>
</event>
<event>
 4    1  0.7145298E-006  0.7137745E+03  0.7818608E-02  0.9693962E-01
          1   -1    0    0  501    0  0.00000000000E+00  0.00000000000E+00  0.31509046548E+03  0.31509046552E+03  0.50400000000E-02 0. -1.
         -1   -1    0    0    0  501 -0.00000000000E+00 -0.00000000000E+00 -0.40422835097E+03  0.40422835100E+03  0.50400000000E-02 0.  1.
    5000001    1    1    2    0    0 -0.16278794997E+03 -0.24317996118E+03  0.25744711570E+02  0.35094615021E+03  0.19200000000E+03 0.  0.
   -5000001    1    1    2    0    0  0.16278794997E+03  0.24317996118E+03 -0.11488259707E+03  0.36837266631E+03  0.19200000000E+03 0.  0.
<mgrwt>
<rscale>  0 0.71377447E+03</rscale>
<asrwt>0</asrwt>
<pdfrwt beam="1">  1        1 0.45012924E-01 0.71377447E+03</pdfrwt>
<pdfrwt beam="2">  1       -1 0.57746907E-01 0.71377447E+03</pdfrwt>
<totfact> 0.27857749E+02</totfact>
</mgrwt>
</event>
<event>
 4    1  0.7145298E-006  0.4780855E+03  0.7818608E-02  0.1019663E+00
          1   -1    0    0  501    0  0.00000000000E+00  0.00000000000E+00  0.92753477917E+03  0.92753477918E+03  0.50400000000E-02 0.  1.
         -1   -1    0    0    0  501 -0.00000000000E+00 -0.00000000000E+00 -0.61605715417E+02  0.61605715623E+02  0.50400000000E-02 0. -1.
    5000001    1    1    2    0    0  0.30346915666E+02  0.12147640269E+03  0.29264086583E+03  0.37172587757E+03  0.19200000000E+03 0.  0.
   -5000001    1    1    2    0    0 -0.30346915666E+02 -0.12147640269E+03  0.57328819792E+03  0.61741461724E+03  0.19200000000E+03 0.  0.
<mgrwt>
<rscale>  0 0.47808553E+03</rscale>
<asrwt>0</asrwt>
<pdfrwt beam="1">  1        1 0.13250497E+00 0.47808553E+03</pdfrwt>
<pdfrwt beam="2">  1       -1 0.88008163E-02 0.47808553E+03</pdfrwt>
<totfact> 0.15243295E+03</totfact>
</mgrwt>
</event>
<event>
 4    1  0.7145298E-006  0.5705866E+03  0.7818608E-02  0.9968381E-01
          1   -1    0    0  501    0  0.00000000000E+00  0.00000000000E+00  0.13077664358E+04  0.13077664358E+04  0.50400000000E-02 0.  1.
         -1   -1    0    0    0  501 -0.00000000000E+00 -0.00000000000E+00 -0.62237620316E+02  0.62237620520E+02  0.50400000000E-02 0. -1.
    5000001    1    1    2    0    0 -0.19254005269E+03  0.86150564198E+02  0.63690398142E+03  0.69785691453E+03  0.19200000000E+03 0.  0.
   -5000001    1    1    2    0    0  0.19254005269E+03 -0.86150564198E+02  0.60862483410E+03  0.67214714184E+03  0.19200000000E+03 0.  0.
<mgrwt>
<rscale>  0 0.57058661E+03</rscale>
<asrwt>0</asrwt>
<pdfrwt beam="1">  1        1 0.18682377E+00 0.57058661E+03</pdfrwt>
<pdfrwt beam="2">  1       -1 0.88910889E-02 0.57058661E+03</pdfrwt>
<totfact> 0.80719077E+02</totfact>
</mgrwt>
</event>
<event>
 4    1  0.7145298E-006  0.3943347E+03  0.7818608E-02  0.1045759E+00
          1   -1    0    0  501    0  0.00000000000E+00  0.00000000000E+00  0.10373606794E+04  0.10373606794E+04  0.50400000000E-02 0.  1.
         -1   -1    0    0    0  501 -0.00000000000E+00 -0.00000000000E+00 -0.37474880665E+02  0.37474881004E+02  0.50400000000E-02 0. -1.
    5000001    1    1    2    0    0 -0.17814116864E+02 -0.33674588451E+02  0.56442425698E+03  0.59740276408E+03  0.19200000000E+03 0.  0.
   -5000001    1    1    2    0    0  0.17814116864E+02  0.33674588451E+02  0.43546154176E+03  0.47743279634E+03  0.19200000000E+03 0.  0.
<mgrwt>
<rscale>  0 0.39433472E+03</rscale>
<asrwt>0</asrwt>
<pdfrwt beam="1">  1        1 0.14819437E+00 0.39433472E+03</pdfrwt>
<pdfrwt beam="2">  1       -1 0.53535548E-02 0.39433472E+03</pdfrwt>
<totfact> 0.27160531E+03</totfact>
</mgrwt>
</event>
<event>
 4    1  0.7145298E-006  0.6345367E+03  0.7818608E-02  0.9836236E-01
          1   -1    0    0  501    0  0.00000000000E+00  0.00000000000E+00  0.22688745886E+04  0.22688745886E+04  0.50400000000E-02 0. -1.
         -1   -1    0    0    0  501 -0.00000000000E+00 -0.00000000000E+00 -0.44365258564E+02  0.44365258850E+02  0.50400000000E-02 0.  1.
    5000001    1    1    2    0    0  0.13468832080E+03 -0.17753797521E+03  0.67883897751E+03  0.73982905714E+03  0.19200000000E+03 0.  0.
   -5000001    1    1    2    0    0 -0.13468832080E+03  0.17753797521E+03  0.15456703525E+04  0.15734107903E+04  0.19200000000E+03 0.  0.
<mgrwt>
<rscale>  0 0.63453671E+03</rscale>
<asrwt>0</asrwt>
<pdfrwt beam="1">  1        1 0.32412513E+00 0.63453671E+03</pdfrwt>
<pdfrwt beam="2">  1       -1 0.63378903E-02 0.63453671E+03</pdfrwt>
<totfact> 0.33840433E+02</totfact>
</mgrwt>
</event>
<event>
 4    1  0.7145298E-006  0.4016075E+03  0.7818608E-02  0.1043224E+00
          1   -1    0    0  501    0  0.00000000000E+00  0.00000000000E+00  0.95635110300E+02  0.95635110433E+02  0.50400000000E-02 0.  1.
         -1   -1    0    0    0  501 -0.00000000000E+00 -0.00000000000E+00 -0.42162487693E+03  0.42162487696E+03  0.50400000000E-02 0. -1.
    5000001    1    1    2    0    0 -0.46233857065E+02 -0.42946100611E+01 -0.11651832014E+03  0.22933933841E+03  0.19200000000E+03 0.  0.
   -5000001    1    1    2    0    0  0.46233857065E+02  0.42946100611E+01 -0.20947144649E+03  0.28792064898E+03  0.19200000000E+03 0.  0.
<mgrwt>
<rscale>  0 0.40160748E+03</rscale>
<asrwt>0</asrwt>
<pdfrwt beam="1">  1        1 0.13662159E-01 0.40160748E+03</pdfrwt>
<pdfrwt beam="2">  1       -1 0.60232124E-01 0.40160748E+03</pdfrwt>
<totfact> 0.12228653E+03</totfact>
</mgrwt>
</event>
<event>
 4    1  0.7145298E-006  0.7778938E+03  0.7818608E-02  0.9592578E-01
          1   -1    0    0  501    0  0.00000000000E+00  0.00000000000E+00  0.23436742776E+04  0.23436742776E+04  0.50400000000E-02 0.  1.
         -1   -1    0    0    0  501 -0.00000000000E+00 -0.00000000000E+00 -0.64548084863E+02  0.64548085060E+02  0.50400000000E-02 0. -1.
    5000001    1    1    2    0    0  0.13055374754E+03 -0.29498673877E+03  0.82454523996E+03  0.90598030320E+03  0.19200000000E+03 0.  0.
   -5000001    1    1    2    0    0 -0.13055374754E+03  0.29498673877E+03  0.14545809528E+04  0.15022420595E+04  0.19200000000E+03 0.  0.
<mgrwt>
<rscale>  0 0.77789379E+03</rscale>
<asrwt>0</asrwt>
<pdfrwt beam="1">  1        1 0.33481057E+00 0.77789379E+03</pdfrwt>
<pdfrwt beam="2">  1       -1 0.92211561E-02 0.77789379E+03</pdfrwt>
<totfact> 0.16727663E+02</totfact>
</mgrwt>
</event>
<event>
 4    1  0.7145298E-006  0.1156793E+04  0.7818608E-02  0.9151540E-01
         -1   -1    0    0    0  501 -0.00000000000E+00  0.00000000000E+00  0.37659156874E+03  0.37659156878E+03  0.50400000000E-02 0. -1.
          1   -1    0    0  501    0  0.00000000000E+00 -0.00000000000E+00 -0.88834288101E+03  0.88834288102E+03  0.50400000000E-02 0.  1.
    5000001    1    1    2    0    0 -0.45553583948E+03 -0.26098162454E+03 -0.93486367922E+02  0.56676980370E+03  0.19200000000E+03 0.  0.
   -5000001    1    1    2    0    0  0.45553583948E+03  0.26098162454E+03 -0.41826494434E+03  0.69816464610E+03  0.19200000000E+03 0.  0.
<mgrwt>
<rscale>  0 0.11567929E+04</rscale>
<asrwt>0</asrwt>
<pdfrwt beam="1">  1        1 0.12690613E+00 0.11567929E+04</pdfrwt>
<pdfrwt beam="2">  1       -1 0.53798796E-01 0.11567929E+04</pdfrwt>
<totfact> 0.72882912E+01</totfact>
</mgrwt>
</event>
<event>
 4    1  0.7145298E-006  0.5896256E+03  0.7818608E-02  0.9927166E-01
         -1   -1    0    0    0  501 -0.00000000000E+00  0.00000000000E+00  0.26029081533E+03  0.26029081538E+03  0.50400000000E-02 0. -1.
          1   -1    0    0  501    0  0.00000000000E+00 -0.00000000000E+00 -0.33391340152E+03  0.33391340156E+03  0.50400000000E-02 0.  1.
    5000001    1    1    2    0    0 -0.18061644353E+03  0.11305398471E+03 -0.10551020449E+03  0.30561398264E+03  0.19200000000E+03 0.  0.
   -5000001    1    1    2    0    0  0.18061644353E+03 -0.11305398471E+03  0.31887618295E+02  0.28859023430E+03  0.19200000000E+03 0.  0.
<mgrwt>
<rscale>  0 0.58962562E+03</rscale>
<asrwt>0</asrwt>
<pdfrwt beam="1">  1        1 0.47701914E-01 0.58962562E+03</pdfrwt>
<pdfrwt beam="2">  1       -1 0.37184402E-01 0.58962562E+03</pdfrwt>
<totfact> 0.58929322E+02</totfact>
</mgrwt>
</event>
<event>
 4    1  0.7145298E-006  0.5576143E+03  0.7818608E-02  0.9997467E-01
          1   -1    0    0  501    0  0.00000000000E+00  0.00000000000E+00  0.10115051047E+04  0.10115051047E+04  0.50400000000E-02 0.  1.
         -1   -1    0    0    0  501 -0.00000000000E+00 -0.00000000000E+00 -0.76849279967E+02  0.76849280132E+02  0.50400000000E-02 0. -1.
    5000001    1    1    2    0    0 -0.17846805906E+03 -0.91795474274E+02  0.41983115629E+03  0.50338797859E+03  0.19200000000E+03 0.  0.
   -5000001    1    1    2    0    0  0.17846805906E+03  0.91795474274E+02  0.51482466844E+03  0.58496640625E+03  0.19200000000E+03 0.  0.
<mgrwt>
<rscale>  0 0.55761434E+03</rscale>
<asrwt>0</asrwt>
<pdfrwt beam="1">  1        1 0.14450073E+00 0.55761434E+03</pdfrwt>
<pdfrwt beam="2">  1       -1 0.10978469E-01 0.55761434E+03</pdfrwt>
<totfact> 0.93061316E+02</totfact>
</mgrwt>
</event>
<event>
 4    1  0.7145298E-006  0.5933446E+03  0.7818608E-02  0.9919311E-01
         -1   -1    0    0    0  501 -0.00000000000E+00  0.00000000000E+00  0.45426138039E+02  0.45426138319E+02  0.50400000000E-02 0. -1.
          1   -1    0    0  501    0  0.00000000000E+00 -0.00000000000E+00 -0.19375286724E+04  0.19375286724E+04  0.50400000000E-02 0.  1.
    5000001    1    1    2    0    0 -0.22403634507E+03 -0.18477994109E+02 -0.10290462105E+04  0.10706698013E+04  0.19200000000E+03 0.  0.
   -5000001    1    1    2    0    0  0.22403634507E+03  0.18477994109E+02 -0.86305632391E+03  0.91228500942E+03  0.19200000000E+03 0.  0.
<mgrwt>
<rscale>  0 0.59334457E+03</rscale>
<asrwt>0</asrwt>
<pdfrwt beam="1">  1        1 0.27678976E+00 0.59334457E+03</pdfrwt>
<pdfrwt beam="2">  1       -1 0.64894495E-02 0.59334457E+03</pdfrwt>
<totfact> 0.52436238E+02</totfact>
</mgrwt>
</event>
<event>
 4    1  0.7145298E-006  0.1544357E+04  0.7818608E-02  0.8855480E-01
          1   -1    0    0  501    0  0.00000000000E+00  0.00000000000E+00  0.16462952745E+04  0.16462952745E+04  0.50400000000E-02 0.  1.
         -1   -1    0    0    0  501 -0.00000000000E+00 -0.00000000000E+00 -0.36218283132E+03  0.36218283136E+03  0.50400000000E-02 0. -1.
    5000001    1    1    2    0    0  0.72481977048E+03  0.10747488630E+03  0.44705813991E+03  0.87956780940E+03  0.19200000000E+03 0.  0.
   -5000001    1    1    2    0    0 -0.72481977048E+03 -0.10747488630E+03  0.83705430328E+03  0.11289102965E+04  0.19200000000E+03 0.  0.
<mgrwt>
<rscale>  0 0.15443573E+04</rscale>
<asrwt>0</asrwt>
<pdfrwt beam="1">  1        1 0.23518504E+00 0.15443573E+04</pdfrwt>
<pdfrwt beam="2">  1       -1 0.51740405E-01 0.15443573E+04</pdfrwt>
<totfact> 0.22687461E+01</totfact>
</mgrwt>
</event>
<event>
 4    1  0.7145298E-006  0.4910286E+03  0.7818608E-02  0.1016147E+00
          1   -1    0    0  501    0  0.00000000000E+00  0.00000000000E+00  0.48260299247E+03  0.48260299249E+03  0.50400000000E-02 0.  1.
         -1   -1    0    0    0  501 -0.00000000000E+00 -0.00000000000E+00 -0.12490034231E+03  0.12490034241E+03  0.50400000000E-02 0. -1.
    5000001    1    1    2    0    0 -0.14483874131E+03  0.36443032910E+02  0.13768893081E+03  0.27951493216E+03  0.19200000000E+03 0.  0.
   -5000001    1    1    2    0    0  0.14483874131E+03 -0.36443032910E+02  0.22001371935E+03  0.32798840274E+03  0.19200000000E+03 0.  0.
<mgrwt>
<rscale>  0 0.49102863E+03</rscale>
<asrwt>0</asrwt>
<pdfrwt beam="1">  1        1 0.68943284E-01 0.49102863E+03</pdfrwt>
<pdfrwt beam="2">  1       -1 0.17842906E-01 0.49102863E+03</pdfrwt>
<totfact> 0.12736341E+03</totfact>
</mgrwt>
</event>
<event>
 4    1  0.7145298E-006  0.5439267E+03  0.7818608E-02  0.1002909E+00
         -1   -1    0    0    0  501 -0.00000000000E+00  0.00000000000E+00  0.75171999035E+03  0.75171999037E+03  0.50400000000E-02 0. -1.
          1   -1    0    0  501    0  0.00000000000E+00 -0.00000000000E+00 -0.98393122197E+02  0.98393122326E+02  0.50400000000E-02 0.  1.
    5000001    1    1    2    0    0  0.59298840573E+02  0.17470666914E+03  0.24018863893E+03  0.35859915645E+03  0.19200000000E+03 0.  0.
   -5000001    1    1    2    0    0 -0.59298840573E+02 -0.17470666914E+03  0.41313822923E+03  0.49151395625E+03  0.19200000000E+03 0.  0.
<mgrwt>
<rscale>  0 0.54392675E+03</rscale>
<asrwt>0</asrwt>
<pdfrwt beam="1">  1        1 0.14056161E-01 0.54392675E+03</pdfrwt>
<pdfrwt beam="2">  1       -1 0.10738857E+00 0.54392675E+03</pdfrwt>
<totfact> 0.34597850E+02</totfact>
</mgrwt>
</event>
<event>
 4    1  0.7145298E-006  0.5689284E+03  0.7818608E-02  0.9972053E-01
         -1   -1    0    0    0  501 -0.00000000000E+00  0.00000000000E+00  0.20771761315E+03  0.20771761321E+03  0.50400000000E-02 0. -1.
          1   -1    0    0  501    0  0.00000000000E+00 -0.00000000000E+00 -0.38956679762E+03  0.38956679765E+03  0.50400000000E-02 0.  1.
    5000001    1    1    2    0    0 -0.16262908701E+03  0.12340308153E+03 -0.39714889294E+02  0.28305090161E+03  0.19200000000E+03 0.  0.
   -5000001    1    1    2    0    0  0.16262908701E+03 -0.12340308153E+03 -0.14213429517E+03  0.31423350925E+03  0.19200000000E+03 0.  0.
<mgrwt>
<rscale>  0 0.56892842E+03</rscale>
<asrwt>0</asrwt>
<pdfrwt beam="1">  1        1 0.55652399E-01 0.56892842E+03</pdfrwt>
<pdfrwt beam="2">  1       -1 0.29673945E-01 0.56892842E+03</pdfrwt>
<totfact> 0.71784753E+02</totfact>
</mgrwt>
</event>
<event>
 4    1  0.7145298E-006  0.6557688E+03  0.7818608E-02  0.9796014E-01
         -1   -1    0    0    0  501 -0.00000000000E+00  0.00000000000E+00  0.33760051010E+03  0.33760051014E+03  0.50400000000E-02 0.  1.
          1   -1    0    0  501    0  0.00000000000E+00 -0.00000000000E+00 -0.31844794198E+03  0.31844794202E+03  0.50400000000E-02 0. -1.
    5000001    1    1    2    0    0  0.24430437093E+03  0.14934570626E+02 -0.94085082651E+02  0.32499795358E+03  0.19200000000E+03 0.  0.
   -5000001    1    1    2    0    0 -0.24430437093E+03 -0.14934570626E+02  0.11323765077E+03  0.33105049857E+03  0.19200000000E+03 0.  0.
<mgrwt>
<rscale>  0 0.65576882E+03</rscale>
<asrwt>0</asrwt>
<pdfrwt beam="1">  1        1 0.45492563E-01 0.65576882E+03</pdfrwt>
<pdfrwt beam="2">  1       -1 0.48228645E-01 0.65576882E+03</pdfrwt>
<totfact> 0.38851125E+02</totfact>
</mgrwt>
</event>
<event>
 4    1  0.7145298E-006  0.6681589E+03  0.7818608E-02  0.9773290E-01
         -1   -1    0    0    0  501 -0.00000000000E+00  0.00000000000E+00  0.27123220541E+03  0.27123220546E+03  0.50400000000E-02 0. -1.
          1   -1    0    0  501    0  0.00000000000E+00 -0.00000000000E+00 -0.41148903295E+03  0.41148903298E+03  0.50400000000E-02 0.  1.
    5000001    1    1    2    0    0 -0.76085088517E+02  0.26248965887E+03 -0.77727999852E+02  0.34292186233E+03  0.19200000000E+03 0.  0.
   -5000001    1    1    2    0    0  0.76085088517E+02 -0.26248965887E+03 -0.62528827685E+02  0.33979937610E+03  0.19200000000E+03 0.  0.
<mgrwt>
<rscale>  0 0.66815890E+03</rscale>
<asrwt>0</asrwt>
<pdfrwt beam="1">  1        1 0.58784148E-01 0.66815890E+03</pdfrwt>
<pdfrwt beam="2">  1       -1 0.38747458E-01 0.66815890E+03</pdfrwt>
<totfact> 0.41606509E+02</totfact>
</mgrwt>
</event>
<event>
 4    1  0.7145298E-006  0.5175908E+03  0.7818608E-02  0.1009287E+00
          1   -1    0    0  501    0  0.00000000000E+00  0.00000000000E+00  0.32989114984E+03  0.32989114988E+03  0.50400000000E-02 0.  1.
         -1   -1    0    0    0  501 -0.00000000000E+00 -0.00000000000E+00 -0.20302165763E+03  0.20302165769E+03  0.50400000000E-02 0. -1.
    5000001    1    1    2    0    0  0.11981720726E+03 -0.51584103205E+01 -0.65690214614E+02  0.23571588120E+03  0.19200000000E+03 0.  0.
   -5000001    1    1    2    0    0 -0.11981720726E+03  0.51584103205E+01  0.19255970683E+03  0.29719692637E+03  0.19200000000E+03 0.  0.
<mgrwt>
<rscale>  0 0.51759076E+03</rscale>
<asrwt>0</asrwt>
<pdfrwt beam="1">  1        1 0.47127307E-01 0.51759076E+03</pdfrwt>
<pdfrwt beam="2">  1       -1 0.29003094E-01 0.51759076E+03</pdfrwt>
<totfact> 0.92656272E+02</totfact>
</mgrwt>
</event>
<event>
 4    1  0.7145298E-006  0.4456376E+03  0.7818608E-02  0.1029031E+00
         -1   -1    0    0    0  501 -0.00000000000E+00  0.00000000000E+00  0.15184994346E+03  0.15184994355E+03  0.50400000000E-02 0. -1.
          1   -1    0    0  501    0  0.00000000000E+00 -0.00000000000E+00 -0.32695576570E+03  0.32695576573E+03  0.50400000000E-02 0.  1.
    5000001    1    1    2    0    0  0.99430639938E+02  0.36704691911E+02 -0.45245415957E+02  0.22393042275E+03  0.19200000000E+03 0.  0.
   -5000001    1    1    2    0    0 -0.99430639938E+02 -0.36704691911E+02 -0.12986040628E+03  0.25487528653E+03  0.19200000000E+03 0.  0.
<mgrwt>
<rscale>  0 0.44563759E+03</rscale>
<asrwt>0</asrwt>
<pdfrwt beam="1">  1        1 0.46707966E-01 0.44563759E+03</pdfrwt>
<pdfrwt beam="2">  1       -1 0.21692849E-01 0.44563759E+03</pdfrwt>
<totfact> 0.15308511E+03</totfact>
</mgrwt>
</event>
<event>
 4    1  0.7145298E-006  0.7487325E+03  0.7818608E-02  0.9637341E-01
         -1   -1    0    0    0  501 -0.00000000000E+00  0.00000000000E+00  0.28311757976E+03  0.28311757980E+03  0.50400000000E-02 0. -1.
          1   -1    0    0  501    0  0.00000000000E+00 -0.00000000000E+00 -0.49502438907E+03  0.49502438909E+03  0.50400000000E-02 0.  1.
    5000001    1    1    2    0    0 -0.50113606005E+02 -0.28148903091E+03 -0.25847855328E+03  0.43060725787E+03  0.19200000000E+03 0.  0.
   -5000001    1    1    2    0    0  0.50113606005E+02  0.28148903091E+03  0.46571743966E+02  0.34753471102E+03  0.19200000000E+03 0.  0.
<mgrwt>
<rscale>  0 0.74873255E+03</rscale>
<asrwt>0</asrwt>
<pdfrwt beam="1">  1        1 0.70717770E-01 0.74873255E+03</pdfrwt>
<pdfrwt beam="2">  1       -1 0.40445369E-01 0.74873255E+03</pdfrwt>
<totfact> 0.30005712E+02</totfact>
</mgrwt>
</event>
<event>
 4    1  0.7145298E-006  0.4607596E+03  0.7818608E-02  0.1024561E+00
          1   -1    0    0  501    0  0.00000000000E+00  0.00000000000E+00  0.43724749978E+02  0.43724750268E+02  0.50400000000E-02 0.  1.
         -1   -1    0    0    0  501 -0.00000000000E+00 -0.00000000000E+00 -0.12138399448E+04  0.12138399448E+04  0.50400000000E-02 0. -1.
    5000001    1    1    2    0    0  0.97815715481E+01 -0.12480194767E+03 -0.52165468085E+03  0.56978839172E+03  0.19200000000E+03 0.  0.
   -5000001    1    1    2    0    0 -0.97815715481E+01  0.12480194767E+03 -0.64846051398E+03  0.68777630337E+03  0.19200000000E+03 0.  0.
<mgrwt>
<rscale>  0 0.46075958E+03</rscale>
<asrwt>0</asrwt>
<pdfrwt beam="1">  1        1 0.62463936E-02 0.46075958E+03</pdfrwt>
<pdfrwt beam="2">  1       -1 0.17340569E+00 0.46075958E+03</pdfrwt>
<totfact> 0.30924749E+02</totfact>
</mgrwt>
</event>
<event>
 4    1  0.7145298E-006  0.5809055E+03  0.7818608E-02  0.9945833E-01
         -1   -1    0    0    0  501 -0.00000000000E+00  0.00000000000E+00  0.10253372886E+04  0.10253372886E+04  0.50400000000E-02 0. -1.
          1   -1    0    0  501    0  0.00000000000E+00 -0.00000000000E+00 -0.82278085455E+02  0.82278085610E+02  0.50400000000E-02 0.  1.
    5000001    1    1    2    0    0 -0.48026176101E+01 -0.21485222311E+03  0.40240671192E+03  0.49495424507E+03  0.19200000000E+03 0.  0.
   -5000001    1    1    2    0    0  0.48026176101E+01  0.21485222311E+03  0.54065249122E+03  0.61266112916E+03  0.19200000000E+03 0.  0.
<mgrwt>
<rscale>  0 0.58090546E+03</rscale>
<asrwt>0</asrwt>
<pdfrwt beam="1">  1        1 0.11754012E-01 0.58090546E+03</pdfrwt>
<pdfrwt beam="2">  1       -1 0.14647675E+00 0.58090546E+03</pdfrwt>
<totfact> 0.20438164E+02</totfact>
</mgrwt>
</event>
<event>
 4    1  0.7145298E-006  0.4244282E+03  0.7818608E-02  0.1035635E+00
         -1   -1    0    0    0  501 -0.00000000000E+00  0.00000000000E+00  0.24782044264E+02  0.24782044777E+02  0.50400000000E-02 0. -1.
          1   -1    0    0  501    0  0.00000000000E+00 -0.00000000000E+00 -0.18172356204E+04  0.18172356204E+04  0.50400000000E-02 0.  1.
    5000001    1    1    2    0    0 -0.43757112593E+02  0.71516679887E+02 -0.74959559788E+03  0.77832312106E+03  0.19200000000E+03 0.  0.
   -5000001    1    1    2    0    0  0.43757112593E+02 -0.71516679887E+02 -0.10428579783E+04  0.10636945442E+04  0.19200000000E+03 0.  0.
<mgrwt>
<rscale>  0 0.42442815E+03</rscale>
<asrwt>0</asrwt>
<pdfrwt beam="1">  1        1 0.25960500E+00 0.42442815E+03</pdfrwt>
<pdfrwt beam="2">  1       -1 0.35402932E-02 0.42442815E+03</pdfrwt>
<totfact> 0.15796263E+03</totfact>
</mgrwt>
</event>
<event>
 4    1  0.7145298E-006  0.5857451E+03  0.7818608E-02  0.9935430E-01
         -1   -1    0    0    0  501 -0.00000000000E+00  0.00000000000E+00  0.26010624976E+03  0.26010624981E+03  0.50400000000E-02 0. -1.
          1   -1    0    0  501    0  0.00000000000E+00 -0.00000000000E+00 -0.32976655593E+03  0.32976655597E+03  0.50400000000E-02 0.  1.
    5000001    1    1    2    0    0  0.17541615171E+03  0.78713130162E+02 -0.14488779357E+03  0.30793352508E+03  0.19200000000E+03 0.  0.
   -5000001    1    1    2    0    0 -0.17541615171E+03 -0.78713130162E+02  0.75227487401E+02  0.28193928070E+03  0.19200000000E+03 0.  0.
<mgrwt>
<rscale>  0 0.58574514E+03</rscale>
<asrwt>0</asrwt>
<pdfrwt beam="1">  1        1 0.47109508E-01 0.58574514E+03</pdfrwt>
<pdfrwt beam="2">  1       -1 0.37158036E-01 0.58574514E+03</pdfrwt>
<totfact> 0.59968274E+02</totfact>
</mgrwt>
</event>
<event>
 4    1  0.7145298E-006  0.5557250E+03  0.7818608E-02  0.1000177E+00
          1   -1    0    0  501    0  0.00000000000E+00  0.00000000000E+00  0.10528805431E+04  0.10528805432E+04  0.50400000000E-02 0.  1.
         -1   -1    0    0    0  501 -0.00000000000E+00 -0.00000000000E+00 -0.73329838209E+02  0.73329838383E+02  0.50400000000E-02 0. -1.
    5000001    1    1    2    0    0  0.14365368999E+03  0.11072451806E+03  0.66466247395E+03  0.71521780307E+03  0.19200000000E+03 0.  0.
   -5000001    1    1    2    0    0 -0.14365368999E+03 -0.11072451806E+03  0.31488823099E+03  0.41099257848E+03  0.19200000000E+03 0.  0.
<mgrwt>
<rscale>  0 0.55572497E+03</rscale>
<asrwt>0</asrwt>
<pdfrwt beam="1">  1        1 0.15041150E+00 0.55572497E+03</pdfrwt>
<pdfrwt beam="2">  1       -1 0.10475692E-01 0.55572497E+03</pdfrwt>
<totfact> 0.93520976E+02</totfact>
</mgrwt>
</event>
<event>
 4    1  0.7145298E-006  0.6408799E+03  0.7818608E-02  0.9824045E-01
          1   -1    0    0  501    0  0.00000000000E+00  0.00000000000E+00  0.62552992233E+03  0.62552992235E+03  0.50400000000E-02 0.  1.
         -1   -1    0    0    0  501 -0.00000000000E+00 -0.00000000000E+00 -0.16415163085E+03  0.16415163093E+03  0.50400000000E-02 0. -1.
    5000001    1    1    2    0    0  0.22493797291E+03  0.67833343989E+02  0.10371264554E+03  0.32065365592E+03  0.19200000000E+03 0.  0.
   -5000001    1    1    2    0    0 -0.22493797291E+03 -0.67833343989E+02  0.35766564594E+03  0.46902789736E+03  0.19200000000E+03 0.  0.
<mgrwt>
<rscale>  0 0.64087989E+03</rscale>
<asrwt>0</asrwt>
<pdfrwt beam="1">  1        1 0.89361416E-01 0.64087989E+03</pdfrwt>
<pdfrwt beam="2">  1       -1 0.23450233E-01 0.64087989E+03</pdfrwt>
<totfact> 0.56545554E+02</totfact>
</mgrwt>
</event>
<event>
 4    1  0.7145298E-006  0.5929484E+03  0.7818608E-02  0.9920145E-01
          1   -1    0    0  501    0  0.00000000000E+00  0.00000000000E+00  0.15211593632E+04  0.15211593632E+04  0.50400000000E-02 0.  1.
         -1   -1    0    0    0  501 -0.00000000000E+00 -0.00000000000E+00 -0.57782871145E+02  0.57782871365E+02  0.50400000000E-02 0. -1.
    5000001    1    1    2    0    0  0.94087795167E+02 -0.14977368545E+03  0.11058970742E+04  0.11362908997E+04  0.19200000000E+03 0.  0.
   -5000001    1    1    2    0    0 -0.94087795167E+02  0.14977368545E+03  0.35747941780E+03  0.44265133480E+03  0.19200000000E+03 0.  0.
<mgrwt>
<rscale>  0 0.59294841E+03</rscale>
<asrwt>0</asrwt>
<pdfrwt beam="1">  1        1 0.21730847E+00 0.59294841E+03</pdfrwt>
<pdfrwt beam="2">  1       -1 0.82546964E-02 0.59294841E+03</pdfrwt>
<totfact> 0.65784469E+02</totfact>
</mgrwt>
</event>
<event>
 4    1  0.7145298E-006  0.7423008E+03  0.7818608E-02  0.9647507E-01
         -1   -1    0    0    0  501 -0.00000000000E+00  0.00000000000E+00  0.83575755258E+03  0.83575755259E+03  0.50400000000E-02 0. -1.
          1   -1    0    0  501    0  0.00000000000E+00 -0.00000000000E+00 -0.16482367215E+03  0.16482367222E+03  0.50400000000E-02 0.  1.
    5000001    1    1    2    0    0 -0.13602393321E+02 -0.17496313114E+03  0.69233288285E+03  0.73958498027E+03  0.19200000000E+03 0.  0.
   -5000001    1    1    2    0    0  0.13602393321E+02  0.17496313114E+03 -0.21399002424E+02  0.26099624454E+03  0.19200000000E+03 0.  0.
<mgrwt>
<rscale>  0 0.74230083E+03</rscale>
<asrwt>0</asrwt>
<pdfrwt beam="1">  1        1 0.23546239E-01 0.74230083E+03</pdfrwt>
<pdfrwt beam="2">  1       -1 0.11939393E+00 0.74230083E+03</pdfrwt>
<totfact> 0.13439366E+02</totfact>
</mgrwt>
</event>
<event>
 4    1  0.7145298E-006  0.1112804E+04  0.7818608E-02  0.9192802E-01
         -1   -1    0    0    0  501 -0.00000000000E+00  0.00000000000E+00  0.18657930985E+03  0.18657930991E+03  0.50400000000E-02 0. -1.
          1   -1    0    0  501    0  0.00000000000E+00 -0.00000000000E+00 -0.16592566416E+04  0.16592566416E+04  0.50400000000E-02 0.  1.
    5000001    1    1    2    0    0  0.53447955963E+02  0.50423098428E+03 -0.52907499781E+03  0.75755522757E+03  0.19200000000E+03 0.  0.
   -5000001    1    1    2    0    0 -0.53447955963E+02 -0.50423098428E+03 -0.94360233392E+03  0.10882807239E+04  0.19200000000E+03 0.  0.
<mgrwt>
<rscale>  0 0.11128036E+04</rscale>
<asrwt>0</asrwt>
<pdfrwt beam="1">  1        1 0.23703666E+00 0.11128036E+04</pdfrwt>
<pdfrwt beam="2">  1       -1 0.26654188E-01 0.11128036E+04</pdfrwt>
<totfact> 0.76526032E+01</totfact>
</mgrwt>
</event>
<event>
 4    1  0.7145298E-006  0.8406023E+03  0.7818608E-02  0.9503038E-01
          1   -1    0    0  501    0  0.00000000000E+00  0.00000000000E+00  0.18191521619E+04  0.18191521619E+04  0.50400000000E-02 0.  1.
         -1   -1    0    0    0  501 -0.00000000000E+00 -0.00000000000E+00 -0.97107359755E+02  0.97107359886E+02  0.50400000000E-02 0. -1.
    5000001    1    1    2    0    0  0.21337131290E+03  0.17574643160E+03  0.28714051390E+03  0.44241134718E+03  0.19200000000E+03 0.  0.
   -5000001    1    1    2    0    0 -0.21337131290E+03 -0.17574643160E+03  0.14349042883E+04  0.14738481746E+04  0.19200000000E+03 0.  0.
<mgrwt>
<rscale>  0 0.84060232E+03</rscale>
<asrwt>0</asrwt>
<pdfrwt beam="1">  1        1 0.25987886E+00 0.84060232E+03</pdfrwt>
<pdfrwt beam="2">  1       -1 0.13872481E-01 0.84060232E+03</pdfrwt>
<totfact> 0.18387266E+02</totfact>
</mgrwt>
</event>
<event>
 4    1  0.7145298E-006  0.8978837E+03  0.7818608E-02  0.9428231E-01
         -1   -1    0    0    0  501 -0.00000000000E+00  0.00000000000E+00  0.29447725024E+03  0.29447725029E+03  0.50400000000E-02 0. -1.
          1   -1    0    0  501    0  0.00000000000E+00 -0.00000000000E+00 -0.68442902639E+03  0.68442902641E+03  0.50400000000E-02 0.  1.
    5000001    1    1    2    0    0  0.11873181314E+02 -0.40377404361E+03 -0.15260607739E+03  0.47257493118E+03  0.19200000000E+03 0.  0.
   -5000001    1    1    2    0    0 -0.11873181314E+02  0.40377404361E+03 -0.23734569876E+03  0.50633134551E+03  0.19200000000E+03 0.  0.
<mgrwt>
<rscale>  0 0.89788368E+03</rscale>
<asrwt>0</asrwt>
<pdfrwt beam="1">  1        1 0.97775575E-01 0.89788368E+03</pdfrwt>
<pdfrwt beam="2">  1       -1 0.42068179E-01 0.89788368E+03</pdfrwt>
<totfact> 0.17592223E+02</totfact>
</mgrwt>
</event>
<event>
 4    1  0.7145298E-006  0.4778133E+03  0.7818608E-02  0.1019738E+00
          1   -1    0    0  501    0  0.00000000000E+00  0.00000000000E+00  0.11917611126E+03  0.11917611137E+03  0.50400000000E-02 0.  1.
         -1   -1    0    0    0  501 -0.00000000000E+00 -0.00000000000E+00 -0.47892471796E+03  0.47892471798E+03  0.50400000000E-02 0. -1.
    5000001    1    1    2    0    0 -0.10862872017E+03  0.16019136622E+01 -0.29466438839E+03  0.36809491542E+03  0.19200000000E+03 0.  0.
   -5000001    1    1    2    0    0  0.10862872017E+03 -0.16019136622E+01 -0.65084218307E+02  0.23000591394E+03  0.19200000000E+03 0.  0.
<mgrwt>
<rscale>  0 0.47781329E+03</rscale>
<asrwt>0</asrwt>
<pdfrwt beam="1">  1        1 0.17025159E-01 0.47781329E+03</pdfrwt>
<pdfrwt beam="2">  1       -1 0.68417816E-01 0.47781329E+03</pdfrwt>
<totfact> 0.70915562E+02</totfact>
</mgrwt>
</event>
<event>
 4    1  0.7145298E-006  0.7634276E+03  0.7818608E-02  0.9614517E-01
         -1   -1    0    0    0  501 -0.00000000000E+00  0.00000000000E+00  0.35968094333E+03  0.35968094336E+03  0.50400000000E-02 0. -1.
          1   -1    0    0  501    0  0.00000000000E+00 -0.00000000000E+00 -0.40509636491E+03  0.40509636495E+03  0.50400000000E-02 0.  1.
    5000001    1    1    2    0    0  0.11693224425E+03  0.28770950966E+03  0.88806340595E+02  0.37576652036E+03  0.19200000000E+03 0.  0.
   -5000001    1    1    2    0    0 -0.11693224425E+03 -0.28770950966E+03 -0.13422176218E+03  0.38901078795E+03  0.19200000000E+03 0.  0.
<mgrwt>
<rscale>  0 0.76342765E+03</rscale>
<asrwt>0</asrwt>
<pdfrwt beam="1">  1        1 0.57870909E-01 0.76342765E+03</pdfrwt>
<pdfrwt beam="2">  1       -1 0.51382992E-01 0.76342765E+03</pdfrwt>
<totfact> 0.25088047E+02</totfact>
</mgrwt>
</event>
<event>
 4    1  0.7145298E-006  0.6631261E+03  0.7818608E-02  0.9782456E-01
         -1   -1    0    0    0  501 -0.00000000000E+00  0.00000000000E+00  0.97121908016E+02  0.97121908147E+02  0.50400000000E-02 0. -1.
          1   -1    0    0  501    0  0.00000000000E+00 -0.00000000000E+00 -0.11319181920E+04  0.11319181920E+04  0.50400000000E-02 0.  1.
    5000001    1    1    2    0    0 -0.17042955398E+03 -0.20981836232E+03 -0.51791101382E+03  0.61495186501E+03  0.19200000000E+03 0.  0.
   -5000001    1    1    2    0    0  0.17042955398E+03  0.20981836232E+03 -0.51688527012E+03  0.61408823511E+03  0.19200000000E+03 0.  0.
<mgrwt>
<rscale>  0 0.66312610E+03</rscale>
<asrwt>0</asrwt>
<pdfrwt beam="1">  1        1 0.16170259E+00 0.66312610E+03</pdfrwt>
<pdfrwt beam="2">  1       -1 0.13874559E-01 0.66312610E+03</pdfrwt>
<totfact> 0.52257484E+02</totfact>
</mgrwt>
</event>
<event>
 4    1  0.7145298E-006  0.5303738E+03  0.7818608E-02  0.1006142E+00
          1   -1    0    0  501    0  0.00000000000E+00  0.00000000000E+00  0.62448050469E+03  0.62448050471E+03  0.50400000000E-02 0.  1.
         -1   -1    0    0    0  501 -0.00000000000E+00 -0.00000000000E+00 -0.11261213292E+03  0.11261213303E+03  0.50400000000E-02 0. -1.
    5000001    1    1    2    0    0 -0.14287499805E+03  0.92851259137E+01  0.41415100435E+03  0.47841878416E+03  0.19200000000E+03 0.  0.
   -5000001    1    1    2    0    0  0.14287499805E+03 -0.92851259137E+01  0.97717367425E+02  0.25867385358E+03  0.19200000000E+03 0.  0.
<mgrwt>
<rscale>  0 0.53037376E+03</rscale>
<asrwt>0</asrwt>
<pdfrwt beam="1">  1        1 0.89211498E-01 0.53037376E+03</pdfrwt>
<pdfrwt beam="2">  1       -1 0.16087448E-01 0.53037376E+03</pdfrwt>
<totfact> 0.10598144E+03</totfact>
</mgrwt>
</event>
<event>
 4    1  0.7145298E-006  0.4647245E+03  0.7818608E-02  0.1023420E+00
          1   -1    0    0  501    0  0.00000000000E+00  0.00000000000E+00  0.11618767422E+04  0.11618767422E+04  0.50400000000E-02 0.  1.
         -1   -1    0    0    0  501 -0.00000000000E+00 -0.00000000000E+00 -0.46469828333E+02  0.46469828606E+02  0.50400000000E-02 0. -1.
    5000001    1    1    2    0    0  0.12983720501E+03  0.12611737058E+02  0.53025297138E+03  0.57883414669E+03  0.19200000000E+03 0.  0.
   -5000001    1    1    2    0    0 -0.12983720501E+03 -0.12611737058E+02  0.58515394244E+03  0.62951242408E+03  0.19200000000E+03 0.  0.
<mgrwt>
<rscale>  0 0.46472449E+03</rscale>
<asrwt>0</asrwt>
<pdfrwt beam="1">  1        1 0.16598236E+00 0.46472449E+03</pdfrwt>
<pdfrwt beam="2">  1       -1 0.66385482E-02 0.46472449E+03</pdfrwt>
<totfact> 0.15986608E+03</totfact>
</mgrwt>
</event>
<event>
 4    1  0.7145298E-006  0.5090568E+03  0.7818608E-02  0.1011442E+00
         -1   -1    0    0    0  501 -0.00000000000E+00  0.00000000000E+00  0.14008313493E+03  0.14008313502E+03  0.50400000000E-02 0.  1.
          1   -1    0    0  501    0  0.00000000000E+00 -0.00000000000E+00 -0.46247319735E+03  0.46247319738E+03  0.50400000000E-02 0. -1.
    5000001    1    1    2    0    0 -0.13737766899E+02  0.15996252617E+03 -0.10638756565E+03  0.27195413242E+03  0.19200000000E+03 0.  0.
   -5000001    1    1    2    0    0  0.13737766899E+02 -0.15996252617E+03 -0.21600249678E+03  0.33060219998E+03  0.19200000000E+03 0.  0.
<mgrwt>
<rscale>  0 0.50905676E+03</rscale>
<asrwt>0</asrwt>
<pdfrwt beam="1">  1        1 0.66067599E-01 0.50905676E+03</pdfrwt>
<pdfrwt beam="2">  1       -1 0.20011877E-01 0.50905676E+03</pdfrwt>
<totfact> 0.11160326E+03</totfact>
</mgrwt>
</event>
<event>
 4    1  0.7145298E-006  0.4585545E+03  0.7818608E-02  0.1025201E+00
         -1   -1    0    0    0  501 -0.00000000000E+00  0.00000000000E+00  0.38896311485E+02  0.38896311812E+02  0.50400000000E-02 0. -1.
          1   -1    0    0  501    0  0.00000000000E+00 -0.00000000000E+00 -0.13514923183E+04  0.13514923183E+04  0.50400000000E-02 0.  1.
    5000001    1    1    2    0    0  0.18828834192E+02 -0.10021357840E+03 -0.43541578397E+03  0.48667051608E+03  0.19200000000E+03 0.  0.
   -5000001    1    1    2    0    0 -0.18828834192E+02  0.10021357840E+03 -0.87718022283E+03  0.90371811402E+03  0.19200000000E+03 0.  0.
<mgrwt>
<rscale>  0 0.45855454E+03</rscale>
<asrwt>0</asrwt>
<pdfrwt beam="1">  1        1 0.19307030E+00 0.45855454E+03</pdfrwt>
<pdfrwt beam="2">  1       -1 0.55566168E-02 0.45855454E+03</pdfrwt>
<totfact> 0.15678608E+03</totfact>
</mgrwt>
</event>
<event>
 4    1  0.7145298E-006  0.5371977E+03  0.7818608E-02  0.1004501E+00
         -1   -1    0    0    0  501 -0.00000000000E+00  0.00000000000E+00  0.53007368056E+02  0.53007368296E+02  0.50400000000E-02 0. -1.
          1   -1    0    0  501    0  0.00000000000E+00 -0.00000000000E+00 -0.13610434344E+04  0.13610434344E+04  0.50400000000E-02 0.  1.
    5000001    1    1    2    0    0  0.27886833397E+02  0.17397023496E+03 -0.48265702414E+03  0.54851173285E+03  0.19200000000E+03 0.  0.
   -5000001    1    1    2    0    0 -0.27886833397E+02 -0.17397023496E+03 -0.82537904221E+03  0.86553906986E+03  0.19200000000E+03 0.  0.
<mgrwt>
<rscale>  0 0.53719766E+03</rscale>
<asrwt>0</asrwt>
<pdfrwt beam="1">  1        1 0.19443475E+00 0.53719766E+03</pdfrwt>
<pdfrwt beam="2">  1       -1 0.75724820E-02 0.53719766E+03</pdfrwt>
<totfact> 0.95739291E+02</totfact>
</mgrwt>
</event>
<event>
 4    1  0.7145298E-006  0.8057487E+03  0.7818608E-02  0.9551733E-01
          1   -1    0    0  501    0  0.00000000000E+00  0.00000000000E+00  0.14251767642E+04  0.14251767642E+04  0.50400000000E-02 0.  1.
         -1   -1    0    0    0  501 -0.00000000000E+00 -0.00000000000E+00 -0.11388603315E+03  0.11388603326E+03  0.50400000000E-02 0. -1.
    5000001    1    1    2    0    0  0.16197854271E+03 -0.30244232583E+03  0.48765055163E+03  0.62639881007E+03  0.19200000000E+03 0.  0.
   -5000001    1    1    2    0    0 -0.16197854271E+03  0.30244232583E+03  0.82364017946E+03  0.91266398744E+03  0.19200000000E+03 0.  0.
<mgrwt>
<rscale>  0 0.80574867E+03</rscale>
<asrwt>0</asrwt>
<pdfrwt beam="1">  1        1 0.20359667E+00 0.80574867E+03</pdfrwt>
<pdfrwt beam="2">  1       -1 0.16269434E-01 0.80574867E+03</pdfrwt>
<totfact> 0.25363021E+02</totfact>
</mgrwt>
</event>
<event>
 4    1  0.7145298E-006  0.5263046E+03  0.7818608E-02  0.1007132E+00
          1   -1    0    0  501    0  0.00000000000E+00  0.00000000000E+00  0.29447614649E+04  0.29447614649E+04  0.50400000000E-02 0.  1.
         -1   -1    0    0    0  501 -0.00000000000E+00 -0.00000000000E+00 -0.23516042195E+02  0.23516042735E+02  0.50400000000E-02 0. -1.
    5000001    1    1    2    0    0 -0.75087457133E+02  0.84946744005E+02  0.67243395453E+03  0.70843877557E+03  0.19200000000E+03 0.  0.
   -5000001    1    1    2    0    0  0.75087457133E+02 -0.84946744005E+02  0.22488114682E+04  0.22598387321E+04  0.19200000000E+03 0.  0.
<mgrwt>
<rscale>  0 0.52630461E+03</rscale>
<asrwt>0</asrwt>
<pdfrwt beam="1">  1        1 0.42067992E+00 0.52630461E+03</pdfrwt>
<pdfrwt beam="2">  1       -1 0.33594370E-02 0.52630461E+03</pdfrwt>
<totfact> 0.33880464E+02</totfact>
</mgrwt>
</event>
<event>
 4    1  0.7145298E-006  0.4130304E+03  0.7818608E-02  0.1039359E+00
         -1   -1    0    0    0  501 -0.00000000000E+00  0.00000000000E+00  0.32677342207E+03  0.32677342211E+03  0.50400000000E-02 0.  1.
          1   -1    0    0  501    0  0.00000000000E+00 -0.00000000000E+00 -0.13051407145E+03  0.13051407155E+03  0.50400000000E-02 0. -1.
    5000001    1    1    2    0    0  0.32599508146E+02 -0.68402135148E+02  0.90873835498E+02  0.22552967433E+03  0.19200000000E+03 0.  0.
   -5000001    1    1    2    0    0 -0.32599508146E+02  0.68402135148E+02  0.10538551512E+03  0.23175781933E+03  0.19200000000E+03 0.  0.
<mgrwt>
<rscale>  0 0.41303041E+03</rscale>
<asrwt>0</asrwt>
<pdfrwt beam="1">  1        1 0.18644867E-01 0.41303041E+03</pdfrwt>
<pdfrwt beam="2">  1       -1 0.46681917E-01 0.41303041E+03</pdfrwt>
<totfact> 0.13126380E+03</totfact>
</mgrwt>
</event>
<event>
 4    1  0.7145298E-006  0.5328511E+03  0.7818608E-02  0.1005543E+00
          1   -1    0    0  501    0  0.00000000000E+00  0.00000000000E+00  0.40731291255E+03  0.40731291259E+03  0.50400000000E-02 0.  1.
         -1   -1    0    0    0  501 -0.00000000000E+00 -0.00000000000E+00 -0.17427039961E+03  0.17427039969E+03  0.50400000000E-02 0. -1.
    5000001    1    1    2    0    0 -0.17776240019E+03  0.32976731111E+02  0.15781879976E+03  0.30733972941E+03  0.19200000000E+03 0.  0.
   -5000001    1    1    2    0    0  0.17776240019E+03 -0.32976731111E+02  0.75223713178E+02  0.27424358286E+03  0.19200000000E+03 0.  0.
<mgrwt>
<rscale>  0 0.53285114E+03</rscale>
<asrwt>0</asrwt>
<pdfrwt beam="1">  1        1 0.58187559E-01 0.53285114E+03</pdfrwt>
<pdfrwt beam="2">  1       -1 0.24895771E-01 0.53285114E+03</pdfrwt>
<totfact> 0.91513268E+02</totfact>
</mgrwt>
</event>
<event>
 4    1  0.7145298E-006  0.4733832E+03  0.7818608E-02  0.1020970E+00
          1   -1    0    0  501    0  0.00000000000E+00  0.00000000000E+00  0.39431580585E+03  0.39431580588E+03  0.50400000000E-02 0.  1.
         -1   -1    0    0    0  501 -0.00000000000E+00 -0.00000000000E+00 -0.14207626601E+03  0.14207626609E+03  0.50400000000E-02 0. -1.
    5000001    1    1    2    0    0  0.39920406820E+02 -0.13206288055E+03  0.13877172189E+03  0.27414564395E+03  0.19200000000E+03 0.  0.
   -5000001    1    1    2    0    0 -0.39920406820E+02  0.13206288055E+03  0.11346781795E+03  0.26224642803E+03  0.19200000000E+03 0.  0.
<mgrwt>
<rscale>  0 0.47338322E+03</rscale>
<asrwt>0</asrwt>
<pdfrwt beam="1">  1        1 0.56330830E-01 0.47338322E+03</pdfrwt>
<pdfrwt beam="2">  1       -1 0.20296609E-01 0.47338322E+03</pdfrwt>
<totfact> 0.13433070E+03</totfact>
</mgrwt>
</event>
<event>
 4    1  0.7145298E-006  0.4619261E+03  0.7818608E-02  0.1024224E+00
         -1   -1    0    0    0  501 -0.00000000000E+00  0.00000000000E+00  0.19970713204E+03  0.19970713210E+03  0.50400000000E-02 0. -1.
          1   -1    0    0  501    0  0.00000000000E+00 -0.00000000000E+00 -0.26711075654E+03  0.26711075659E+03  0.50400000000E-02 0.  1.
    5000001    1    1    2    0    0 -0.11470132464E+03 -0.37699951959E+02  0.10374779372E+02  0.22704474515E+03  0.19200000000E+03 0.  0.
   -5000001    1    1    2    0    0  0.11470132464E+03  0.37699951959E+02 -0.77778403880E+02  0.23977314354E+03  0.19200000000E+03 0.  0.
<mgrwt>
<rscale>  0 0.46192607E+03</rscale>
<asrwt>0</asrwt>
<pdfrwt beam="1">  1        1 0.38158679E-01 0.46192607E+03</pdfrwt>
<pdfrwt beam="2">  1       -1 0.28529590E-01 0.46192607E+03</pdfrwt>
<totfact> 0.12489239E+03</totfact>
</mgrwt>
</event>
<event>
 4    1  0.7145298E-006  0.6466121E+03  0.7818608E-02  0.9813157E-01
         -1   -1    0    0    0  501 -0.00000000000E+00  0.00000000000E+00  0.21507118813E+03  0.21507118819E+03  0.50400000000E-02 0. -1.
          1   -1    0    0  501    0  0.00000000000E+00 -0.00000000000E+00 -0.48601019975E+03  0.48601019977E+03  0.50400000000E-02 0.  1.
    5000001    1    1    2    0    0 -0.56694621425E+02  0.14044995504E+03  0.93821384727E+02  0.26192923128E+03  0.19200000000E+03 0.  0.
   -5000001    1    1    2    0    0  0.56694621425E+02 -0.14044995504E+03 -0.36476039635E+03  0.43915215668E+03  0.19200000000E+03 0.  0.
<mgrwt>
<rscale>  0 0.64661207E+03</rscale>
<asrwt>0</asrwt>
<pdfrwt beam="1">  1        1 0.69430028E-01 0.64661207E+03</pdfrwt>
<pdfrwt beam="2">  1       -1 0.30724456E-01 0.64661207E+03</pdfrwt>
<totfact> 0.50362509E+02</totfact>
</mgrwt>
</event>
<event>
 4    1  0.7145298E-006  0.7279310E+03  0.7818608E-02  0.9670624E-01
         -1   -1    0    0    0  501 -0.00000000000E+00  0.00000000000E+00  0.81289488850E+02  0.81289489006E+02  0.50400000000E-02 0. -1.
          1   -1    0    0  501    0  0.00000000000E+00 -0.00000000000E+00 -0.16296189322E+04  0.16296189322E+04  0.50400000000E-02 0.  1.
    5000001    1    1    2    0    0  0.25503129520E+03  0.13328060221E+03 -0.50822757220E+03  0.61478772401E+03  0.19200000000E+03 0.  0.
   -5000001    1    1    2    0    0 -0.25503129520E+03 -0.13328060221E+03 -0.10401018711E+04  0.10961206972E+04  0.19200000000E+03 0.  0.
<mgrwt>
<rscale>  0 0.72793101E+03</rscale>
<asrwt>0</asrwt>
<pdfrwt beam="1">  1        1 0.23280269E+00 0.72793101E+03</pdfrwt>
<pdfrwt beam="2">  1       -1 0.11612785E-01 0.72793101E+03</pdfrwt>
<totfact> 0.32475695E+02</totfact>
</mgrwt>
</event>
<event>
 4    1  0.7145298E-006  0.8814867E+03  0.7818608E-02  0.9449024E-01
          1   -1    0    0  501    0  0.00000000000E+00  0.00000000000E+00  0.43684727532E+04  0.43684727532E+04  0.50400000000E-02 0.  1.
         -1   -1    0    0    0  501 -0.00000000000E+00 -0.00000000000E+00 -0.44467420127E+02  0.44467420413E+02  0.50400000000E-02 0. -1.
    5000001    1    1    2    0    0 -0.31808942138E+03 -0.15170240450E+03  0.30741322486E+04  0.31002173442E+04  0.19200000000E+03 0.  0.
   -5000001    1    1    2    0    0  0.31808942138E+03  0.15170240450E+03  0.12498730845E+04  0.13127228294E+04  0.19200000000E+03 0.  0.
<mgrwt>
<rscale>  0 0.88148673E+03</rscale>
<asrwt>0</asrwt>
<pdfrwt beam="1">  1        1 0.62406736E+00 0.88148673E+03</pdfrwt>
<pdfrwt beam="2">  1       -1 0.63524904E-02 0.88148673E+03</pdfrwt>
<totfact> 0.11825659E+01</totfact>
</mgrwt>
</event>
<event>
 4    1  0.7145298E-006  0.8472526E+03  0.7818608E-02  0.9494032E-01
         -1   -1    0    0    0  501 -0.00000000000E+00  0.00000000000E+00  0.85592813311E+02  0.85592813459E+02  0.50400000000E-02 0. -1.
          1   -1    0    0  501    0  0.00000000000E+00 -0.00000000000E+00 -0.20966623939E+04  0.20966623939E+04  0.50400000000E-02 0.  1.
    5000001    1    1    2    0    0  0.24682900767E+03 -0.27959365786E+03 -0.11578721051E+04  0.12315149143E+04  0.19200000000E+03 0.  0.
   -5000001    1    1    2    0    0 -0.24682900767E+03  0.27959365786E+03 -0.85319747548E+03  0.95074029299E+03  0.19200000000E+03 0.  0.
<mgrwt>
<rscale>  0 0.84725258E+03</rscale>
<asrwt>0</asrwt>
<pdfrwt beam="1">  1        1 0.29952317E+00 0.84725258E+03</pdfrwt>
<pdfrwt beam="2">  1       -1 0.12227546E-01 0.84725258E+03</pdfrwt>
<totfact> 0.15120365E+02</totfact>
</mgrwt>
</event>
<event>
 4    1  0.7145298E-006  0.5031051E+03  0.7818608E-02  0.1012972E+00
          1   -1    0    0  501    0  0.00000000000E+00  0.00000000000E+00  0.92514919632E+03  0.92514919633E+03  0.50400000000E-02 0.  1.
         -1   -1    0    0    0  501 -0.00000000000E+00 -0.00000000000E+00 -0.68398369517E+02  0.68398369702E+02  0.50400000000E-02 0. -1.
    5000001    1    1    2    0    0 -0.10277497659E+03  0.12565271218E+03  0.41265139464E+03  0.48321472803E+03  0.19200000000E+03 0.  0.
   -5000001    1    1    2    0    0  0.10277497659E+03 -0.12565271218E+03  0.44409943216E+03  0.51033283800E+03  0.19200000000E+03 0.  0.
<mgrwt>
<rscale>  0 0.50310514E+03</rscale>
<asrwt>0</asrwt>
<pdfrwt beam="1">  1        1 0.13216416E+00 0.50310514E+03</pdfrwt>
<pdfrwt beam="2">  1       -1 0.97711963E-02 0.50310514E+03</pdfrwt>
<totfact> 0.12992859E+03</totfact>
</mgrwt>
</event>
<event>
 4    1  0.7145298E-006  0.7558585E+03  0.7818608E-02  0.9626204E-01
          1   -1    0    0  501    0  0.00000000000E+00  0.00000000000E+00  0.60950999859E+03  0.60950999861E+03  0.50400000000E-02 0.  1.
         -1   -1    0    0    0  501 -0.00000000000E+00 -0.00000000000E+00 -0.23433662689E+03  0.23433662694E+03  0.50400000000E-02 0. -1.
    5000001    1    1    2    0    0  0.11157397093E+03 -0.26252138971E+03  0.36268948842E+03  0.49977384490E+03  0.19200000000E+03 0.  0.
   -5000001    1    1    2    0    0 -0.11157397093E+03  0.26252138971E+03  0.12483883291E+02  0.34407278065E+03  0.19200000000E+03 0.  0.
<mgrwt>
<rscale>  0 0.75585850E+03</rscale>
<asrwt>0</asrwt>
<pdfrwt beam="1">  1        1 0.87072857E-01 0.75585850E+03</pdfrwt>
<pdfrwt beam="2">  1       -1 0.33476661E-01 0.75585850E+03</pdfrwt>
<totfact> 0.31596847E+02</totfact>
</mgrwt>
</event>
<event>
 4    1  0.7145298E-006  0.7577943E+03  0.7818608E-02  0.9623201E-01
          1   -1    0    0  501    0  0.00000000000E+00  0.00000000000E+00  0.22965663626E+03  0.22965663631E+03  0.50400000000E-02 0.  1.
         -1   -1    0    0    0  501 -0.00000000000E+00 -0.00000000000E+00 -0.62512041477E+03  0.62512041479E+03  0.50400000000E-02 0. -1.
    5000001    1    1    2    0    0  0.25589479051E+03 -0.25474721390E+02 -0.42492388665E+03  0.53249921567E+03  0.19200000000E+03 0.  0.
   -5000001    1    1    2    0    0 -0.25589479051E+03  0.25474721390E+02  0.29460108136E+02  0.32227783543E+03  0.19200000000E+03 0.  0.
<mgrwt>
<rscale>  0 0.75779430E+03</rscale>
<asrwt>0</asrwt>
<pdfrwt beam="1">  1        1 0.32808091E-01 0.75779430E+03</pdfrwt>
<pdfrwt beam="2">  1       -1 0.89302916E-01 0.75779430E+03</pdfrwt>
<totfact> 0.17026363E+02</totfact>
</mgrwt>
</event>
<event>
 4    1  0.7145298E-006  0.5126572E+03  0.7818608E-02  0.1010527E+00
         -1   -1    0    0    0  501 -0.00000000000E+00  0.00000000000E+00  0.64522113262E+02  0.64522113459E+02  0.50400000000E-02 0. -1.
          1   -1    0    0  501    0  0.00000000000E+00 -0.00000000000E+00 -0.10183228551E+04  0.10183228551E+04  0.50400000000E-02 0.  1.
    5000001    1    1    2    0    0 -0.16167136155E+03  0.36115780434E+02 -0.55588623287E+03  0.61099548495E+03  0.19200000000E+03 0.  0.
   -5000001    1    1    2    0    0  0.16167136155E+03 -0.36115780434E+02 -0.39791450897E+03  0.47184948361E+03  0.19200000000E+03 0.  0.
<mgrwt>
<rscale>  0 0.51265717E+03</rscale>
<asrwt>0</asrwt>
<pdfrwt beam="1">  1        1 0.14547468E+00 0.51265717E+03</pdfrwt>
<pdfrwt beam="2">  1       -1 0.92174454E-02 0.51265717E+03</pdfrwt>
<totfact> 0.12128861E+03</totfact>
</mgrwt>
</event>
<event>
 4    1  0.7145298E-006  0.4417976E+03  0.7818608E-02  0.1030197E+00
         -1   -1    0    0    0  501 -0.00000000000E+00  0.00000000000E+00  0.47021530051E+03  0.47021530054E+03  0.50400000000E-02 0.  1.
          1   -1    0    0  501    0  0.00000000000E+00 -0.00000000000E+00 -0.10377435777E+03  0.10377435790E+03  0.50400000000E-02 0. -1.
    5000001    1    1    2    0    0  0.64948607136E+02  0.84825193903E+02  0.21280878934E+03  0.30588431786E+03  0.19200000000E+03 0.  0.
   -5000001    1    1    2    0    0 -0.64948607136E+02 -0.84825193903E+02  0.15363215339E+03  0.26810534058E+03  0.19200000000E+03 0.  0.
<mgrwt>
<rscale>  0 0.44179765E+03</rscale>
<asrwt>0</asrwt>
<pdfrwt beam="1">  1        1 0.14824908E-01 0.44179765E+03</pdfrwt>
<pdfrwt beam="2">  1       -1 0.67173616E-01 0.44179765E+03</pdfrwt>
<totfact> 0.88447200E+02</totfact>
</mgrwt>
</event>
<event>
 4    1  0.7145298E-006  0.6639204E+03  0.7818608E-02  0.9781004E-01
         -1   -1    0    0    0  501 -0.00000000000E+00  0.00000000000E+00  0.19022256792E+03  0.19022256799E+03  0.50400000000E-02 0. -1.
          1   -1    0    0  501    0  0.00000000000E+00 -0.00000000000E+00 -0.57930858272E+03  0.57930858275E+03  0.50400000000E-02 0.  1.
    5000001    1    1    2    0    0 -0.17523764105E+03  0.20481269227E+03 -0.16438271880E+03  0.36951609978E+03  0.19200000000E+03 0.  0.
   -5000001    1    1    2    0    0  0.17523764105E+03 -0.20481269227E+03 -0.22470329601E+03  0.40001505096E+03  0.19200000000E+03 0.  0.
<mgrwt>
<rscale>  0 0.66392038E+03</rscale>
<asrwt>0</asrwt>
<pdfrwt beam="1">  1        1 0.82758368E-01 0.66392038E+03</pdfrwt>
<pdfrwt beam="2">  1       -1 0.27174653E-01 0.66392038E+03</pdfrwt>
<totfact> 0.48975397E+02</totfact>
</mgrwt>
</event>
<event>
 4    1  0.7145298E-006  0.6647962E+03  0.7818608E-02  0.9779405E-01
          1   -1    0    0  501    0  0.00000000000E+00  0.00000000000E+00  0.15026134853E+04  0.15026134853E+04  0.50400000000E-02 0.  1.
         -1   -1    0    0    0  501 -0.00000000000E+00 -0.00000000000E+00 -0.73530889040E+02  0.73530889213E+02  0.50400000000E-02 0. -1.
    5000001    1    1    2    0    0 -0.19699872331E+03  0.11254201472E+03  0.10673971236E+04  0.11080048833E+04  0.19200000000E+03 0.  0.
   -5000001    1    1    2    0    0  0.19699872331E+03 -0.11254201472E+03  0.36168547268E+03  0.46813949119E+03  0.19200000000E+03 0.  0.
<mgrwt>
<rscale>  0 0.66479623E+03</rscale>
<asrwt>0</asrwt>
<pdfrwt beam="1">  1        1 0.21465904E+00 0.66479623E+03</pdfrwt>
<pdfrwt beam="2">  1       -1 0.10504414E-01 0.66479623E+03</pdfrwt>
<totfact> 0.46093329E+02</totfact>
</mgrwt>
</event>
<event>
 4    1  0.7145298E-006  0.4294542E+03  0.7818608E-02  0.1034033E+00
          1   -1    0    0  501    0  0.00000000000E+00  0.00000000000E+00  0.11096627978E+04  0.11096627978E+04  0.50400000000E-02 0.  1.
         -1   -1    0    0    0  501 -0.00000000000E+00 -0.00000000000E+00 -0.41551113233E+02  0.41551113539E+02  0.50400000000E-02 0. -1.
    5000001    1    1    2    0    0 -0.36310808005E+02  0.82213196930E+02  0.62560053978E+03  0.66054335202E+03  0.19200000000E+03 0.  0.
   -5000001    1    1    2    0    0  0.36310808005E+02 -0.82213196930E+02  0.44251114475E+03  0.49067055930E+03  0.19200000000E+03 0.  0.
<mgrwt>
<rscale>  0 0.42945419E+03</rscale>
<asrwt>0</asrwt>
<pdfrwt beam="1">  1        1 0.15852323E+00 0.42945419E+03</pdfrwt>
<pdfrwt beam="2">  1       -1 0.59358745E-02 0.42945419E+03</pdfrwt>
<totfact> 0.20633435E+03</totfact>
</mgrwt>
</event>
