<event>
 8    1  0.6876290E-010  0.1505684E+04  0.7818608E-02  0.8880682E-01
          2   -1    0    0  501    0  0.00000000000E+00  0.00000000000E+00  0.44282028064E+03  0.44282028065E+03  0.25500000000E-02 0.  1.
         -2   -1    0    0    0  501 -0.00000000000E+00 -0.00000000000E+00 -0.12799119832E+04  0.12799119832E+04  0.25500000000E-02 0. -1.
     200001    2    1    2    0    0  0.21751179385E+03 -0.16005120239E+03 -0.34490971259E+03  0.82541911947E+03  0.69959005503E+03 0.  0.
    5000001    2    3    3    0    0  0.15397854472E+03 -0.42829758623E+02  0.90293604248E+01  0.19848195513E+03  0.11734469185E+03 0.  0.
        -11    1    4    4    0    0  0.27553865348E+02  0.34580290391E+02  0.16137793971E+02  0.47068464747E+02  0.51100000000E-03 0. -1.
     200002    1    4    4    0    0  0.12642467938E+03 -0.77410049015E+02 -0.71084335466E+01  0.15141349039E+03  0.30000000000E+02 0. -1.
     200000    1    3    3    0    0  0.63533249130E+02 -0.11722144377E+03 -0.35393907301E+03  0.62693716434E+03  0.50000000000E+03 0. -1.
    -200001    1    1    2    0    0 -0.21751179385E+03  0.16005120239E+03 -0.49218199002E+03  0.89731314442E+03  0.70000000000E+03 0.  1.
<mgrwt>
<rscale>  0 0.15056839E+04</rscale>
<asrwt>0</asrwt>
<pdfrwt beam="1">  1        2 0.63260041E-01 0.15056839E+04</pdfrwt>
<pdfrwt beam="2">  1       -2 0.18284457E+00 0.15056839E+04</pdfrwt>
<totfact> 0.12921329E+01</totfact>
</mgrwt>
</event>
<event>
 8    1  0.6876290E-010  0.1688362E+04  0.7818608E-02  0.8768030E-01
         -2   -1    0    0    0  501 -0.00000000000E+00  0.00000000000E+00  0.15052382913E+04  0.15052382913E+04  0.25500000000E-02 0. -1.
          2   -1    0    0  501    0  0.00000000000E+00 -0.00000000000E+00 -0.47344097583E+03  0.47344097584E+03  0.25500000000E-02 0.  1.
     200001    2    1    2    0    0 -0.37136738904E+03  0.11960814316E+03  0.82677131969E+03  0.11514818878E+04  0.70009990518E+03 0.  0.
    5000001    2    3    3    0    0 -0.13436618914E+03  0.88839893842E+02  0.25685161202E+03  0.35654495498E+03  0.18762930154E+03 0.  0.
        -11    1    4    4    0    0 -0.35611201523E+02 -0.25748586921E+02 -0.12919571633E+02  0.45804614765E+02  0.51100000000E-03 0. -1.
     200002    1    4    4    0    0 -0.98754987613E+02  0.11458848076E+03  0.26977118366E+03  0.31074034021E+03  0.30000000000E+02 0. -1.
     200000    1    3    3    0    0 -0.23700119990E+03  0.30768249321E+02  0.56991970767E+03  0.79493693279E+03  0.50000000000E+03 0. -1.
    -200001    1    1    2    0    0  0.37136738904E+03 -0.11960814316E+03  0.20502599582E+03  0.82719737942E+03  0.70000000000E+03 0.  1.
<mgrwt>
<rscale>  0 0.16883619E+04</rscale>
<asrwt>0</asrwt>
<pdfrwt beam="1">  1        2 0.67634426E-01 0.16883619E+04</pdfrwt>
<pdfrwt beam="2">  1       -2 0.21503404E+00 0.16883619E+04</pdfrwt>
<totfact> 0.72487327E+00</totfact>
</mgrwt>
</event>
<event>
 8    1  0.6876290E-010  0.2209710E+04  0.7818608E-02  0.8514398E-01
         -2   -1    0    0    0  501 -0.00000000000E+00  0.00000000000E+00  0.67423379247E+03  0.67423379248E+03  0.25500000000E-02 0. -1.
          2   -1    0    0  501    0  0.00000000000E+00 -0.00000000000E+00 -0.18105057294E+04  0.18105057294E+04  0.25500000000E-02 0.  1.
     200001    2    1    2    0    0  0.67543985619E+03 -0.38289071129E+03 -0.97041399272E+03  0.14262816088E+04  0.69982255916E+03 0.  0.
    5000001    2    3    3    0    0  0.16698326191E+03 -0.17624423522E+02 -0.30900579123E+03  0.38733580744E+03  0.16232812032E+03 0.  0.
        -11    1    4    4    0    0  0.12282659157E+03 -0.81599793594E+02 -0.16786971025E+03  0.22343933747E+03  0.51100000000E-03 0. -1.
     200002    1    4    4    0    0  0.44156670341E+02  0.63975370072E+02 -0.14113608098E+03  0.16389646996E+03  0.30000000000E+02 0. -1.
     200000    1    3    3    0    0  0.50845659427E+03 -0.36526628777E+03 -0.66140820150E+03  0.10389458014E+04  0.50000000000E+03 0.  1.
    -200001    1    1    2    0    0 -0.67543985619E+03  0.38289071129E+03 -0.16585794425E+03  0.10584579131E+04  0.70000000000E+03 0. -1.
<mgrwt>
<rscale>  0 0.22097096E+04</rscale>
<asrwt>0</asrwt>
<pdfrwt beam="1">  1        2 0.25864367E+00 0.22097096E+04</pdfrwt>
<pdfrwt beam="2">  1       -2 0.96319114E-01 0.22097096E+04</pdfrwt>
<totfact> 0.83237065E+00</totfact>
</mgrwt>
</event>
<event>
 8    1  0.6876290E-010  0.1595839E+04  0.7818608E-02  0.8823109E-01
          2   -1    0    0  501    0  0.00000000000E+00  0.00000000000E+00  0.10998352798E+04  0.10998352798E+04  0.25500000000E-02 0.  1.
         -2   -1    0    0    0  501 -0.00000000000E+00 -0.00000000000E+00 -0.57888226415E+03  0.57888226416E+03  0.25500000000E-02 0. -1.
     200001    2    1    2    0    0  0.17453878543E+02 -0.19820955013E+03  0.60531772615E+03  0.94611323874E+03  0.69937761423E+03 0.  0.
    5000001    2    3    3    0    0  0.54268737405E+02 -0.12910949882E+03  0.17922803038E+03  0.28453740804E+03  0.17095172170E+03 0.  0.
        -11    1    4    4    0    0 -0.23456611931E+02 -0.62037553377E+02  0.16348681933E+03  0.17642791946E+03  0.51100000000E-03 0. -1.
     200002    1    4    4    0    0  0.77725349335E+02 -0.67071945443E+02  0.15741211057E+02  0.10810948858E+03  0.30000000000E+02 0. -1.
     200000    1    3    3    0    0 -0.36814858862E+02 -0.69100051310E+02  0.42608969577E+03  0.66157583070E+03  0.50000000000E+03 0.  1.
    -200001    1    1    2    0    0 -0.17453878543E+02  0.19820955013E+03 -0.84364710511E+02  0.73260430521E+03  0.70000000000E+03 0. -1.
<mgrwt>
<rscale>  0 0.15958385E+04</rscale>
<asrwt>0</asrwt>
<pdfrwt beam="1">  1        2 0.15711932E+00 0.15958385E+04</pdfrwt>
<pdfrwt beam="2">  1       -2 0.82697467E-01 0.15958385E+04</pdfrwt>
<totfact> 0.30136282E+01</totfact>
</mgrwt>
</event>
<event>
 8    1  0.6876290E-010  0.2316392E+04  0.7818608E-02  0.8471486E-01
          2   -1    0    0  501    0  0.00000000000E+00  0.00000000000E+00  0.11287181688E+04  0.11287181689E+04  0.25500000000E-02 0.  1.
         -2   -1    0    0    0  501 -0.00000000000E+00 -0.00000000000E+00 -0.11884439154E+04  0.11884439154E+04  0.25500000000E-02 0. -1.
     200001    2    1    2    0    0 -0.76802578603E+03 -0.45856076696E+03 -0.25649759405E+03  0.11643998603E+04  0.69992459167E+03 0.  0.
    5000001    2    3    3    0    0 -0.20890591077E+03 -0.92819876755E+02 -0.31887419163E+02  0.30020592127E+03  0.19196244057E+03 0.  0.
        -11    1    4    4    0    0 -0.94390145728E+02 -0.12273085215E+03 -0.73258735039E+02  0.17128690533E+03  0.51100000000E-03 0. -1.
     200002    1    4    4    0    0 -0.11451576505E+03  0.29910975391E+02  0.41371315876E+02  0.12891901594E+03  0.30000000000E+02 0. -1.
     200000    1    3    3    0    0 -0.55911987526E+03 -0.36574089020E+03 -0.22461017489E+03  0.86419393908E+03  0.50000000000E+03 0.  1.
    -200001    1    1    2    0    0  0.76802578603E+03  0.45856076696E+03  0.19677184746E+03  0.11527622239E+04  0.70000000000E+03 0.  1.
<mgrwt>
<rscale>  0 0.23163922E+04</rscale>
<asrwt>0</asrwt>
<pdfrwt beam="1">  1        2 0.16124545E+00 0.23163922E+04</pdfrwt>
<pdfrwt beam="2">  1       -2 0.16977770E+00 0.23163922E+04</pdfrwt>
<totfact> 0.45738591E+00</totfact>
</mgrwt>
</event>
<event>
 8    1  0.6876290E-010  0.2871252E+04  0.7818608E-02  0.8281483E-01
          2   -1    0    0  501    0  0.00000000000E+00  0.00000000000E+00  0.11379093056E+04  0.11379093056E+04  0.25500000000E-02 0.  1.
         -2   -1    0    0    0  501 -0.00000000000E+00 -0.00000000000E+00 -0.18112356792E+04  0.18112356792E+04  0.25500000000E-02 0. -1.
     200001    2    1    2    0    0  0.11405625953E+04  0.16944777448E+03  0.16694087201E+03  0.13599173025E+04  0.70136312467E+03 0.  0.
    5000001    2    3    3    0    0  0.31061073751E+03  0.15115801847E+03  0.77872700941E+02  0.38673297225E+03  0.15546850958E+03 0.  0.
        -11    1    4    4    0    0  0.25819899230E+03  0.11372870156E+03  0.11721758333E+03  0.30551742835E+03  0.51100000000E-03 0. -1.
     200002    1    4    4    0    0  0.52411745205E+02  0.37429316914E+02 -0.39344882393E+02  0.81215543898E+02  0.30000000000E+02 0. -1.
     200000    1    3    3    0    0  0.82995185781E+03  0.18289756008E+02  0.89068171073E+02  0.97318433021E+03  0.50000000000E+03 0.  1.
    -200001    1    1    2    0    0 -0.11405625953E+04 -0.16944777448E+03 -0.84026724567E+03  0.15892276823E+04  0.70000000000E+03 0. -1.
<mgrwt>
<rscale>  0 0.28712519E+04</rscale>
<asrwt>0</asrwt>
<pdfrwt beam="1">  1        2 0.16255847E+00 0.28712519E+04</pdfrwt>
<pdfrwt beam="2">  1       -2 0.25874795E+00 0.28712519E+04</pdfrwt>
<totfact> 0.11475743E+00</totfact>
</mgrwt>
</event>
<event>
 8    1  0.6876290E-010  0.2225786E+04  0.7818608E-02  0.8507771E-01
          2   -1    0    0  501    0  0.00000000000E+00  0.00000000000E+00  0.15050341563E+04  0.15050341563E+04  0.25500000000E-02 0.  1.
         -2   -1    0    0    0  501 -0.00000000000E+00 -0.00000000000E+00 -0.82292559858E+03  0.82292559858E+03  0.25500000000E-02 0. -1.
     200001    2    1    2    0    0 -0.67153294232E+03  0.53003646255E+02 -0.22605507609E+03  0.99809996342E+03  0.70095417854E+03 0.  0.
    5000001    2    3    3    0    0 -0.33711109298E+02 -0.65762164625E+02 -0.78506992940E+02  0.16581849339E+03  0.12598144158E+03 0.  0.
        -11    1    4    4    0    0  0.10102245925E+02  0.32241016577E+02 -0.11128505069E+02  0.35572210333E+02  0.51100000000E-03 0. -1.
     200002    1    4    4    0    0 -0.43813355223E+02 -0.98003181202E+02 -0.67378487871E+02  0.13024628305E+03  0.30000000000E+02 0. -1.
     200000    1    3    3    0    0 -0.63782183302E+03  0.11876581088E+03 -0.14754808315E+03  0.83228147003E+03  0.50000000000E+03 0.  1.
    -200001    1    1    2    0    0  0.67153294232E+03 -0.53003646255E+02  0.90816363380E+03  0.13298597914E+04  0.70000000000E+03 0.  1.
<mgrwt>
<rscale>  0 0.22257863E+04</rscale>
<asrwt>0</asrwt>
<pdfrwt beam="1">  1        2 0.21500488E+00 0.22257863E+04</pdfrwt>
<pdfrwt beam="2">  1       -2 0.11756080E+00 0.22257863E+04</pdfrwt>
<totfact> 0.74416002E+00</totfact>
</mgrwt>
</event>
<event>
 8    1  0.6876290E-010  0.2237538E+04  0.7818608E-02  0.8502965E-01
          2   -1    0    0  501    0  0.00000000000E+00  0.00000000000E+00  0.12325658462E+04  0.12325658462E+04  0.25500000000E-02 0.  1.
         -2   -1    0    0    0  501 -0.00000000000E+00 -0.00000000000E+00 -0.10154781961E+04  0.10154781961E+04  0.25500000000E-02 0. -1.
     200001    2    1    2    0    0 -0.49075691215E+02 -0.87106027806E+03  0.77082429868E+02  0.11207659518E+04  0.69929978286E+03 0.  0.
    5000001    2    3    3    0    0  0.86601523529E+01 -0.22838536595E+03  0.67254739157E+02  0.30439529227E+03  0.18946878476E+03 0.  0.
        -11    1    4    4    0    0  0.87828028671E+02 -0.14152400328E+03  0.75387614371E+02  0.18282805727E+03  0.51100000000E-03 0. -1.
     200002    1    4    4    0    0 -0.79167876318E+02 -0.86861362679E+02 -0.81328752142E+01  0.12156723500E+03  0.30000000000E+02 0. -1.
     200000    1    3    3    0    0 -0.57735843568E+02 -0.64267491211E+03  0.98276907108E+01  0.81637065956E+03  0.50000000000E+03 0.  1.
    -200001    1    1    2    0    0  0.49075691215E+02  0.87106027806E+03  0.14000522019E+03  0.11272780904E+04  0.70000000000E+03 0. -1.
<mgrwt>
<rscale>  0 0.22375377E+04</rscale>
<asrwt>0</asrwt>
<pdfrwt beam="1">  1        2 0.17608084E+00 0.22375377E+04</pdfrwt>
<pdfrwt beam="2">  1       -2 0.14506831E+00 0.22375377E+04</pdfrwt>
<totfact> 0.61378776E+00</totfact>
</mgrwt>
</event>
<event>
 8    1  0.6876290E-010  0.1706480E+04  0.7818608E-02  0.8757677E-01
          2   -1    0    0  501    0  0.00000000000E+00  0.00000000000E+00  0.10170683431E+04  0.10170683431E+04  0.25500000000E-02 0. -1.
         -2   -1    0    0    0  501 -0.00000000000E+00 -0.00000000000E+00 -0.71580079023E+03  0.71580079023E+03  0.25500000000E-02 0.  1.
     200001    2    1    2    0    0  0.43694850590E+02  0.29456473658E+03 -0.24260295117E+03  0.79773665655E+03  0.69917805835E+03 0.  0.
    5000001    2    3    3    0    0 -0.17388734042E+02  0.84875471318E+02 -0.70528665206E+02  0.22562621951E+03  0.19602725477E+03 0.  0.
        -11    1    4    4    0    0  0.17297610145E+02 -0.21766214578E+02 -0.10169814300E+03  0.10543001329E+03  0.51100000000E-03 0. -1.
     200002    1    4    4    0    0 -0.34686344187E+02  0.10664168590E+03  0.31169477790E+02  0.12019620622E+03  0.30000000000E+02 0. -1.
     200000    1    3    3    0    0  0.61083584632E+02  0.20968926526E+03 -0.17207428596E+03  0.57211043704E+03  0.50000000000E+03 0.  1.
    -200001    1    1    2    0    0 -0.43694850590E+02 -0.29456473658E+03  0.54387050406E+03  0.93513247681E+03  0.70000000000E+03 0. -1.
<mgrwt>
<rscale>  0 0.17064798E+04</rscale>
<asrwt>0</asrwt>
<pdfrwt beam="1">  1        2 0.14529548E+00 0.17064798E+04</pdfrwt>
<pdfrwt beam="2">  1       -2 0.10225726E+00 0.17064798E+04</pdfrwt>
<totfact> 0.20479151E+01</totfact>
</mgrwt>
</event>
<event>
 8    1  0.6876290E-010  0.1793787E+04  0.7818608E-02  0.8709610E-01
          2   -1    0    0  501    0  0.00000000000E+00  0.00000000000E+00  0.11621951200E+04  0.11621951200E+04  0.25500000000E-02 0.  1.
         -2   -1    0    0    0  501 -0.00000000000E+00 -0.00000000000E+00 -0.69215402303E+03  0.69215402303E+03  0.25500000000E-02 0. -1.
     200001    2    1    2    0    0 -0.32693825068E+03 -0.35679568408E+03  0.52786728912E+03  0.10013921404E+04  0.69996468764E+03 0.  0.
    5000001    2    3    3    0    0 -0.80550842117E+02 -0.12349525860E+03  0.14377069983E+03  0.28538513375E+03  0.19757313425E+03 0.  0.
        -11    1    4    4    0    0  0.14260614477E+02 -0.11453144215E+03  0.14525572978E+03  0.18552639542E+03  0.51100000000E-03 0. -1.
     200002    1    4    4    0    0 -0.94811456594E+02 -0.89638164511E+01 -0.14850299480E+01  0.99858738330E+02  0.30000000000E+02 0. -1.
     200000    1    3    3    0    0 -0.24638740857E+03 -0.23330042548E+03  0.38409658929E+03  0.71600700662E+03  0.50000000000E+03 0.  1.
    -200001    1    1    2    0    0  0.32693825068E+03  0.35679568408E+03 -0.57826192117E+02  0.85295700269E+03  0.70000000000E+03 0. -1.
<mgrwt>
<rscale>  0 0.17937871E+04</rscale>
<asrwt>0</asrwt>
<pdfrwt beam="1">  1        2 0.16602787E+00 0.17937871E+04</pdfrwt>
<pdfrwt beam="2">  1       -2 0.98879147E-01 0.17937871E+04</pdfrwt>
<totfact> 0.18062243E+01</totfact>
</mgrwt>
</event>
<event>
 8    1  0.6876290E-010  0.1678866E+04  0.7818608E-02  0.8773510E-01
          2   -1    0    0  501    0  0.00000000000E+00  0.00000000000E+00  0.42876164065E+03  0.42876164066E+03  0.25500000000E-02 0.  1.
         -2   -1    0    0    0  501 -0.00000000000E+00 -0.00000000000E+00 -0.16434487415E+04  0.16434487415E+04  0.25500000000E-02 0. -1.
     200001    2    1    2    0    0 -0.10692370380E+03  0.39442927993E+03 -0.33805095269E+03  0.87826814253E+03  0.70004953272E+03 0.  0.
    5000001    2    3    3    0    0 -0.12765168925E+02 -0.11402253127E+02 -0.57663004453E+02  0.16961980630E+03  0.15859664465E+03 0.  0.
        -11    1    4    4    0    0 -0.44475396428E+02  0.58846576992E+02 -0.43718783533E+02  0.85745626973E+02  0.51100000000E-03 0. -1.
     200002    1    4    4    0    0  0.31710227504E+02 -0.70248830119E+02 -0.13944220920E+02  0.83874179331E+02  0.30000000000E+02 0. -1.
     200000    1    3    3    0    0 -0.94158534870E+02  0.40583153306E+03 -0.28038794824E+03  0.70864833622E+03  0.50000000000E+03 0.  1.
    -200001    1    1    2    0    0  0.10692370380E+03 -0.39442927993E+03 -0.87663614814E+03  0.11939422396E+04  0.70000000000E+03 0. -1.
<mgrwt>
<rscale>  0 0.16788660E+04</rscale>
<asrwt>0</asrwt>
<pdfrwt beam="1">  1        2 0.61251664E-01 0.16788660E+04</pdfrwt>
<pdfrwt beam="2">  1       -2 0.23477839E+00 0.16788660E+04</pdfrwt>
<totfact> 0.60977110E+00</totfact>
</mgrwt>
</event>
<event>
 8    1  0.6876290E-010  0.1854079E+04  0.7818608E-02  0.8678058E-01
         -2   -1    0    0    0  501 -0.00000000000E+00  0.00000000000E+00  0.54831458969E+03  0.54831458970E+03  0.25500000000E-02 0.  1.
          2   -1    0    0  501    0  0.00000000000E+00 -0.00000000000E+00 -0.15673528417E+04  0.15673528417E+04  0.25500000000E-02 0. -1.
     200001    2    1    2    0    0  0.49302318373E+03  0.35130911650E+03 -0.44505977889E+03  0.10266581373E+04  0.69961329970E+03 0.  0.
    5000001    2    3    3    0    0  0.97431018195E+02  0.22396051956E+02 -0.34004473588E+02  0.19983080984E+03  0.16965158970E+03 0.  0.
        -11    1    4    4    0    0  0.12926411279E+03  0.35598463032E+02  0.12473457888E+02  0.13465529539E+03  0.51100000000E-03 0. -1.
     200002    1    4    4    0    0 -0.31833094592E+02 -0.13202411077E+02 -0.46477931476E+02  0.65175514450E+02  0.30000000000E+02 0. -1.
     200000    1    3    3    0    0  0.39559216553E+03  0.32891306454E+03 -0.41105530530E+03  0.82682732748E+03  0.50000000000E+03 0. -1.
    -200001    1    1    2    0    0 -0.49302318373E+03 -0.35130911650E+03 -0.57397847316E+03  0.10890092941E+04  0.70000000000E+03 0.  1.
<mgrwt>
<rscale>  0 0.18540792E+04</rscale>
<asrwt>0</asrwt>
<pdfrwt beam="1">  1        2 0.22390755E+00 0.18540792E+04</pdfrwt>
<pdfrwt beam="2">  1       -2 0.78330656E-01 0.18540792E+04</pdfrwt>
<totfact> 0.18403158E+01</totfact>
</mgrwt>
</event>
<event>
 8    1  0.6876290E-010  0.3009083E+04  0.7818608E-02  0.8241142E-01
          2   -1    0    0  501    0  0.00000000000E+00  0.00000000000E+00  0.15122204224E+04  0.15122204224E+04  0.25500000000E-02 0.  1.
         -2   -1    0    0    0  501 -0.00000000000E+00 -0.00000000000E+00 -0.14969010957E+04  0.14969010957E+04  0.25500000000E-02 0. -1.
     200001    2    1    2    0    0 -0.17113665341E+03 -0.25308518328E+03  0.13039529473E+04  0.15111507332E+04  0.69995955980E+03 0.  0.
    5000001    2    3    3    0    0 -0.12899558915E+03 -0.56059327822E+02  0.22123130257E+03  0.30165446734E+03  0.14923008468E+03 0.  0.
        -11    1    4    4    0    0 -0.91025283155E+02 -0.83230405263E+01  0.21472408684E+03  0.23336946811E+03  0.51100000000E-03 0. -1.
     200002    1    4    4    0    0 -0.37970305997E+02 -0.47736287295E+02  0.65072157226E+01  0.68284999222E+02  0.30000000000E+02 0. -1.
     200000    1    3    3    0    0 -0.42141064260E+02 -0.19702585546E+03  0.10827216448E+04  0.12094962658E+04  0.50000000000E+03 0.  1.
    -200001    1    1    2    0    0  0.17113665341E+03  0.25308518328E+03 -0.12886336206E+04  0.14979707849E+04  0.70000000000E+03 0. -1.
<mgrwt>
<rscale>  0 0.30090825E+04</rscale>
<asrwt>0</asrwt>
<pdfrwt beam="1">  1        2 0.21603149E+00 0.30090825E+04</pdfrwt>
<pdfrwt beam="2">  1       -2 0.21384301E+00 0.30090825E+04</pdfrwt>
<totfact> 0.13428767E+00</totfact>
</mgrwt>
</event>
<event>
 8    1  0.6876290E-010  0.2201003E+04  0.7818608E-02  0.8518011E-01
         -2   -1    0    0    0  501 -0.00000000000E+00  0.00000000000E+00  0.61763157752E+03  0.61763157752E+03  0.25500000000E-02 0. -1.
          2   -1    0    0  501    0  0.00000000000E+00 -0.00000000000E+00 -0.19608833463E+04  0.19608833463E+04  0.25500000000E-02 0.  1.
     200001    2    1    2    0    0  0.30848982340E+03  0.73653901641E+03 -0.10140864620E+04  0.14667570846E+04  0.69667015078E+03 0.  0.
    5000001    2    3    3    0    0  0.75560900012E+02  0.21896145019E+03 -0.30822171938E+03  0.43216177470E+03  0.19521681519E+03 0.  0.
        -11    1    4    4    0    0  0.80229842428E+01  0.10399755240E+03 -0.27120182531E+03  0.29056890617E+03  0.51100000000E-03 0. -1.
     200002    1    4    4    0    0  0.67537915770E+02  0.11496389779E+03 -0.37019894068E+02  0.14159286853E+03  0.30000000000E+02 0. -1.
     200000    1    3    3    0    0  0.23292892339E+03  0.51757756622E+03 -0.70586474259E+03  0.10345953099E+04  0.50000000000E+03 0.  1.
    -200001    1    1    2    0    0 -0.30848982340E+03 -0.73653901641E+03 -0.32916530678E+03  0.11117578392E+04  0.70000000000E+03 0. -1.
<mgrwt>
<rscale>  0 0.22010029E+04</rscale>
<asrwt>0</asrwt>
<pdfrwt beam="1">  1        2 0.28012619E+00 0.22010029E+04</pdfrwt>
<pdfrwt beam="2">  1       -2 0.88233083E-01 0.22010029E+04</pdfrwt>
<totfact> 0.85372104E+00</totfact>
</mgrwt>
</event>
<event>
 8    1  0.6876290E-010  0.2034229E+04  0.7818608E-02  0.8590783E-01
         -2   -1    0    0    0  501 -0.00000000000E+00  0.00000000000E+00  0.22847929241E+03  0.22847929243E+03  0.25500000000E-02 0. -1.
          2   -1    0    0  501    0  0.00000000000E+00 -0.00000000000E+00 -0.45278577130E+04  0.45278577130E+04  0.25500000000E-02 0.  1.
     200001    2    1    2    0    0  0.44036844523E+03  0.52755507332E+03 -0.27792579297E+04  0.29471921716E+04  0.69959154767E+03 0.  0.
    5000001    2    3    3    0    0  0.21980357837E+03  0.13068292488E+03 -0.98148343273E+03  0.10267366255E+04  0.15964563706E+03 0.  0.
        -11    1    4    4    0    0  0.20101045064E+03  0.45735195113E+02 -0.60454695857E+03  0.63872837298E+03  0.51100000000E-03 0. -1.
     200002    1    4    4    0    0  0.18793127730E+02  0.84947729768E+02 -0.37693647416E+03  0.38800825249E+03  0.30000000000E+02 0. -1.
     200000    1    3    3    0    0  0.22056486686E+03  0.39687214844E+03 -0.17977744970E+04  0.19204555461E+04  0.50000000000E+03 0.  1.
    -200001    1    1    2    0    0 -0.44036844523E+03 -0.52755507332E+03 -0.15201204908E+04  0.18091448338E+04  0.70000000000E+03 0. -1.
<mgrwt>
<rscale>  0 0.20342288E+04</rscale>
<asrwt>0</asrwt>
<pdfrwt beam="1">  1        2 0.64683676E+00 0.20342288E+04</pdfrwt>
<pdfrwt beam="2">  1       -2 0.32639902E-01 0.20342288E+04</pdfrwt>
<totfact> 0.18961340E+00</totfact>
</mgrwt>
</event>
<event>
 8    1  0.6876290E-010  0.1715088E+04  0.7818608E-02  0.8752806E-01
          2   -1    0    0  501    0  0.00000000000E+00  0.00000000000E+00  0.15894566580E+04  0.15894566581E+04  0.25500000000E-02 0.  1.
         -2   -1    0    0    0  501 -0.00000000000E+00 -0.00000000000E+00 -0.46266239127E+03  0.46266239127E+03  0.25500000000E-02 0. -1.
     200001    2    1    2    0    0  0.24869043118E+03  0.27292969293E+03  0.95836721779E+03  0.12429804835E+04  0.70013942213E+03 0.  0.
    5000001    2    3    3    0    0  0.28364316062E+02  0.33578482550E+02  0.16891209902E+03  0.25349982001E+03  0.18384453386E+03 0.  0.
        -11    1    4    4    0    0 -0.68736136908E+02 -0.13055872603E+02  0.32584877155E+02  0.77180869041E+02  0.51100000000E-03 0. -1.
     200002    1    4    4    0    0  0.97100452970E+02  0.46634355153E+02  0.13632722187E+03  0.17631895097E+03  0.30000000000E+02 0. -1.
     200000    1    3    3    0    0  0.22032611512E+03  0.23935121038E+03  0.78945511876E+03  0.98948066351E+03  0.50000000000E+03 0.  1.
    -200001    1    1    2    0    0 -0.24869043118E+03 -0.27292969293E+03  0.16842704899E+03  0.80913856581E+03  0.70000000000E+03 0. -1.
<mgrwt>
<rscale>  0 0.17150881E+04</rscale>
<asrwt>0</asrwt>
<pdfrwt beam="1">  1        2 0.22706524E+00 0.17150881E+04</pdfrwt>
<pdfrwt beam="2">  1       -2 0.66094627E-01 0.17150881E+04</pdfrwt>
<totfact> 0.26300128E+01</totfact>
</mgrwt>
</event>
<event>
 8    1  0.6876290E-010  0.1485115E+04  0.7818608E-02  0.8894412E-01
          2   -1    0    0  501    0  0.00000000000E+00  0.00000000000E+00  0.23464271606E+04  0.23464271606E+04  0.25500000000E-02 0.  1.
         -2   -1    0    0    0  501 -0.00000000000E+00 -0.00000000000E+00 -0.23499201862E+03  0.23499201863E+03  0.25500000000E-02 0. -1.
     200001    2    1    2    0    0  0.22139430125E+03 -0.10778905007E+03  0.10691916920E+04  0.13020031699E+04  0.70100461070E+03 0.  0.
    5000001    2    3    3    0    0  0.10837525250E+03 -0.11389090362E+03  0.24861744866E+03  0.33445336403E+03  0.15916055933E+03 0.  0.
        -11    1    4    4    0    0  0.14472675974E+03 -0.77527076558E+02  0.18185714926E+03  0.24500674546E+03  0.51100000000E-03 0. -1.
     200002    1    4    4    0    0 -0.36351507234E+02 -0.36363827065E+02  0.66760299402E+02  0.89446618568E+02  0.30000000000E+02 0. -1.
     200000    1    3    3    0    0  0.11301904875E+03  0.61018535537E+01  0.82057424330E+03  0.96754980583E+03  0.50000000000E+03 0.  1.
    -200001    1    1    2    0    0 -0.22139430125E+03  0.10778905007E+03  0.10422434500E+04  0.12794160094E+04  0.70000000000E+03 0. -1.
<mgrwt>
<rscale>  0 0.14851150E+04</rscale>
<asrwt>0</asrwt>
<pdfrwt beam="1">  1        2 0.33520384E+00 0.14851150E+04</pdfrwt>
<pdfrwt beam="2">  1       -2 0.33570292E-01 0.14851150E+04</pdfrwt>
<totfact> 0.42687312E+01</totfact>
</mgrwt>
</event>
<event>
 8    1  0.6876290E-010  0.2083330E+04  0.7818608E-02  0.8568622E-01
         -2   -1    0    0    0  501 -0.00000000000E+00  0.00000000000E+00  0.11329366590E+04  0.11329366590E+04  0.25500000000E-02 0. -1.
          2   -1    0    0  501    0  0.00000000000E+00 -0.00000000000E+00 -0.95774675485E+03  0.95774675485E+03  0.25500000000E-02 0.  1.
     200001    2    1    2    0    0 -0.48586823154E+03 -0.35544811538E+02  0.68805567322E+03  0.10955137453E+04  0.69957014275E+03 0.  0.
    5000001    2    3    3    0    0 -0.10884362040E+03 -0.75160728240E+02  0.28378141838E+03  0.34908581750E+03  0.15437922720E+03 0.  0.
        -11    1    4    4    0    0 -0.11446624428E+03 -0.30802859038E+02  0.26789131585E+03  0.29294554837E+03  0.51100000000E-03 0. -1.
     200002    1    4    4    0    0  0.56226238788E+01 -0.44357869202E+02  0.15890102534E+02  0.56140269130E+02  0.30000000000E+02 0. -1.
     200000    1    3    3    0    0 -0.37702461113E+03  0.39615916702E+02  0.40427425484E+03  0.74642792779E+03  0.50000000000E+03 0.  1.
    -200001    1    1    2    0    0  0.48586823154E+03  0.35544811538E+02 -0.51286576911E+03  0.99516966853E+03  0.70000000000E+03 0.  1.
<mgrwt>
<rscale>  0 0.20833304E+04</rscale>
<asrwt>0</asrwt>
<pdfrwt beam="1">  1        2 0.13682097E+00 0.20833304E+04</pdfrwt>
<pdfrwt beam="2">  1       -2 0.16184809E+00 0.20833304E+04</pdfrwt>
<totfact> 0.67505236E+00</totfact>
</mgrwt>
</event>
<event>
 8    1  0.6876290E-010  0.2874423E+04  0.7818608E-02  0.8280528E-01
          2   -1    0    0  501    0  0.00000000000E+00  0.00000000000E+00  0.32742546945E+04  0.32742546945E+04  0.25500000000E-02 0.  1.
         -2   -1    0    0    0  501 -0.00000000000E+00 -0.00000000000E+00 -0.63085392602E+03  0.63085392603E+03  0.25500000000E-02 0. -1.
     200001    2    1    2    0    0 -0.95041841008E+02 -0.96299619155E+03  0.24078600415E+04  0.26877861281E+04  0.70000691019E+03 0.  0.
    5000001    2    3    3    0    0  0.13280251079E+02 -0.25177245757E+03  0.55070340182E+03  0.63434909233E+03  0.18857040785E+03 0.  0.
        -11    1    4    4    0    0  0.95724166524E+02 -0.10672040899E+03  0.28782396391E+03  0.32155092280E+03  0.51100000000E-03 0. -1.
     200002    1    4    4    0    0 -0.82443915445E+02 -0.14505204858E+03  0.26287943790E+03  0.31279816953E+03  0.30000000000E+02 0. -1.
     200000    1    3    3    0    0 -0.10832209209E+03 -0.71122373399E+03  0.18571566397E+04  0.20534370357E+04  0.50000000000E+03 0.  1.
    -200001    1    1    2    0    0  0.95041841008E+02  0.96299619155E+03  0.23554072693E+03  0.12173224924E+04  0.70000000000E+03 0. -1.
<mgrwt>
<rscale>  0 0.28744227E+04</rscale>
<asrwt>0</asrwt>
<pdfrwt beam="1">  1        2 0.46775068E+00 0.28744227E+04</pdfrwt>
<pdfrwt beam="2">  1       -2 0.90121988E-01 0.28744227E+04</pdfrwt>
<totfact> 0.15048508E+00</totfact>
</mgrwt>
</event>
<event>
 8    1  0.6876290E-010  0.2008549E+04  0.7818608E-02  0.8602634E-01
          2   -1    0    0  501    0  0.00000000000E+00  0.00000000000E+00  0.10804819311E+04  0.10804819311E+04  0.25500000000E-02 0.  1.
         -2   -1    0    0    0  501 -0.00000000000E+00 -0.00000000000E+00 -0.93344194244E+03  0.93344194244E+03  0.25500000000E-02 0. -1.
     200001    2    1    2    0    0  0.14188087962E+03  0.42384866601E+03 -0.48944210293E+03  0.96755523460E+03  0.70486288327E+03 0.  0.
    5000001    2    3    3    0    0 -0.11423466693E+03  0.68599486254E+02 -0.89710162534E+02  0.19193756005E+03  0.10505553319E+03 0.  0.
        -11    1    4    4    0    0 -0.11522580042E+03  0.67571838323E+02 -0.51091950535E+02  0.14301512447E+03  0.51100000000E-03 0. -1.
     200002    1    4    4    0    0  0.99113348852E+00  0.10276479310E+01 -0.38618211999E+02  0.48922435588E+02  0.30000000000E+02 0. -1.
     200000    1    3    3    0    0  0.25611554655E+03  0.35524917976E+03 -0.39973194039E+03  0.77561767455E+03  0.50000000000E+03 0. -1.
    -200001    1    1    2    0    0 -0.14188087962E+03 -0.42384866601E+03  0.63648209163E+03  0.10463686390E+04  0.70000000000E+03 0.  1.
<mgrwt>
<rscale>  0 0.20085489E+04</rscale>
<asrwt>0</asrwt>
<pdfrwt beam="1">  1        2 0.15435456E+00 0.20085489E+04</pdfrwt>
<pdfrwt beam="2">  1       -2 0.13334885E+00 0.20085489E+04</pdfrwt>
<totfact> 0.95225376E+00</totfact>
</mgrwt>
</event>
<event>
 8    1  0.6876290E-010  0.1545171E+04  0.7818608E-02  0.8854958E-01
         -2   -1    0    0    0  501 -0.00000000000E+00  0.00000000000E+00  0.30319312740E+03  0.30319312741E+03  0.25500000000E-02 0. -1.
          2   -1    0    0  501    0  0.00000000000E+00 -0.00000000000E+00 -0.19686747558E+04  0.19686747558E+04  0.25500000000E-02 0.  1.
     200001    2    1    2    0    0 -0.22856531737E+03 -0.20606649129E+03 -0.99041827718E+03  0.12518600248E+04  0.70108462736E+03 0.  0.
    5000001    2    3    3    0    0 -0.73148512048E+01 -0.38874795252E+02 -0.95782193222E+02  0.19012627532E+03  0.15940205543E+03 0.  0.
        -11    1    4    4    0    0 -0.78205395142E+02 -0.16509457800E+02 -0.69054410830E+02  0.10562744758E+03  0.51100000000E-03 0. -1.
     200002    1    4    4    0    0  0.70890543937E+02 -0.22365337452E+02 -0.26727782392E+02  0.84498827747E+02  0.30000000000E+02 0. -1.
     200000    1    3    3    0    0 -0.22125046617E+03 -0.16719169603E+03 -0.89463608396E+03  0.10617337494E+04  0.50000000000E+03 0.  1.
    -200001    1    1    2    0    0  0.22856531737E+03  0.20606649129E+03 -0.67506335127E+03  0.10200078585E+04  0.70000000000E+03 0. -1.
<mgrwt>
<rscale>  0 0.15451714E+04</rscale>
<asrwt>0</asrwt>
<pdfrwt beam="1">  1        2 0.28123924E+00 0.15451714E+04</pdfrwt>
<pdfrwt beam="2">  1       -2 0.43313305E-01 0.15451714E+04</pdfrwt>
<totfact> 0.40590060E+01</totfact>
</mgrwt>
</event>
<event>
 8    1  0.6876290E-010  0.1678932E+04  0.7818608E-02  0.8773472E-01
         -2   -1    0    0    0  501 -0.00000000000E+00  0.00000000000E+00  0.41294069087E+03  0.41294069088E+03  0.25500000000E-02 0. -1.
          2   -1    0    0  501    0  0.00000000000E+00 -0.00000000000E+00 -0.17065480001E+04  0.17065480001E+04  0.25500000000E-02 0.  1.
     200001    2    1    2    0    0  0.45362817011E+03  0.59175632711E+02 -0.55237514416E+03  0.10020338173E+04  0.69976653171E+03 0.  0.
    5000001    2    3    3    0    0  0.20521039978E+03  0.98353375961E+00 -0.28090695357E+03  0.37850139032E+03  0.14913856105E+03 0.  0.
        -11    1    4    4    0    0  0.19135921573E+02  0.34551344094E+02 -0.11528555290E+01  0.39513389494E+02  0.51100000000E-03 0. -1.
     200002    1    4    4    0    0  0.18607447821E+03 -0.33567810335E+02 -0.27975409804E+03  0.33898800082E+03  0.30000000000E+02 0. -1.
     200000    1    3    3    0    0  0.24841777033E+03  0.58192098952E+02 -0.27146819059E+03  0.62353242698E+03  0.50000000000E+03 0.  1.
    -200001    1    1    2    0    0 -0.45362817011E+03 -0.59175632711E+02 -0.74123216511E+03  0.11174548737E+04  0.70000000000E+03 0.  1.
<mgrwt>
<rscale>  0 0.16789319E+04</rscale>
<asrwt>0</asrwt>
<pdfrwt beam="1">  1        2 0.24379257E+00 0.16789319E+04</pdfrwt>
<pdfrwt beam="2">  1       -2 0.58991528E-01 0.16789319E+04</pdfrwt>
<totfact> 0.29183576E+01</totfact>
</mgrwt>
</event>
<event>
 8    1  0.6876290E-010  0.1765408E+04  0.7818608E-02  0.8724914E-01
         -2   -1    0    0    0  501 -0.00000000000E+00  0.00000000000E+00  0.34306491058E+03  0.34306491059E+03  0.25500000000E-02 0. -1.
          2   -1    0    0  501    0  0.00000000000E+00 -0.00000000000E+00 -0.22711925253E+04  0.22711925253E+04  0.25500000000E-02 0.  1.
     200001    2    1    2    0    0 -0.20600514756E+03 -0.29453739044E+03 -0.37194169286E+03  0.87043834591E+03  0.70009420505E+03 0.  0.
    5000001    2    3    3    0    0 -0.62758817802E+02 -0.15914157409E+03 -0.12408268082E+03  0.27858901717E+03  0.18152305362E+03 0.  0.
        -11    1    4    4    0    0  0.18402483180E+02 -0.11539282340E+02  0.37446821326E+02  0.43290539980E+02  0.51100000000E-03 0. -1.
     200002    1    4    4    0    0 -0.81161300981E+02 -0.14760229175E+03 -0.16152950214E+03  0.23529847719E+03  0.30000000000E+02 0. -1.
     200000    1    3    3    0    0 -0.14324632975E+03 -0.13539581636E+03 -0.24785901204E+03  0.59184932873E+03  0.50000000000E+03 0. -1.
    -200001    1    1    2    0    0  0.20600514756E+03  0.29453739044E+03 -0.15561859219E+04  0.17438190900E+04  0.70000000000E+03 0.  1.
<mgrwt>
<rscale>  0 0.17654081E+04</rscale>
<asrwt>0</asrwt>
<pdfrwt beam="1">  1        2 0.32445607E+00 0.17654081E+04</pdfrwt>
<pdfrwt beam="2">  1       -2 0.49009274E-01 0.17654081E+04</pdfrwt>
<totfact> 0.21736561E+01</totfact>
</mgrwt>
</event>
<event>
 8    1  0.6876290E-010  0.2101902E+04  0.7818608E-02  0.8560406E-01
          2   -1    0    0  501    0  0.00000000000E+00  0.00000000000E+00  0.11073177275E+04  0.11073177275E+04  0.25500000000E-02 0.  1.
         -2   -1    0    0    0  501 -0.00000000000E+00 -0.00000000000E+00 -0.99745311372E+03  0.99745311372E+03  0.25500000000E-02 0. -1.
     200001    2    1    2    0    0 -0.36698920291E+02  0.10635240777E+03  0.83183471938E+03  0.10928921534E+04  0.69986185293E+03 0.  0.
    5000001    2    3    3    0    0 -0.61559028700E+02  0.49895675052E+02  0.29095389487E+03  0.35373218831E+03  0.18491403328E+03 0.  0.
        -11    1    4    4    0    0  0.60343508318E+02  0.16214300426E+02  0.14728847139E+03  0.15999417595E+03  0.51100000000E-03 0. -1.
     200002    1    4    4    0    0 -0.12190253702E+03  0.33681374626E+02  0.14366542349E+03  0.19373801236E+03  0.30000000000E+02 0. -1.
     200000    1    3    3    0    0  0.24860108410E+02  0.56456732716E+02  0.54088082451E+03  0.73915996508E+03  0.50000000000E+03 0.  1.
    -200001    1    1    2    0    0  0.36698920291E+02 -0.10635240777E+03 -0.72197010563E+03  0.10118786878E+04  0.70000000000E+03 0. -1.
<mgrwt>
<rscale>  0 0.21019015E+04</rscale>
<asrwt>0</asrwt>
<pdfrwt beam="1">  1        2 0.15818825E+00 0.21019015E+04</pdfrwt>
<pdfrwt beam="2">  1       -2 0.14249330E+00 0.21019015E+04</pdfrwt>
<totfact> 0.76781546E+00</totfact>
</mgrwt>
</event>
<event>
 8    1  0.6876290E-010  0.1794329E+04  0.7818608E-02  0.8709321E-01
          2   -1    0    0  501    0  0.00000000000E+00  0.00000000000E+00  0.28036310908E+04  0.28036310908E+04  0.25500000000E-02 0.  1.
         -2   -1    0    0    0  501 -0.00000000000E+00 -0.00000000000E+00 -0.28709331183E+03  0.28709331184E+03  0.25500000000E-02 0. -1.
     200001    2    1    2    0    0 -0.52555476888E+03  0.17391664634E+03  0.11042996905E+04  0.14201343172E+04  0.70060606446E+03 0.  0.
    5000001    2    3    3    0    0 -0.16342047631E+03  0.82563921413E+02  0.37201914735E+03  0.45799016998E+03  0.19450885997E+03 0.  0.
        -11    1    4    4    0    0 -0.15507150710E+03  0.73280838351E+02  0.38617227669E+03  0.42254737115E+03  0.51100000000E-03 0. -1.
     200002    1    4    4    0    0 -0.83489692144E+01  0.92830830619E+01 -0.14153129346E+02  0.35442798822E+02  0.30000000000E+02 0. -1.
     200000    1    3    3    0    0 -0.36213429257E+03  0.91352724931E+02  0.73228054318E+03  0.96214414727E+03  0.50000000000E+03 0.  1.
    -200001    1    1    2    0    0  0.52555476888E+03 -0.17391664634E+03  0.14122380884E+04  0.16705900854E+04  0.70000000000E+03 0. -1.
<mgrwt>
<rscale>  0 0.17943285E+04</rscale>
<asrwt>0</asrwt>
<pdfrwt beam="1">  1        2 0.40051875E+00 0.17943285E+04</pdfrwt>
<pdfrwt beam="2">  1       -2 0.41013328E-01 0.17943285E+04</pdfrwt>
<totfact> 0.16174842E+01</totfact>
</mgrwt>
</event>
<event>
 8    1  0.6876290E-010  0.1609868E+04  0.7818608E-02  0.8814509E-01
          2   -1    0    0  501    0  0.00000000000E+00  0.00000000000E+00  0.37871671572E+04  0.37871671572E+04  0.25500000000E-02 0.  1.
         -2   -1    0    0    0  501 -0.00000000000E+00 -0.00000000000E+00 -0.17108262165E+03  0.17108262167E+03  0.25500000000E-02 0. -1.
     200001    2    1    2    0    0  0.19982198314E+03  0.19762666292E+03  0.24987904681E+04  0.26101655249E+04  0.70001795741E+03 0.  0.
    5000001    2    3    3    0    0  0.23456239739E+01  0.23276634612E+02  0.81334080092E+03  0.83248855041E+03  0.17597336289E+03 0.  0.
        -11    1    4    4    0    0 -0.63871798042E+02  0.27127479157E+02  0.64957726124E+03  0.65327339226E+03  0.51100000000E-03 0. -1.
     200002    1    4    4    0    0  0.66217422016E+02 -0.38508445450E+01  0.16376353968E+03  0.17921515815E+03  0.30000000000E+02 0. -1.
     200000    1    3    3    0    0  0.19747635916E+03  0.17435002831E+03  0.16854496672E+04  0.17776769745E+04  0.50000000000E+03 0.  1.
    -200001    1    1    2    0    0 -0.19982198314E+03 -0.19762666292E+03  0.11172940674E+04  0.13480842540E+04  0.70000000000E+03 0. -1.
<mgrwt>
<rscale>  0 0.16098677E+04</rscale>
<asrwt>0</asrwt>
<pdfrwt beam="1">  1        2 0.54102387E+00 0.16098677E+04</pdfrwt>
<pdfrwt beam="2">  1       -2 0.24440375E-01 0.16098677E+04</pdfrwt>
<totfact> 0.11487463E+01</totfact>
</mgrwt>
</event>
<event>
 8    1  0.6876290E-010  0.1499529E+04  0.7818608E-02  0.8884766E-01
         -2   -1    0    0    0  501 -0.00000000000E+00  0.00000000000E+00  0.40119498713E+03  0.40119498714E+03  0.25500000000E-02 0. -1.
          2   -1    0    0  501    0  0.00000000000E+00 -0.00000000000E+00 -0.14011807317E+04  0.14011807317E+04  0.25500000000E-02 0.  1.
     200001    2    1    2    0    0  0.14979466713E+03  0.19787430021E+03 -0.62007974535E+03  0.96815677320E+03  0.70088227679E+03 0.  0.
    5000001    2    3    3    0    0  0.10012823024E+03  0.17509385437E+03 -0.14053851074E+03  0.27321397026E+03  0.11921107423E+03 0.  0.
        -11    1    4    4    0    0 -0.55896881450E+01  0.10044770477E+03 -0.72123668314E+02  0.12378533653E+03  0.51100000000E-03 0. -1.
     200002    1    4    4    0    0  0.10571791838E+03  0.74646149598E+02 -0.68414842424E+02  0.14942863374E+03  0.30000000000E+02 0. -1.
     200000    1    3    3    0    0  0.49666436892E+02  0.22780445839E+02 -0.47954123461E+03  0.69494280294E+03  0.50000000000E+03 0.  1.
    -200001    1    1    2    0    0 -0.14979466713E+03 -0.19787430021E+03 -0.37990599918E+03  0.83421894560E+03  0.70000000000E+03 0. -1.
<mgrwt>
<rscale>  0 0.14995288E+04</rscale>
<asrwt>0</asrwt>
<pdfrwt beam="1">  1        2 0.20016867E+00 0.14995288E+04</pdfrwt>
<pdfrwt beam="2">  1       -2 0.57313570E-01 0.14995288E+04</pdfrwt>
<totfact> 0.45600001E+01</totfact>
</mgrwt>
</event>
<event>
 8    1  0.6876290E-010  0.1789603E+04  0.7818608E-02  0.8711848E-01
          2   -1    0    0  501    0  0.00000000000E+00  0.00000000000E+00  0.64467429429E+03  0.64467429429E+03  0.25500000000E-02 0.  1.
         -2   -1    0    0    0  501 -0.00000000000E+00 -0.00000000000E+00 -0.12419758642E+04  0.12419758642E+04  0.25500000000E-02 0. -1.
     200001    2    1    2    0    0 -0.35597279187E+03 -0.31439338829E+03 -0.60562636849E+03  0.10407014997E+04  0.70051158595E+03 0.  0.
    5000001    2    3    3    0    0 -0.61215476327E+02 -0.39439418816E+02 -0.17397901917E+03  0.26687917215E+03  0.18881999660E+03 0.  0.
        -11    1    4    4    0    0  0.15486581545E+02 -0.97887292028E+02 -0.10615490579E+03  0.14522610017E+03  0.51100000000E-03 0. -1.
     200002    1    4    4    0    0 -0.76702057872E+02  0.58447873212E+02 -0.67824113384E+02  0.12165307198E+03  0.30000000000E+02 0. -1.
     200000    1    3    3    0    0 -0.29475731554E+03 -0.27495396948E+03 -0.43164734932E+03  0.77382232752E+03  0.50000000000E+03 0. -1.
    -200001    1    1    2    0    0  0.35597279187E+03  0.31439338829E+03  0.83247985498E+01  0.84594865886E+03  0.70000000000E+03 0.  1.
<mgrwt>
<rscale>  0 0.17896032E+04</rscale>
<asrwt>0</asrwt>
<pdfrwt beam="1">  1        2 0.92096328E-01 0.17896032E+04</pdfrwt>
<pdfrwt beam="2">  1       -2 0.17742512E+00 0.17896032E+04</pdfrwt>
<totfact> 0.89070586E+00</totfact>
</mgrwt>
</event>
<event>
 8    1  0.6876290E-010  0.1743023E+04  0.7818608E-02  0.8737200E-01
          2   -1    0    0  501    0  0.00000000000E+00  0.00000000000E+00  0.98751466829E+03  0.98751466829E+03  0.25500000000E-02 0.  1.
         -2   -1    0    0    0  501 -0.00000000000E+00 -0.00000000000E+00 -0.76913531574E+03  0.76913531575E+03  0.25500000000E-02 0. -1.
     200001    2    1    2    0    0 -0.39377713447E+03  0.32871730881E+03  0.19108789036E+03  0.88839868133E+03  0.69973004394E+03 0.  0.
    5000001    2    3    3    0    0 -0.59566705818E+02  0.56056715954E+02  0.18275877149E+03  0.22801259445E+03  0.10907991027E+03 0.  0.
        -11    1    4    4    0    0 -0.28945932700E+02 -0.21298045898E+02  0.16177221087E+02  0.39410357285E+02  0.51100000000E-03 0. -1.
     200002    1    4    4    0    0 -0.30620773118E+02  0.77354761852E+02  0.16658155041E+03  0.18860223716E+03  0.30000000000E+02 0. -1.
     200000    1    3    3    0    0 -0.33421042866E+03  0.27266059286E+03  0.83291188654E+01  0.66038608688E+03  0.50000000000E+03 0.  1.
    -200001    1    1    2    0    0  0.39377713447E+03 -0.32871730881E+03  0.27291462186E+02  0.86825130271E+03  0.70000000000E+03 0. -1.
<mgrwt>
<rscale>  0 0.17430231E+04</rscale>
<asrwt>0</asrwt>
<pdfrwt beam="1">  1        2 0.14107352E+00 0.17430231E+04</pdfrwt>
<pdfrwt beam="2">  1       -2 0.10987647E+00 0.17430231E+04</pdfrwt>
<totfact> 0.17917578E+01</totfact>
</mgrwt>
</event>
<event>
 8    1  0.6876290E-010  0.2234811E+04  0.7818608E-02  0.8504077E-01
          2   -1    0    0  501    0  0.00000000000E+00  0.00000000000E+00  0.20407227667E+04  0.20407227667E+04  0.25500000000E-02 0.  1.
         -2   -1    0    0    0  501 -0.00000000000E+00 -0.00000000000E+00 -0.61183944452E+03  0.61183944452E+03  0.25500000000E-02 0. -1.
     200001    2    1    2    0    0 -0.86628968817E+03  0.90915305722E+00  0.55537762996E+03  0.12371220518E+04  0.68670809584E+03 0.  0.
    5000001    2    3    3    0    0 -0.21684807349E+03  0.63977046865E+02  0.98091581639E+02  0.29645074894E+03  0.16475721124E+03 0.  0.
        -11    1    4    4    0    0 -0.15697931007E+03  0.47162391057E+02 -0.14313246293E+02  0.16453468917E+03  0.51100000000E-03 0. -1.
     200002    1    4    4    0    0 -0.59868763421E+02  0.16814655808E+02  0.11240482793E+03  0.13191605977E+03  0.30000000000E+02 0. -1.
     200000    1    3    3    0    0 -0.64944161468E+03 -0.63067893808E+02  0.45728604832E+03  0.94067130290E+03  0.50000000000E+03 0. -1.
    -200001    1    1    2    0    0  0.86628968817E+03 -0.90915305722E+00  0.87350569218E+03  0.14154401593E+04  0.70000000000E+03 0.  1.
<mgrwt>
<rscale>  0 0.22348107E+04</rscale>
<asrwt>0</asrwt>
<pdfrwt beam="1">  1        2 0.29153182E+00 0.22348107E+04</pdfrwt>
<pdfrwt beam="2">  1       -2 0.87405636E-01 0.22348107E+04</pdfrwt>
<totfact> 0.79134508E+00</totfact>
</mgrwt>
</event>
<event>
 8    1  0.6876290E-010  0.2204711E+04  0.7818608E-02  0.8516470E-01
         -2   -1    0    0    0  501 -0.00000000000E+00  0.00000000000E+00  0.18060733673E+04  0.18060733673E+04  0.25500000000E-02 0. -1.
          2   -1    0    0  501    0  0.00000000000E+00 -0.00000000000E+00 -0.67283405964E+03  0.67283405964E+03  0.25500000000E-02 0.  1.
     200001    2    1    2    0    0  0.33074530309E+02 -0.51406884819E+03 -0.19585307273E+03  0.89087491441E+03  0.69995641421E+03 0.  0.
    5000001    2    3    3    0    0 -0.15645113707E+02 -0.17255210253E+03 -0.75762223546E+02  0.27165839062E+03  0.19503684012E+03 0.  0.
        -11    1    4    4    0    0  0.44934291087E+02 -0.51320039171E+02  0.49824685906E+02  0.84470919623E+02  0.51100000000E-03 0. -1.
     200002    1    4    4    0    0 -0.60579404794E+02 -0.12123206336E+03 -0.12558690945E+03  0.18718747100E+03  0.30000000000E+02 0. -1.
     200000    1    3    3    0    0  0.48719644016E+02 -0.34151674565E+03 -0.12009084918E+03  0.61921652379E+03  0.50000000000E+03 0.  1.
    -200001    1    1    2    0    0 -0.33074530309E+02  0.51406884819E+03  0.13290923804E+04  0.15880325125E+04  0.70000000000E+03 0. -1.
<mgrwt>
<rscale>  0 0.22047110E+04</rscale>
<asrwt>0</asrwt>
<pdfrwt beam="1">  1        2 0.96119152E-01 0.22047110E+04</pdfrwt>
<pdfrwt beam="2">  1       -2 0.25801048E+00 0.22047110E+04</pdfrwt>
<totfact> 0.24872815E+00</totfact>
</mgrwt>
</event>
<event>
 8    1  0.6876290E-010  0.1518964E+04  0.7818608E-02  0.8871939E-01
         -2   -1    0    0    0  501 -0.00000000000E+00  0.00000000000E+00  0.20678923966E+03  0.20678923967E+03  0.25500000000E-02 0. -1.
          2   -1    0    0  501    0  0.00000000000E+00 -0.00000000000E+00 -0.27893770157E+04  0.27893770157E+04  0.25500000000E-02 0.  1.
     200001    2    1    2    0    0 -0.28615181035E+02 -0.28844763140E+03 -0.11849168685E+04  0.14063534267E+04  0.69984363303E+03 0.  0.
    5000001    2    3    3    0    0 -0.59492639364E+02 -0.11838291996E+03 -0.32440927464E+03  0.39623029423E+03  0.18494101416E+03 0.  0.
        -11    1    4    4    0    0 -0.10432720233E+03 -0.87825089286E+02 -0.11677696781E+03  0.17953905332E+03  0.51100000000E-03 0. -1.
     200002    1    4    4    0    0  0.44834562964E+02 -0.30557830669E+02 -0.20763230683E+03  0.21669124092E+03  0.30000000000E+02 0. -1.
     200000    1    3    3    0    0  0.30877458329E+02 -0.17006471144E+03 -0.86050759390E+03  0.10101231324E+04  0.50000000000E+03 0.  1.
    -200001    1    1    2    0    0  0.28615181035E+02  0.28844763140E+03 -0.13976709075E+04  0.15898128287E+04  0.70000000000E+03 0. -1.
<mgrwt>
<rscale>  0 0.15189643E+04</rscale>
<asrwt>0</asrwt>
<pdfrwt beam="1">  1        2 0.39848241E+00 0.15189643E+04</pdfrwt>
<pdfrwt beam="2">  1       -2 0.29541322E-01 0.15189643E+04</pdfrwt>
<totfact> 0.31546324E+01</totfact>
</mgrwt>
</event>
<event>
 8    1  0.6876290E-010  0.2133762E+04  0.7818608E-02  0.8546515E-01
          2   -1    0    0  501    0  0.00000000000E+00  0.00000000000E+00  0.12246279651E+04  0.12246279651E+04  0.25500000000E-02 0.  1.
         -2   -1    0    0    0  501 -0.00000000000E+00 -0.00000000000E+00 -0.92945418083E+03  0.92945418083E+03  0.25500000000E-02 0. -1.
     200001    2    1    2    0    0  0.48286205669E+03  0.55455083947E+03 -0.17903431361E+03  0.10335663185E+04  0.70393440745E+03 0.  0.
    5000001    2    3    3    0    0  0.14994753240E+03  0.15820929504E+03 -0.16257580988E+03  0.31371245650E+03  0.15642943424E+03 0.  0.
        -11    1    4    4    0    0  0.95473880818E+02  0.14930584346E+03 -0.48919514316E+02  0.18384943756E+03  0.51100000000E-03 0. -1.
     200002    1    4    4    0    0  0.54473651581E+02  0.89034515826E+01 -0.11365629557E+03  0.12986301894E+03  0.30000000000E+02 0. -1.
     200000    1    3    3    0    0  0.33291452429E+03  0.39634154442E+03 -0.16458503722E+02  0.71985386202E+03  0.50000000000E+03 0. -1.
    -200001    1    1    2    0    0 -0.48286205669E+03 -0.55455083947E+03  0.47420809784E+03  0.11205158274E+04  0.70000000000E+03 0.  1.
<mgrwt>
<rscale>  0 0.21337625E+04</rscale>
<asrwt>0</asrwt>
<pdfrwt beam="1">  1        2 0.17494685E+00 0.21337625E+04</pdfrwt>
<pdfrwt beam="2">  1       -2 0.13277917E+00 0.21337625E+04</pdfrwt>
<totfact> 0.78630329E+00</totfact>
</mgrwt>
</event>
<event>
 8    1  0.6876290E-010  0.1641144E+04  0.7818608E-02  0.8795663E-01
         -2   -1    0    0    0  501 -0.00000000000E+00  0.00000000000E+00  0.30862724391E+03  0.30862724392E+03  0.25500000000E-02 0. -1.
          2   -1    0    0  501    0  0.00000000000E+00 -0.00000000000E+00 -0.21817211404E+04  0.21817211404E+04  0.25500000000E-02 0.  1.
     200001    2    1    2    0    0  0.25569993011E+02 -0.11478971951E+03 -0.15615946181E+04  0.17151952997E+04  0.69963323274E+03 0.  0.
    5000001    2    3    3    0    0 -0.38786118439E+02 -0.76260709963E+02 -0.41062163325E+03  0.45806960763E+03  0.18411295682E+03 0.  0.
        -11    1    4    4    0    0  0.61509816304E+02 -0.76002999713E+02 -0.18135636538E+03  0.20603408633E+03  0.51100000000E-03 0. -1.
     200002    1    4    4    0    0 -0.10029593474E+03 -0.25771024987E+00 -0.22926526788E+03  0.25203552130E+03  0.30000000000E+02 0. -1.
     200000    1    3    3    0    0  0.64356111450E+02 -0.38529009549E+02 -0.11509729849E+04  0.12571256920E+04  0.50000000000E+03 0.  1.
    -200001    1    1    2    0    0 -0.25569993011E+02  0.11478971951E+03 -0.31149927838E+03  0.77515308467E+03  0.70000000000E+03 0. -1.
<mgrwt>
<rscale>  0 0.16411442E+04</rscale>
<asrwt>0</asrwt>
<pdfrwt beam="1">  1        2 0.31167444E+00 0.16411442E+04</pdfrwt>
<pdfrwt beam="2">  1       -2 0.44089607E-01 0.16411442E+04</pdfrwt>
<totfact> 0.30211043E+01</totfact>
</mgrwt>
</event>
<event>
 8    1  0.6876290E-010  0.2413181E+04  0.7818608E-02  0.8434585E-01
          2   -1    0    0  501    0  0.00000000000E+00  0.00000000000E+00  0.35133728477E+04  0.35133728477E+04  0.25500000000E-02 0.  1.
         -2   -1    0    0    0  501 -0.00000000000E+00 -0.00000000000E+00 -0.41437698817E+03  0.41437698818E+03  0.25500000000E-02 0. -1.
     200001    2    1    2    0    0 -0.62933785554E+03  0.25723777899E+03  0.27047119379E+04  0.28752778780E+04  0.69965619920E+03 0.  0.
    5000001    2    3    3    0    0 -0.82944740555E+02  0.19558344202E+02  0.79983573065E+03  0.81770884757E+03  0.14713328843E+03 0.  0.
        -11    1    4    4    0    0 -0.61576091984E+02  0.56005448986E+02  0.70273422443E+03  0.70764653296E+03  0.51100000000E-03 0. -1.
     200002    1    4    4    0    0 -0.21368648570E+02 -0.36447104783E+02  0.97101506211E+02  0.11006231461E+03  0.30000000000E+02 0. -1.
     200000    1    3    3    0    0 -0.54639311499E+03  0.23767943479E+03  0.19048762073E+04  0.20575690304E+04  0.50000000000E+03 0.  1.
    -200001    1    1    2    0    0  0.62933785554E+03 -0.25723777899E+03  0.39428392162E+03  0.10524719579E+04  0.70000000000E+03 0. -1.
<mgrwt>
<rscale>  0 0.24131812E+04</rscale>
<asrwt>0</asrwt>
<pdfrwt beam="1">  1        2 0.50191041E+00 0.24131812E+04</pdfrwt>
<pdfrwt beam="2">  1       -2 0.59196712E-01 0.24131812E+04</pdfrwt>
<totfact> 0.28394489E+00</totfact>
</mgrwt>
</event>
<event>
 8    1  0.6876290E-010  0.1819645E+04  0.7818608E-02  0.8695922E-01
          2   -1    0    0  501    0  0.00000000000E+00  0.00000000000E+00  0.27082311813E+04  0.27082311813E+04  0.25500000000E-02 0.  1.
         -2   -1    0    0    0  501 -0.00000000000E+00 -0.00000000000E+00 -0.30565229304E+03  0.30565229305E+03  0.25500000000E-02 0. -1.
     200001    2    1    2    0    0  0.29821688924E+03  0.29375996696E+03  0.18639461340E+04  0.20364616232E+04  0.70544490996E+03 0.  0.
    5000001    2    3    3    0    0  0.10876324065E+03  0.64749649170E+02  0.52159762018E+03  0.57350641430E+03  0.20204843548E+03 0.  0.
        -11    1    4    4    0    0 -0.26941655812E+02  0.11108449272E+02 -0.19200389275E+01  0.29205085393E+02  0.51100000000E-03 0. -1.
     200002    1    4    4    0    0  0.13570489646E+03  0.53641199899E+02  0.52351765910E+03  0.54430132890E+03  0.30000000000E+02 0. -1.
     200000    1    3    3    0    0  0.18945364860E+03  0.22901031779E+03  0.13423485138E+04  0.14629552089E+04  0.50000000000E+03 0.  1.
    -200001    1    1    2    0    0 -0.29821688924E+03 -0.29375996696E+03  0.53863275430E+03  0.97742185121E+03  0.70000000000E+03 0. -1.
<mgrwt>
<rscale>  0 0.18196451E+04</rscale>
<asrwt>0</asrwt>
<pdfrwt beam="1">  1        2 0.38689019E+00 0.18196451E+04</pdfrwt>
<pdfrwt beam="2">  1       -2 0.43664611E-01 0.18196451E+04</pdfrwt>
<totfact> 0.16059424E+01</totfact>
</mgrwt>
</event>
<event>
 8    1  0.6876290E-010  0.1548593E+04  0.7818608E-02  0.8852767E-01
         -2   -1    0    0    0  501 -0.00000000000E+00  0.00000000000E+00  0.11736951307E+04  0.11736951307E+04  0.25500000000E-02 0. -1.
          2   -1    0    0  501    0  0.00000000000E+00 -0.00000000000E+00 -0.51080998118E+03  0.51080998119E+03  0.25500000000E-02 0.  1.
     200001    2    1    2    0    0 -0.28250715087E+03 -0.16684065783E+03  0.28353375098E+03  0.82337005922E+03  0.69992911861E+03 0.  0.
    5000001    2    3    3    0    0  0.23580265840E+02 -0.37679834720E+02  0.77626599961E+02  0.18872860159E+03  0.16618302307E+03 0.  0.
        -11    1    4    4    0    0  0.41173561119E+02  0.43956283819E+02 -0.13299824018E+02  0.61679026756E+02  0.51100000000E-03 0. -1.
     200002    1    4    4    0    0 -0.17593295279E+02 -0.81636118539E+02  0.90926423978E+02  0.12704957484E+03  0.30000000000E+02 0. -1.
     200000    1    3    3    0    0 -0.30608741671E+03 -0.12916082311E+03  0.20590715102E+03  0.63464145762E+03  0.50000000000E+03 0. -1.
    -200001    1    1    2    0    0  0.28250715087E+03  0.16684065783E+03  0.37935139855E+03  0.86113505269E+03  0.70000000000E+03 0.  1.
<mgrwt>
<rscale>  0 0.15485932E+04</rscale>
<asrwt>0</asrwt>
<pdfrwt beam="1">  1        2 0.72972856E-01 0.15485932E+04</pdfrwt>
<pdfrwt beam="2">  1       -2 0.16767073E+00 0.15485932E+04</pdfrwt>
<totfact> 0.13983447E+01</totfact>
</mgrwt>
</event>
<event>
 8    1  0.6876290E-010  0.1408618E+04  0.7818608E-02  0.8947604E-01
          2   -1    0    0  501    0  0.00000000000E+00  0.00000000000E+00  0.34338542111E+04  0.34338542111E+04  0.25500000000E-02 0.  1.
         -2   -1    0    0    0  501 -0.00000000000E+00 -0.00000000000E+00 -0.14445902245E+03  0.14445902248E+03  0.25500000000E-02 0. -1.
     200001    2    1    2    0    0 -0.50535166008E+02  0.10952826827E+02  0.18096276688E+04  0.19405141982E+04  0.69869112373E+03 0.  0.
    5000001    2    3    3    0    0 -0.48100376034E+02 -0.25906352123E+02  0.34280979920E+03  0.39037898158E+03  0.17858444943E+03 0.  0.
        -11    1    4    4    0    0  0.30233252831E+02 -0.81320329012E+01  0.28557778071E+03  0.28728878915E+03  0.51100000000E-03 0. -1.
     200002    1    4    4    0    0 -0.78333628865E+02 -0.17774319221E+02  0.57232018489E+02  0.10309019243E+03  0.30000000000E+02 0. -1.
     200000    1    3    3    0    0 -0.24347899737E+01  0.36859178949E+02  0.14668178696E+04  0.15501352167E+04  0.50000000000E+03 0.  1.
    -200001    1    1    2    0    0  0.50535166008E+02 -0.10952826827E+02  0.14797675198E+04  0.16377990353E+04  0.70000000000E+03 0. -1.
<mgrwt>
<rscale>  0 0.14086181E+04</rscale>
<asrwt>0</asrwt>
<pdfrwt beam="1">  1        2 0.49055058E+00 0.14086181E+04</pdfrwt>
<pdfrwt beam="2">  1       -2 0.20637004E-01 0.14086181E+04</pdfrwt>
<totfact> 0.26288332E+01</totfact>
</mgrwt>
</event>
<event>
 8    1  0.6876290E-010  0.2125526E+04  0.7818608E-02  0.8550081E-01
         -2   -1    0    0    0  501 -0.00000000000E+00  0.00000000000E+00  0.72836850530E+03  0.72836850531E+03  0.25500000000E-02 0. -1.
          2   -1    0    0  501    0  0.00000000000E+00 -0.00000000000E+00 -0.15506787260E+04  0.15506787260E+04  0.25500000000E-02 0.  1.
     200001    2    1    2    0    0  0.36079143448E+03 -0.64237661715E+03 -0.77050521924E+02  0.10187971783E+04  0.69942314100E+03 0.  0.
    5000001    2    3    3    0    0  0.63312761809E+02 -0.87881767687E+02 -0.19602869842E+02  0.21303149805E+03  0.18239088726E+03 0.  0.
        -11    1    4    4    0    0 -0.35560151202E+02  0.20596974431E+02  0.34595123756E+02  0.53717616265E+02  0.51100000000E-03 0. -1.
     200002    1    4    4    0    0  0.98872913011E+02 -0.10847874212E+03 -0.54197993598E+02  0.15931388178E+03  0.30000000000E+02 0. -1.
     200000    1    3    3    0    0  0.29747867267E+03 -0.55449484947E+03 -0.57447652082E+02  0.80576568027E+03  0.50000000000E+03 0. -1.
    -200001    1    1    2    0    0 -0.36079143448E+03  0.64237661715E+03 -0.74525969880E+03  0.12602500530E+04  0.70000000000E+03 0. -1.
<mgrwt>
<rscale>  0 0.21255263E+04</rscale>
<asrwt>0</asrwt>
<pdfrwt beam="1">  1        2 0.22152553E+00 0.21255263E+04</pdfrwt>
<pdfrwt beam="2">  1       -2 0.10405264E+00 0.21255263E+04</pdfrwt>
<totfact> 0.95369549E+00</totfact>
</mgrwt>
</event>
<event>
 8    1  0.6876290E-010  0.1567327E+04  0.7818608E-02  0.8840876E-01
          2   -1    0    0  501    0  0.00000000000E+00  0.00000000000E+00  0.10049843518E+04  0.10049843518E+04  0.25500000000E-02 0.  1.
         -2   -1    0    0    0  501 -0.00000000000E+00 -0.00000000000E+00 -0.61108252200E+03  0.61108252200E+03  0.25500000000E-02 0. -1.
     200001    2    1    2    0    0  0.14913037942E+03  0.22884580356E+03  0.42753002702E+03  0.86390922571E+03  0.69924742001E+03 0.  0.
    5000001    2    3    3    0    0 -0.43775460533E+02 -0.18482904177E+02 -0.29371511606E+01  0.13337096918E+03  0.12458442869E+03 0.  0.
        -11    1    4    4    0    0 -0.42306915037E+02 -0.39447561457E+02  0.44825558562E+02  0.73180023678E+02  0.51100000000E-03 0. -1.
     200002    1    4    4    0    0 -0.14685454958E+01  0.20964657279E+02 -0.47762709723E+02  0.60190945505E+02  0.30000000000E+02 0. -1.
     200000    1    3    3    0    0  0.19290583996E+03  0.24732870773E+03  0.43046717818E+03  0.73053825653E+03  0.50000000000E+03 0. -1.
    -200001    1    1    2    0    0 -0.14913037942E+03 -0.22884580356E+03 -0.33628197257E+02  0.75215764805E+03  0.70000000000E+03 0. -1.
<mgrwt>
<rscale>  0 0.15673269E+04</rscale>
<asrwt>0</asrwt>
<pdfrwt beam="1">  1        2 0.14356919E+00 0.15673269E+04</pdfrwt>
<pdfrwt beam="2">  1       -2 0.87297503E-01 0.15673269E+04</pdfrwt>
<totfact> 0.30462261E+01</totfact>
</mgrwt>
</event>
<event>
 8    1  0.6876290E-010  0.2107316E+04  0.7818608E-02  0.8558028E-01
         -2   -1    0    0    0  501 -0.00000000000E+00  0.00000000000E+00  0.56529605236E+03  0.56529605237E+03  0.25500000000E-02 0. -1.
          2   -1    0    0  501    0  0.00000000000E+00 -0.00000000000E+00 -0.19639178280E+04  0.19639178280E+04  0.25500000000E-02 0.  1.
     200001    2    1    2    0    0  0.78551683145E+03  0.30145893864E+02 -0.75371601895E+03  0.12947711306E+04  0.70028492494E+03 0.  0.
    5000001    2    3    3    0    0  0.31670877853E+03 -0.31022561542E+02 -0.18394764898E+03  0.40137392568E+03  0.16123721940E+03 0.  0.
        -11    1    4    4    0    0  0.23522118703E+03  0.74829277832E+01 -0.19515062312E+03  0.30572662092E+03  0.51100000000E-03 0. -1.
     200002    1    4    4    0    0  0.81487591507E+02 -0.38505489325E+02  0.11202974135E+02  0.95647304757E+02  0.30000000000E+02 0. -1.
     200000    1    3    3    0    0  0.46880805292E+03  0.61168455406E+02 -0.56976836997E+03  0.89339720496E+03  0.50000000000E+03 0.  1.
    -200001    1    1    2    0    0 -0.78551683145E+03 -0.30145893864E+02 -0.64490575672E+03  0.12344427498E+04  0.70000000000E+03 0. -1.
<mgrwt>
<rscale>  0 0.21073158E+04</rscale>
<asrwt>0</asrwt>
<pdfrwt beam="1">  1        2 0.28055969E+00 0.21073158E+04</pdfrwt>
<pdfrwt beam="2">  1       -2 0.80756580E-01 0.21073158E+04</pdfrwt>
<totfact> 0.10481761E+01</totfact>
</mgrwt>
</event>
<event>
 8    1  0.6876290E-010  0.2046581E+04  0.7818608E-02  0.8585147E-01
         -2   -1    0    0    0  501 -0.00000000000E+00  0.00000000000E+00  0.61856471579E+03  0.61856471580E+03  0.25500000000E-02 0. -1.
          2   -1    0    0  501    0  0.00000000000E+00 -0.00000000000E+00 -0.16928270502E+04  0.16928270502E+04  0.25500000000E-02 0.  1.
     200001    2    1    2    0    0 -0.35407865864E+03 -0.44950014214E+03 -0.10777875138E+04  0.14072709217E+04  0.70097321476E+03 0.  0.
    5000001    2    3    3    0    0 -0.61369362200E+02 -0.20858419399E+03 -0.33043557690E+03  0.43143582091E+03  0.17226616757E+03 0.  0.
        -11    1    4    4    0    0 -0.31967012271E+02 -0.24563347075E+02  0.10568818210E+02  0.41676705864E+02  0.51100000000E-03 0. -1.
     200002    1    4    4    0    0 -0.29402349930E+02 -0.18402084691E+03 -0.34100439511E+03  0.38975911505E+03  0.30000000000E+02 0. -1.
     200000    1    3    3    0    0 -0.29270929644E+03 -0.24091594815E+03 -0.74735193689E+03  0.97583510076E+03  0.50000000000E+03 0.  1.
    -200001    1    1    2    0    0  0.35407865864E+03  0.44950014214E+03  0.35251793672E+01  0.90412084434E+03  0.70000000000E+03 0. -1.
<mgrwt>
<rscale>  0 0.20465806E+04</rscale>
<asrwt>0</asrwt>
<pdfrwt beam="1">  1        2 0.24183243E+00 0.20465806E+04</pdfrwt>
<pdfrwt beam="2">  1       -2 0.88366388E-01 0.20465806E+04</pdfrwt>
<totfact> 0.11854419E+01</totfact>
</mgrwt>
</event>
<event>
 8    1  0.6876290E-010  0.1809324E+04  0.7818608E-02  0.8701357E-01
         -2   -1    0    0    0  501 -0.00000000000E+00  0.00000000000E+00  0.14105470797E+04  0.14105470797E+04  0.25500000000E-02 0.  1.
          2   -1    0    0  501    0  0.00000000000E+00 -0.00000000000E+00 -0.58020966407E+03  0.58020966408E+03  0.25500000000E-02 0. -1.
     200001    2    1    2    0    0  0.35690882069E+03 -0.22705507908E+03 -0.15887552719E+01  0.82412095270E+03  0.70727286482E+03 0.  0.
    5000001    2    3    3    0    0  0.23240822036E+03 -0.11660908976E+03  0.44190805733E+02  0.29516492027E+03  0.13250751729E+03 0.  0.
        -11    1    4    4    0    0  0.11082522824E+03 -0.90257683254E+02  0.77966059714E+02  0.16281089358E+03  0.51100000000E-03 0. -1.
     200002    1    4    4    0    0  0.12158299213E+03 -0.26351406505E+02 -0.33775253982E+02  0.13235402669E+03  0.30000000000E+02 0. -1.
     200000    1    3    3    0    0  0.12450060033E+03 -0.11044598932E+03 -0.45779561005E+02  0.52895603243E+03  0.50000000000E+03 0. -1.
    -200001    1    1    2    0    0 -0.35690882069E+03  0.22705507908E+03  0.83192617092E+03  0.11666357911E+04  0.70000000000E+03 0.  1.
<mgrwt>
<rscale>  0 0.18093237E+04</rscale>
<asrwt>0</asrwt>
<pdfrwt beam="1">  1        2 0.82887096E-01 0.18093237E+04</pdfrwt>
<pdfrwt beam="2">  1       -2 0.20150672E+00 0.18093237E+04</pdfrwt>
<totfact> 0.69396453E+00</totfact>
</mgrwt>
</event>
<event>
 8    1  0.6876290E-010  0.1530273E+04  0.7818608E-02  0.8864567E-01
         -2   -1    0    0    0  501 -0.00000000000E+00  0.00000000000E+00  0.10610417194E+04  0.10610417194E+04  0.25500000000E-02 0. -1.
          2   -1    0    0  501    0  0.00000000000E+00 -0.00000000000E+00 -0.55175400357E+03  0.55175400358E+03  0.25500000000E-02 0.  1.
     200001    2    1    2    0    0 -0.35765598477E+02  0.27110033176E+03  0.11132249914E+03  0.76241293762E+03  0.70292689572E+03 0.  0.
    5000001    2    3    3    0    0  0.42046651878E+02  0.17513206402E+02 -0.53371105467E+02  0.17293421888E+03  0.15806054482E+03 0.  0.
        -11    1    4    4    0    0  0.63315294985E+02  0.48061101282E+02  0.23073752740E+02  0.82771336229E+02  0.51100000000E-03 0. -1.
     200002    1    4    4    0    0 -0.21268643107E+02 -0.30547894880E+02 -0.76444858208E+02  0.90162882649E+02  0.30000000000E+02 0. -1.
     200000    1    3    3    0    0 -0.77812250354E+02  0.25358712536E+03  0.16469360461E+03  0.58947871874E+03  0.50000000000E+03 0. -1.
    -200001    1    1    2    0    0  0.35765598477E+02 -0.27110033176E+03  0.39796521666E+03  0.85038278533E+03  0.70000000000E+03 0. -1.
<mgrwt>
<rscale>  0 0.15302732E+04</rscale>
<asrwt>0</asrwt>
<pdfrwt beam="1">  1        2 0.78822000E-01 0.15302732E+04</pdfrwt>
<pdfrwt beam="2">  1       -2 0.15157739E+00 0.15302732E+04</pdfrwt>
<totfact> 0.16849501E+01</totfact>
</mgrwt>
</event>
<event>
 8    1  0.6876290E-010  0.2215542E+04  0.7818608E-02  0.8511987E-01
          2   -1    0    0  501    0  0.00000000000E+00  0.00000000000E+00  0.22731897097E+04  0.22731897097E+04  0.25500000000E-02 0.  1.
         -2   -1    0    0    0  501 -0.00000000000E+00 -0.00000000000E+00 -0.53983922410E+03  0.53983922410E+03  0.25500000000E-02 0. -1.
     200001    2    1    2    0    0 -0.13089983343E+03 -0.61224805636E+03  0.12145011625E+03  0.94749811132E+03  0.70072825782E+03 0.  0.
    5000001    2    3    3    0    0 -0.10037300261E+03 -0.18328459712E+03  0.35461305976E+02  0.28241494941E+03  0.18663524917E+03 0.  0.
        -11    1    4    4    0    0 -0.13425674489E+03 -0.13507377469E+03  0.75778860957E+02  0.20496886087E+03  0.51100000000E-03 0. -1.
     200002    1    4    4    0    0  0.33883742280E+02 -0.48210822433E+02 -0.40317554981E+02  0.77446088541E+02  0.30000000000E+02 0. -1.
     200000    1    3    3    0    0 -0.30526830818E+02 -0.42896345924E+03  0.85988810277E+02  0.66508316191E+03  0.50000000000E+03 0. -1.
    -200001    1    1    2    0    0  0.13089983343E+03  0.61224805636E+03  0.16119003694E+04  0.18655308225E+04  0.70000000000E+03 0.  1.
<mgrwt>
<rscale>  0 0.22155423E+04</rscale>
<asrwt>0</asrwt>
<pdfrwt beam="1">  1        2 0.32474139E+00 0.22155423E+04</pdfrwt>
<pdfrwt beam="2">  1       -2 0.77119888E-01 0.22155423E+04</pdfrwt>
<totfact> 0.79744401E+00</totfact>
</mgrwt>
</event>
<event>
 8    1  0.6876290E-010  0.1505674E+04  0.7818608E-02  0.8880689E-01
          2   -1    0    0  501    0  0.00000000000E+00  0.00000000000E+00  0.99432722485E+03  0.99432722485E+03  0.25500000000E-02 0.  1.
         -2   -1    0    0    0  501 -0.00000000000E+00 -0.00000000000E+00 -0.56999687964E+03  0.56999687965E+03  0.25500000000E-02 0. -1.
     200001    2    1    2    0    0 -0.11911406755E+03  0.16170162737E+03  0.40444657003E+03  0.83581127558E+03  0.70332629910E+03 0.  0.
    5000001    2    3    3    0    0  0.23916186379E+02  0.96845108534E+02  0.49923556265E+02  0.20307863942E+03  0.16969859546E+03 0.  0.
        -11    1    4    4    0    0  0.23313714710E+02 -0.18521180153E+02  0.75501637497E+02  0.81160708923E+02  0.51100000000E-03 0. -1.
     200002    1    4    4    0    0  0.60247166909E+00  0.11536628869E+03 -0.25578081232E+02  0.12191793050E+03  0.30000000000E+02 0. -1.
     200000    1    3    3    0    0 -0.14303025393E+03  0.64856518831E+02  0.35452301377E+03  0.63273263616E+03  0.50000000000E+03 0.  1.
    -200001    1    1    2    0    0  0.11911406755E+03 -0.16170162737E+03  0.19883775169E+02  0.72851282892E+03  0.70000000000E+03 0.  1.
<mgrwt>
<rscale>  0 0.15056738E+04</rscale>
<asrwt>0</asrwt>
<pdfrwt beam="1">  1        2 0.14204675E+00 0.15056738E+04</pdfrwt>
<pdfrwt beam="2">  1       -2 0.81428126E-01 0.15056738E+04</pdfrwt>
<totfact> 0.36396816E+01</totfact>
</mgrwt>
</event>
<event>
 8    1  0.6876290E-010  0.1709216E+04  0.7818608E-02  0.8756125E-01
          2   -1    0    0  501    0  0.00000000000E+00  0.00000000000E+00  0.18972129422E+04  0.18972129422E+04  0.25500000000E-02 0.  1.
         -2   -1    0    0    0  501 -0.00000000000E+00 -0.00000000000E+00 -0.38496218769E+03  0.38496218769E+03  0.25500000000E-02 0. -1.
     200001    2    1    2    0    0 -0.47362877447E+03  0.13292136935E+03  0.78647387260E+03  0.11602373470E+04  0.69686242732E+03 0.  0.
    5000001    2    3    3    0    0 -0.15803337756E+03  0.35473923946E+02  0.12401431651E+03  0.26695736701E+03  0.17220260567E+03 0.  0.
        -11    1    4    4    0    0 -0.12438089286E+03 -0.47208494744E+02  0.35450279676E+02  0.13768068424E+03  0.51100000000E-03 0. -1.
     200002    1    4    4    0    0 -0.33652484699E+02  0.82682418690E+02  0.88564036837E+02  0.12927668277E+03  0.30000000000E+02 0. -1.
     200000    1    3    3    0    0 -0.31559539692E+03  0.97447445404E+02  0.66245955609E+03  0.89327997997E+03  0.50000000000E+03 0. -1.
    -200001    1    1    2    0    0  0.47362877447E+03 -0.13292136935E+03  0.72577688196E+03  0.11219377830E+04  0.70000000000E+03 0.  1.
<mgrwt>
<rscale>  0 0.17092165E+04</rscale>
<asrwt>0</asrwt>
<pdfrwt beam="1">  1        2 0.27103042E+00 0.17092165E+04</pdfrwt>
<pdfrwt beam="2">  1       -2 0.54994599E-01 0.17092165E+04</pdfrwt>
<totfact> 0.26866131E+01</totfact>
</mgrwt>
</event>
<event>
 8    1  0.6876290E-010  0.1845183E+04  0.7818608E-02  0.8682634E-01
          2   -1    0    0  501    0  0.00000000000E+00  0.00000000000E+00  0.34480064123E+04  0.34480064123E+04  0.25500000000E-02 0.  1.
         -2   -1    0    0    0  501 -0.00000000000E+00 -0.00000000000E+00 -0.24686010606E+03  0.24686010607E+03  0.25500000000E-02 0. -1.
     200001    2    1    2    0    0  0.10552764016E+03 -0.50869591573E+03  0.99378132562E+03  0.13216055181E+04  0.69937987168E+03 0.  0.
    5000001    2    3    3    0    0  0.67805625436E+02 -0.22081546204E+03  0.13819941575E+03  0.28897852328E+03  0.10513057256E+03 0.  0.
        -11    1    4    4    0    0  0.61979937892E+02 -0.19970389953E+03  0.14024737620E+03  0.25177864628E+03  0.51100000000E-03 0. -1.
     200002    1    4    4    0    0  0.58256875439E+01 -0.21111562515E+02 -0.20479604584E+01  0.37199877006E+02  0.30000000000E+02 0. -1.
     200000    1    3    3    0    0  0.37722014721E+02 -0.28788045369E+03  0.85558190987E+03  0.10326269949E+04  0.50000000000E+03 0. -1.
    -200001    1    1    2    0    0 -0.10552764016E+03  0.50869591573E+03  0.22073649806E+04  0.23732610002E+04  0.70000000000E+03 0. -1.
<mgrwt>
<rscale>  0 0.18451832E+04</rscale>
<asrwt>0</asrwt>
<pdfrwt beam="1">  1        2 0.49257231E+00 0.18451832E+04</pdfrwt>
<pdfrwt beam="2">  1       -2 0.35265732E-01 0.18451832E+04</pdfrwt>
<totfact> 0.92522443E+00</totfact>
</mgrwt>
</event>
<event>
 8    1  0.6876290E-010  0.1766900E+04  0.7818608E-02  0.8724102E-01
          2   -1    0    0  501    0  0.00000000000E+00  0.00000000000E+00  0.19091812162E+04  0.19091812162E+04  0.25500000000E-02 0.  1.
         -2   -1    0    0    0  501 -0.00000000000E+00 -0.00000000000E+00 -0.40880567226E+03  0.40880567226E+03  0.25500000000E-02 0. -1.
     200001    2    1    2    0    0 -0.40897823550E+03  0.33641510575E+03  0.61985934938E+03  0.10747061119E+04  0.70023517012E+03 0.  0.
    5000001    2    3    3    0    0 -0.98944166657E+02  0.10549150366E+03  0.11286289749E+03  0.26446402705E+03  0.19048564910E+03 0.  0.
        -11    1    4    4    0    0 -0.43895857455E+02 -0.34802891133E+02  0.94297578018E+02  0.10968190714E+03  0.51100000000E-03 0. -1.
     200002    1    4    4    0    0 -0.55048309202E+02  0.14029439480E+03  0.18565319469E+02  0.15478211991E+03  0.30000000000E+02 0. -1.
     200000    1    3    3    0    0 -0.31003406884E+03  0.23092360209E+03  0.50699645189E+03  0.81024208486E+03  0.50000000000E+03 0. -1.
    -200001    1    1    2    0    0  0.40897823550E+03 -0.33641510575E+03  0.88051619459E+03  0.12432807766E+04  0.70000000000E+03 0.  1.
<mgrwt>
<rscale>  0 0.17669002E+04</rscale>
<asrwt>0</asrwt>
<pdfrwt beam="1">  1        2 0.27274017E+00 0.17669002E+04</pdfrwt>
<pdfrwt beam="2">  1       -2 0.58400812E-01 0.17669002E+04</pdfrwt>
<totfact> 0.23255745E+01</totfact>
</mgrwt>
</event>
<event>
 8    1  0.6876290E-010  0.1648924E+04  0.7818608E-02  0.8791043E-01
         -2   -1    0    0    0  501 -0.00000000000E+00  0.00000000000E+00  0.69908876956E+03  0.69908876957E+03  0.25500000000E-02 0. -1.
          2   -1    0    0  501    0  0.00000000000E+00 -0.00000000000E+00 -0.97231926697E+03  0.97231926697E+03  0.25500000000E-02 0.  1.
     200001    2    1    2    0    0 -0.37777189808E+03  0.21512979328E+03 -0.12086898544E+03  0.83343043226E+03  0.70071716037E+03 0.  0.
    5000001    2    3    3    0    0 -0.13896008350E+02 -0.51127373676E+02 -0.10354861690E+03  0.15993318858E+03  0.10976885423E+03 0.  0.
        -11    1    4    4    0    0  0.10057586916E+02 -0.63933990485E+02 -0.10025408933E+03  0.11932976419E+03  0.51100000000E-03 0. -1.
     200002    1    4    4    0    0 -0.23953595266E+02  0.12806616809E+02 -0.32945275707E+01  0.40603424390E+02  0.30000000000E+02 0. -1.
     200000    1    3    3    0    0 -0.36387588973E+03  0.26625716696E+03 -0.17320368542E+02  0.67349724368E+03  0.50000000000E+03 0. -1.
    -200001    1    1    2    0    0  0.37777189808E+03 -0.21512979328E+03 -0.15236151196E+03  0.83797760427E+03  0.70000000000E+03 0. -1.
<mgrwt>
<rscale>  0 0.16489239E+04</rscale>
<asrwt>0</asrwt>
<pdfrwt beam="1">  1        2 0.13890275E+00 0.16489239E+04</pdfrwt>
<pdfrwt beam="2">  1       -2 0.99869824E-01 0.16489239E+04</pdfrwt>
<totfact> 0.23195541E+01</totfact>
</mgrwt>
</event>
<event>
 8    1  0.6876290E-010  0.1524973E+04  0.7818608E-02  0.8868014E-01
         -2   -1    0    0    0  501 -0.00000000000E+00  0.00000000000E+00  0.20055811905E+04  0.20055811905E+04  0.25500000000E-02 0. -1.
          2   -1    0    0  501    0  0.00000000000E+00 -0.00000000000E+00 -0.28988369802E+03  0.28988369803E+03  0.25500000000E-02 0.  1.
     200001    2    1    2    0    0 -0.12649478995E+03 -0.27386694176E+03  0.87097228764E+03  0.11576754944E+04  0.70043971250E+03 0.  0.
    5000001    2    3    3    0    0 -0.10906438494E+02 -0.93750102096E+02  0.25312750812E+03  0.33455040398E+03  0.19733830188E+03 0.  0.
        -11    1    4    4    0    0 -0.73029579885E+02 -0.77103394892E+02  0.46239368953E+02  0.11582889227E+03  0.51100000000E-03 0. -1.
     200002    1    4    4    0    0  0.62123141391E+02 -0.16646707205E+02  0.20688813917E+03  0.21872151171E+03  0.30000000000E+02 0. -1.
     200000    1    3    3    0    0 -0.11558835145E+03 -0.18011683967E+03  0.61784477952E+03  0.82312509044E+03  0.50000000000E+03 0.  1.
    -200001    1    1    2    0    0  0.12649478995E+03  0.27386694176E+03  0.84472520481E+03  0.11377893941E+04  0.70000000000E+03 0. -1.
<mgrwt>
<rscale>  0 0.15249725E+04</rscale>
<asrwt>0</asrwt>
<pdfrwt beam="1">  1        2 0.41411956E-01 0.15249725E+04</pdfrwt>
<pdfrwt beam="2">  1       -2 0.28651160E+00 0.15249725E+04</pdfrwt>
<totfact> 0.46140880E+00</totfact>
</mgrwt>
</event>
<event>
 8    1  0.6876290E-010  0.1450466E+04  0.7818608E-02  0.8918078E-01
          2   -1    0    0  501    0  0.00000000000E+00  0.00000000000E+00  0.55283649980E+03  0.55283649981E+03  0.25500000000E-02 0.  1.
         -2   -1    0    0    0  501 -0.00000000000E+00 -0.00000000000E+00 -0.95138917957E+03  0.95138917957E+03  0.25500000000E-02 0. -1.
     200001    2    1    2    0    0  0.15548288871E+03 -0.70714305443E+02 -0.11856736191E+03  0.73120095798E+03  0.70101439356E+03 0.  0.
    5000001    2    3    3    0    0 -0.16071560386E+02 -0.14453202511E+02 -0.60343922403E+01  0.18782271958E+03  0.18647726399E+03 0.  0.
        -11    1    4    4    0    0 -0.33379336365E+02  0.21012605256E+02  0.79622084433E+02  0.88855984636E+02  0.51100000000E-03 0. -1.
     200002    1    4    4    0    0  0.17307775979E+02 -0.35465807767E+02 -0.85656476674E+02  0.98966734947E+02  0.30000000000E+02 0. -1.
     200000    1    3    3    0    0  0.17155444909E+03 -0.56261102931E+02 -0.11253296967E+03  0.54337823840E+03  0.50000000000E+03 0.  1.
    -200001    1    1    2    0    0 -0.15548288871E+03  0.70714305443E+02 -0.27998531786E+03  0.77302472140E+03  0.70000000000E+03 0.  1.
<mgrwt>
<rscale>  0 0.14504657E+04</rscale>
<asrwt>0</asrwt>
<pdfrwt beam="1">  1        2 0.78976643E-01 0.14504657E+04</pdfrwt>
<pdfrwt beam="2">  1       -2 0.13591274E+00 0.14504657E+04</pdfrwt>
<totfact> 0.22502742E+01</totfact>
</mgrwt>
</event>
<event>
 8    1  0.6876290E-010  0.1485489E+04  0.7818608E-02  0.8894160E-01
          2   -1    0    0  501    0  0.00000000000E+00  0.00000000000E+00  0.13132622183E+04  0.13132622183E+04  0.25500000000E-02 0.  1.
         -2   -1    0    0    0  501 -0.00000000000E+00 -0.00000000000E+00 -0.42007566473E+03  0.42007566474E+03  0.25500000000E-02 0. -1.
     200001    2    1    2    0    0  0.95812636691E+02 -0.32821713723E+02  0.71120392587E+03  0.10030126110E+04  0.69997567631E+03 0.  0.
    5000001    2    3    3    0    0  0.11149255591E+03  0.33683066344E+02  0.19073121021E+03  0.27805703072E+03  0.16544539523E+03 0.  0.
        -11    1    4    4    0    0  0.33674491890E+02 -0.31046479047E+02 -0.13842577993E+02  0.47848429766E+02  0.51100000000E-03 0. -1.
     200002    1    4    4    0    0  0.77818064022E+02  0.64729545390E+02  0.20457378820E+03  0.23020860095E+03  0.30000000000E+02 0. -1.
     200000    1    3    3    0    0 -0.15679919221E+02 -0.66504780067E+02  0.52047271567E+03  0.72495558029E+03  0.50000000000E+03 0.  1.
    -200001    1    1    2    0    0 -0.95812636691E+02  0.32821713723E+02  0.18198262774E+03  0.73032527208E+03  0.70000000000E+03 0. -1.
<mgrwt>
<rscale>  0 0.14854891E+04</rscale>
<asrwt>0</asrwt>
<pdfrwt beam="1">  1        2 0.18760889E+00 0.14854891E+04</pdfrwt>
<pdfrwt beam="2">  1       -2 0.60010808E-01 0.14854891E+04</pdfrwt>
<totfact> 0.46291390E+01</totfact>
</mgrwt>
</event>
<event>
 8    1  0.6876290E-010  0.1839620E+04  0.7818608E-02  0.8685509E-01
         -2   -1    0    0    0  501 -0.00000000000E+00  0.00000000000E+00  0.67259411988E+03  0.67259411989E+03  0.25500000000E-02 0. -1.
          2   -1    0    0  501    0  0.00000000000E+00 -0.00000000000E+00 -0.12578919380E+04  0.12578919380E+04  0.25500000000E-02 0.  1.
     200001    2    1    2    0    0  0.18514993272E+03  0.38828894204E+03  0.14158669510E+03  0.83348564964E+03  0.69971618235E+03 0.  0.
    5000001    2    3    3    0    0  0.83792306541E+02  0.16293267097E+03  0.12442618785E+03  0.27549523727E+03  0.16385220056E+03 0.  0.
        -11    1    4    4    0    0  0.10736833673E+03  0.38773253457E+02  0.41877851171E+02  0.12159391159E+03  0.51100000000E-03 0. -1.
     200002    1    4    4    0    0 -0.23576030194E+02  0.12415941751E+03  0.82548336682E+02  0.15390132568E+03  0.30000000000E+02 0. -1.
     200000    1    3    3    0    0  0.10135762617E+03  0.22535627107E+03  0.17160507249E+02  0.55799041237E+03  0.50000000000E+03 0. -1.
    -200001    1    1    2    0    0 -0.18514993272E+03 -0.38828894204E+03 -0.72688451317E+03  0.10970004082E+04  0.70000000000E+03 0. -1.
<mgrwt>
<rscale>  0 0.18396203E+04</rscale>
<asrwt>0</asrwt>
<pdfrwt beam="1">  1        2 0.17969885E+00 0.18396203E+04</pdfrwt>
<pdfrwt beam="2">  1       -2 0.96084874E-01 0.18396203E+04</pdfrwt>
<totfact> 0.16984413E+01</totfact>
</mgrwt>
</event>
<event>
 8    1  0.6876290E-010  0.1901892E+04  0.7818608E-02  0.8653915E-01
          2   -1    0    0  501    0  0.00000000000E+00  0.00000000000E+00  0.17970503768E+04  0.17970503768E+04  0.25500000000E-02 0.  1.
         -2   -1    0    0    0  501 -0.00000000000E+00 -0.00000000000E+00 -0.50321249679E+03  0.50321249680E+03  0.25500000000E-02 0. -1.
     200001    2    1    2    0    0  0.25595827391E+03  0.58444926329E+03  0.74616053088E+03  0.12061668732E+04  0.70070493706E+03 0.  0.
    5000001    2    3    3    0    0  0.17498864960E+03  0.14460853319E+03  0.26867018767E+03  0.38275143991E+03  0.15093819813E+03 0.  0.
        -11    1    4    4    0    0  0.67570333615E+02  0.45339843465E+01  0.15890061437E+03  0.17273017179E+03  0.51100000000E-03 0. -1.
     200002    1    4    4    0    0  0.10741831598E+03  0.14007454884E+03  0.10976957330E+03  0.21002126813E+03  0.30000000000E+02 0. -1.
     200000    1    3    3    0    0  0.80969624316E+02  0.43984073010E+03  0.47749034321E+03  0.82341543329E+03  0.50000000000E+03 0. -1.
    -200001    1    1    2    0    0 -0.25595827391E+03 -0.58444926329E+03  0.54767734911E+03  0.10940960004E+04  0.70000000000E+03 0. -1.
<mgrwt>
<rscale>  0 0.19018919E+04</rscale>
<asrwt>0</asrwt>
<pdfrwt beam="1">  1        2 0.25672149E+00 0.19018919E+04</pdfrwt>
<pdfrwt beam="2">  1       -2 0.71887498E-01 0.19018919E+04</pdfrwt>
<totfact> 0.16827011E+01</totfact>
</mgrwt>
</event>
<event>
 8    1  0.6876290E-010  0.1859822E+04  0.7818608E-02  0.8675118E-01
         -2   -1    0    0    0  501 -0.00000000000E+00  0.00000000000E+00  0.54806898176E+03  0.54806898176E+03  0.25500000000E-02 0. -1.
          2   -1    0    0  501    0  0.00000000000E+00 -0.00000000000E+00 -0.15777847879E+04  0.15777847879E+04  0.25500000000E-02 0.  1.
     200001    2    1    2    0    0 -0.52865301410E+03 -0.91122299453E+02 -0.85111415490E+03  0.12260338807E+04  0.70070428076E+03 0.  0.
    5000001    2    3    3    0    0 -0.11807461562E+03  0.55618709396E+02 -0.18961852026E+03  0.28918596364E+03  0.17503794631E+03 0.  0.
        -11    1    4    4    0    0 -0.25097654602E+02  0.58410720260E+02  0.12394799267E+02  0.64771410028E+02  0.51100000000E-03 0. -1.
     200002    1    4    4    0    0 -0.92976961022E+02 -0.27920108645E+01 -0.20201331953E+03  0.22441455361E+03  0.30000000000E+02 0. -1.
     200000    1    3    3    0    0 -0.41057839847E+03 -0.14674100885E+03 -0.66149563464E+03  0.93684791702E+03  0.50000000000E+03 0. -1.
    -200001    1    1    2    0    0  0.52865301410E+03  0.91122299453E+02 -0.17860165120E+03  0.89981988897E+03  0.70000000000E+03 0. -1.
<mgrwt>
<rscale>  0 0.18598225E+04</rscale>
<asrwt>0</asrwt>
<pdfrwt beam="1">  1        2 0.22539783E+00 0.18598225E+04</pdfrwt>
<pdfrwt beam="2">  1       -2 0.78295569E-01 0.18598225E+04</pdfrwt>
<totfact> 0.18181557E+01</totfact>
</mgrwt>
</event>
<event>
 8    1  0.6876290E-010  0.1821957E+04  0.7818608E-02  0.8694709E-01
          2   -1    0    0  501    0  0.00000000000E+00  0.00000000000E+00  0.27243654402E+04  0.27243654402E+04  0.25500000000E-02 0.  1.
         -2   -1    0    0    0  501 -0.00000000000E+00 -0.00000000000E+00 -0.30461464673E+03  0.30461464674E+03  0.25500000000E-02 0. -1.
     200001    2    1    2    0    0  0.53148219238E+03  0.22785503436E+03  0.13335877538E+04  0.16133030806E+04  0.69992806438E+03 0.  0.
    5000001    2    3    3    0    0  0.35637286875E+02  0.16839682593E+03  0.32121316883E+03  0.37867773292E+03  0.10291461692E+03 0.  0.
        -11    1    4    4    0    0  0.43091536711E+02  0.16365572669E+03  0.27378235635E+03  0.32186465488E+03  0.51100000000E-03 0. -1.
     200002    1    4    4    0    0 -0.74542498350E+01  0.47410992385E+01  0.47430812483E+02  0.56813078032E+02  0.30000000000E+02 0. -1.
     200000    1    3    3    0    0  0.49584490551E+03  0.59458208425E+02  0.10123745849E+04  0.12346253477E+04  0.50000000000E+03 0.  1.
    -200001    1    1    2    0    0 -0.53148219238E+03 -0.22785503436E+03  0.10861630397E+04  0.14156770063E+04  0.70000000000E+03 0.  1.
<mgrwt>
<rscale>  0 0.18219568E+04</rscale>
<asrwt>0</asrwt>
<pdfrwt beam="1">  1        2 0.38919506E+00 0.18219568E+04</pdfrwt>
<pdfrwt beam="2">  1       -2 0.43516378E-01 0.18219568E+04</pdfrwt>
<totfact> 0.15845086E+01</totfact>
</mgrwt>
</event>
<event>
 8    1  0.6876290E-010  0.1547043E+04  0.7818608E-02  0.8853759E-01
         -2   -1    0    0    0  501 -0.00000000000E+00  0.00000000000E+00  0.21543144086E+04  0.21543144086E+04  0.25500000000E-02 0. -1.
          2   -1    0    0  501    0  0.00000000000E+00 -0.00000000000E+00 -0.27773827836E+03  0.27773827837E+03  0.25500000000E-02 0.  1.
     200001    2    1    2    0    0  0.26656524123E+03 -0.11546276140E+03  0.73612245233E+03  0.10627377968E+04  0.70932833211E+03 0.  0.
    5000001    2    3    3    0    0  0.54907401771E+00 -0.14819932400E+01  0.12061673819E+03  0.21857933956E+03  0.18228009316E+03 0.  0.
        -11    1    4    4    0    0 -0.56666496344E+02 -0.35426917813E+01 -0.22866929401E+02  0.61208977556E+02  0.51100000000E-03 0. -1.
     200002    1    4    4    0    0  0.57215570362E+02  0.20606985413E+01  0.14348366759E+03  0.15737036200E+03  0.30000000000E+02 0. -1.
     200000    1    3    3    0    0  0.26601616721E+03 -0.11398076816E+03  0.61550571414E+03  0.84415845720E+03  0.50000000000E+03 0. -1.
    -200001    1    1    2    0    0 -0.26656524123E+03  0.11546276140E+03  0.11404536779E+04  0.13693148902E+04  0.70000000000E+03 0. -1.
<mgrwt>
<rscale>  0 0.15470431E+04</rscale>
<asrwt>0</asrwt>
<pdfrwt beam="1">  1        2 0.39676897E-01 0.15470431E+04</pdfrwt>
<pdfrwt beam="2">  1       -2 0.30775920E+00 0.15470431E+04</pdfrwt>
<totfact> 0.35859320E+00</totfact>
</mgrwt>
</event>
<event>
 8    1  0.6876290E-010  0.2361791E+04  0.7818608E-02  0.8453948E-01
          2   -1    0    0  501    0  0.00000000000E+00  0.00000000000E+00  0.90559868093E+03  0.90559868093E+03  0.25500000000E-02 0.  1.
         -2   -1    0    0    0  501 -0.00000000000E+00 -0.00000000000E+00 -0.15398811352E+04  0.15398811352E+04  0.25500000000E-02 0. -1.
     200001    2    1    2    0    0 -0.38236000905E+03 -0.48241331658E+03 -0.10678794869E+04  0.14174096963E+04  0.69982988210E+03 0.  0.
    5000001    2    3    3    0    0 -0.15960433844E+03 -0.12957255426E+03 -0.29793508080E+03  0.40897968832E+03  0.19035882282E+03 0.  0.
        -11    1    4    4    0    0 -0.13989992076E+03 -0.17375024928E+03 -0.24322363618E+03  0.33002859596E+03  0.51100000000E-03 0. -1.
     200002    1    4    4    0    0 -0.19704417682E+02  0.44177695024E+02 -0.54711444614E+02  0.78951092364E+02  0.30000000000E+02 0. -1.
     200000    1    3    3    0    0 -0.22275567061E+03 -0.35284076233E+03 -0.76994440615E+03  0.10084300079E+04  0.50000000000E+03 0. -1.
    -200001    1    1    2    0    0  0.38236000905E+03  0.48241331658E+03  0.43359703270E+03  0.10280701198E+04  0.70000000000E+03 0.  1.
<mgrwt>
<rscale>  0 0.23617911E+04</rscale>
<asrwt>0</asrwt>
<pdfrwt beam="1">  1        2 0.12937124E+00 0.23617911E+04</pdfrwt>
<pdfrwt beam="2">  1       -2 0.21998302E+00 0.23617911E+04</pdfrwt>
<totfact> 0.28885273E+00</totfact>
</mgrwt>
</event>
<event>
 8    1  0.6876290E-010  0.2152640E+04  0.7818608E-02  0.8538403E-01
          2   -1    0    0  501    0  0.00000000000E+00  0.00000000000E+00  0.14493475872E+04  0.14493475872E+04  0.25500000000E-02 0.  1.
         -2   -1    0    0    0  501 -0.00000000000E+00 -0.00000000000E+00 -0.79930081252E+03  0.79930081252E+03  0.25500000000E-02 0. -1.
     200001    2    1    2    0    0  0.88101575341E+00  0.28661515036E+02  0.11798663410E+04  0.13702800081E+04  0.69624741248E+03 0.  0.
    5000001    2    3    3    0    0 -0.31145232347E+02 -0.12116520360E+02  0.34906991871E+03  0.39924384812E+03  0.19086384295E+03 0.  0.
        -11    1    4    4    0    0  0.82255094864E+01  0.41683076082E+02 -0.11619923408E+00  0.42487072628E+02  0.51100000000E-03 0. -1.
     200002    1    4    4    0    0 -0.39370741834E+02 -0.53799596442E+02  0.34918611795E+03  0.35675677549E+03  0.30000000000E+02 0. -1.
     200000    1    3    3    0    0  0.32026248101E+02  0.40778035396E+02  0.83079642224E+03  0.97103615996E+03  0.50000000000E+03 0.  1.
    -200001    1    1    2    0    0 -0.88101575341E+00 -0.28661515036E+02 -0.52981956628E+03  0.87836839165E+03  0.70000000000E+03 0. -1.
<mgrwt>
<rscale>  0 0.21526400E+04</rscale>
<asrwt>0</asrwt>
<pdfrwt beam="1">  1        2 0.20704966E+00 0.21526400E+04</pdfrwt>
<pdfrwt beam="2">  1       -2 0.11418583E+00 0.21526400E+04</pdfrwt>
<totfact> 0.86079742E+00</totfact>
</mgrwt>
</event>
<event>
 8    1  0.6876290E-010  0.1717046E+04  0.7818608E-02  0.8751701E-01
          2   -1    0    0  501    0  0.00000000000E+00  0.00000000000E+00  0.13055211437E+04  0.13055211437E+04  0.25500000000E-02 0.  1.
         -2   -1    0    0    0  501 -0.00000000000E+00 -0.00000000000E+00 -0.56457311451E+03  0.56457311451E+03  0.25500000000E-02 0. -1.
     200001    2    1    2    0    0 -0.21384901686E+03  0.43000564390E+03  0.23190917296E+03  0.88026760020E+03  0.70032344503E+03 0.  0.
    5000001    2    3    3    0    0  0.19950574239E+02  0.14668485189E+03  0.12580608982E+03  0.25083072152E+03  0.15866444919E+03 0.  0.
        -11    1    4    4    0    0 -0.63895303194E+02  0.45991145696E+02  0.24308850989E+02  0.82393661706E+02  0.51100000000E-03 0. -1.
     200002    1    4    4    0    0  0.83845877433E+02  0.10069370619E+03  0.10149723883E+03  0.16843705982E+03  0.30000000000E+02 0. -1.
     200000    1    3    3    0    0 -0.23379959110E+03  0.28332079202E+03  0.10610308314E+03  0.62943687868E+03  0.50000000000E+03 0. -1.
    -200001    1    1    2    0    0  0.21384901686E+03 -0.43000564390E+03  0.50903885627E+03  0.98982665805E+03  0.70000000000E+03 0. -1.
<mgrwt>
<rscale>  0 0.17170465E+04</rscale>
<asrwt>0</asrwt>
<pdfrwt beam="1">  1        2 0.18650302E+00 0.17170465E+04</pdfrwt>
<pdfrwt beam="2">  1       -2 0.80653303E-01 0.17170465E+04</pdfrwt>
<totfact> 0.24110053E+01</totfact>
</mgrwt>
</event>
<event>
 8    1  0.6876290E-010  0.1533662E+04  0.7818608E-02  0.8862372E-01
         -2   -1    0    0    0  501 -0.00000000000E+00  0.00000000000E+00  0.25572789194E+03  0.25572789195E+03  0.25500000000E-02 0. -1.
          2   -1    0    0  501    0  0.00000000000E+00 -0.00000000000E+00 -0.22994352476E+04  0.22994352476E+04  0.25500000000E-02 0.  1.
     200001    2    1    2    0    0 -0.13457541650E+03  0.24316035633E+03 -0.12716087937E+04  0.14765651185E+04  0.69715000063E+03 0.  0.
    5000001    2    3    3    0    0 -0.32143274837E+02  0.22428010570E+02 -0.24594994154E+03  0.30986413149E+03  0.18435889039E+03 0.  0.
        -11    1    4    4    0    0 -0.50980971863E+02  0.68893828563E+02 -0.23536565505E+03  0.25048435217E+03  0.51100000000E-03 0. -1.
     200002    1    4    4    0    0  0.18837697027E+02 -0.46465817993E+02 -0.10584286487E+02  0.59379779315E+02  0.30000000000E+02 0. -1.
     200000    1    3    3    0    0 -0.10243214167E+03  0.22073234576E+03 -0.10256588521E+04  0.11667009870E+04  0.50000000000E+03 0.  1.
    -200001    1    1    2    0    0  0.13457541650E+03 -0.24316035633E+03 -0.77209856201E+03  0.10785980211E+04  0.70000000000E+03 0. -1.
<mgrwt>
<rscale>  0 0.15336619E+04</rscale>
<asrwt>0</asrwt>
<pdfrwt beam="1">  1        2 0.32849074E+00 0.15336619E+04</pdfrwt>
<pdfrwt beam="2">  1       -2 0.36532557E-01 0.15336619E+04</pdfrwt>
<totfact> 0.38265306E+01</totfact>
</mgrwt>
</event>
<event>
 8    1  0.6876290E-010  0.2165421E+04  0.7818608E-02  0.8532960E-01
          2   -1    0    0  501    0  0.00000000000E+00  0.00000000000E+00  0.11671984094E+04  0.11671984094E+04  0.25500000000E-02 0.  1.
         -2   -1    0    0    0  501 -0.00000000000E+00 -0.00000000000E+00 -0.10043381632E+04  0.10043381632E+04  0.25500000000E-02 0. -1.
     200001    2    1    2    0    0  0.74618120635E+03  0.34010142723E+03  0.17883284558E+03  0.10932460285E+04  0.70053573695E+03 0.  0.
    5000001    2    3    3    0    0  0.24556229399E+03  0.38580333815E+01 -0.59483499436E+02  0.27442150789E+03  0.10701940308E+03 0.  0.
        -11    1    4    4    0    0  0.85154780777E+02 -0.45648693341E+02 -0.31391868219E+02  0.10159030113E+03  0.51100000000E-03 0. -1.
     200002    1    4    4    0    0  0.16040751321E+03  0.49506726722E+02 -0.28091631216E+02  0.17283120676E+03  0.30000000000E+02 0. -1.
     200000    1    3    3    0    0  0.50061891236E+03  0.33624339385E+03  0.23831634502E+03  0.81882452065E+03  0.50000000000E+03 0.  1.
    -200001    1    1    2    0    0 -0.74618120635E+03 -0.34010142723E+03 -0.15972599453E+02  0.10782905441E+04  0.70000000000E+03 0.  1.
<mgrwt>
<rscale>  0 0.21654209E+04</rscale>
<asrwt>0</asrwt>
<pdfrwt beam="1">  1        2 0.16674263E+00 0.21654209E+04</pdfrwt>
<pdfrwt beam="2">  1       -2 0.14347688E+00 0.21654209E+04</pdfrwt>
<totfact> 0.69239850E+00</totfact>
</mgrwt>
</event>
<event>
 8    1  0.6876290E-010  0.1410396E+04  0.7818608E-02  0.8946328E-01
         -2   -1    0    0    0  501 -0.00000000000E+00  0.00000000000E+00  0.11655510433E+04  0.11655510433E+04  0.25500000000E-02 0. -1.
          2   -1    0    0  501    0  0.00000000000E+00 -0.00000000000E+00 -0.42666862931E+03  0.42666862932E+03  0.25500000000E-02 0.  1.
     200001    2    1    2    0    0  0.32735843485E+02 -0.24748456517E+02  0.44536199209E+03  0.83206287327E+03  0.70163893814E+03 0.  0.
    5000001    2    3    3    0    0  0.37156311814E+01 -0.47591478106E+02  0.16888767102E+03  0.25952289513E+03  0.19118141376E+03 0.  0.
        -11    1    4    4    0    0 -0.62298273898E+02 -0.71846048212E+02  0.15494962047E+03  0.18180295503E+03  0.51100000000E-03 0. -1.
     200002    1    4    4    0    0  0.66013905080E+02  0.24254570105E+02  0.13938050548E+02  0.77719940092E+02  0.30000000000E+02 0. -1.
     200000    1    3    3    0    0  0.29020212304E+02  0.22843021590E+02  0.27647432107E+03  0.57253997814E+03  0.50000000000E+03 0. -1.
    -200001    1    1    2    0    0 -0.32735843485E+02  0.24748456517E+02  0.29352042191E+03  0.76015679937E+03  0.70000000000E+03 0.  1.
<mgrwt>
<rscale>  0 0.14103958E+04</rscale>
<asrwt>0</asrwt>
<pdfrwt beam="1">  1        2 0.60952661E-01 0.14103958E+04</pdfrwt>
<pdfrwt beam="2">  1       -2 0.16650729E+00 0.14103958E+04</pdfrwt>
<totfact> 0.17671287E+01</totfact>
</mgrwt>
</event>
<event>
 8    1  0.6876290E-010  0.1985427E+04  0.7818608E-02  0.8613464E-01
          2   -1    0    0  501    0  0.00000000000E+00  0.00000000000E+00  0.17317690966E+04  0.17317690966E+04  0.25500000000E-02 0.  1.
         -2   -1    0    0    0  501 -0.00000000000E+00 -0.00000000000E+00 -0.56905970922E+03  0.56905970923E+03  0.25500000000E-02 0. -1.
     200001    2    1    2    0    0  0.69682067107E+03 -0.27457679605E+02  0.69244514003E+03  0.12065429957E+04  0.69996625406E+03 0.  0.
    5000001    2    3    3    0    0  0.69914550237E+02  0.25800536406E+01  0.21255920001E+03  0.27155419089E+03  0.15383615983E+03 0.  0.
        -11    1    4    4    0    0  0.17910532413E+02 -0.13386262366E+02 -0.20513419888E+02  0.30344350169E+02  0.51100000000E-03 0. -1.
     200002    1    4    4    0    0  0.52004017823E+02  0.15966316006E+02  0.23307261990E+03  0.24120984072E+03  0.30000000000E+02 0. -1.
     200000    1    3    3    0    0  0.62690612084E+03 -0.30037733246E+02  0.47988594002E+03  0.93498880485E+03  0.50000000000E+03 0.  1.
    -200001    1    1    2    0    0 -0.69682067107E+03  0.27457679605E+02  0.47026424733E+03  0.10942858101E+04  0.70000000000E+03 0. -1.
<mgrwt>
<rscale>  0 0.19854269E+04</rscale>
<asrwt>0</asrwt>
<pdfrwt beam="1">  1        2 0.24739558E+00 0.19854269E+04</pdfrwt>
<pdfrwt beam="2">  1       -2 0.81294245E-01 0.19854269E+04</pdfrwt>
<totfact> 0.13745126E+01</totfact>
</mgrwt>
</event>
<event>
 8    1  0.6876290E-010  0.1515851E+04  0.7818608E-02  0.8873980E-01
          2   -1    0    0  501    0  0.00000000000E+00  0.00000000000E+00  0.18843332129E+04  0.18843332129E+04  0.25500000000E-02 0.  1.
         -2   -1    0    0    0  501 -0.00000000000E+00 -0.00000000000E+00 -0.30485622671E+03  0.30485622672E+03  0.25500000000E-02 0. -1.
     200001    2    1    2    0    0 -0.20368758165E+03 -0.10844220161E+03  0.10505502542E+04  0.12819894453E+04  0.69756201090E+03 0.  0.
    5000001    2    3    3    0    0 -0.64051778984E+01 -0.44298243424E+02  0.23212500996E+03  0.30073785944E+03  0.18589749642E+03 0.  0.
        -11    1    4    4    0    0  0.21023087438E+02 -0.34555827867E+02  0.25145321090E+03  0.25468567435E+03  0.51100000000E-03 0. -1.
     200002    1    4    4    0    0 -0.27428265336E+02 -0.97424155570E+01 -0.19328200937E+02  0.46052185091E+02  0.30000000000E+02 0. -1.
     200000    1    3    3    0    0 -0.19728240375E+03 -0.64143958182E+02  0.81842524428E+03  0.98125158582E+03  0.50000000000E+03 0.  1.
    -200001    1    1    2    0    0  0.20368758165E+03  0.10844220161E+03  0.52892673194E+03  0.90719999436E+03  0.70000000000E+03 0. -1.
<mgrwt>
<rscale>  0 0.15158505E+04</rscale>
<asrwt>0</asrwt>
<pdfrwt beam="1">  1        2 0.26919046E+00 0.15158505E+04</pdfrwt>
<pdfrwt beam="2">  1       -2 0.43550889E-01 0.15158505E+04</pdfrwt>
<totfact> 0.44471157E+01</totfact>
</mgrwt>
</event>
<event>
 8    1  0.6876290E-010  0.1470165E+04  0.7818608E-02  0.8904539E-01
         -2   -1    0    0    0  501 -0.00000000000E+00  0.00000000000E+00  0.22271454619E+03  0.22271454621E+03  0.25500000000E-02 0. -1.
          2   -1    0    0  501    0  0.00000000000E+00 -0.00000000000E+00 -0.24261832139E+04  0.24261832139E+04  0.25500000000E-02 0.  1.
     200001    2    1    2    0    0  0.64074010169E+02  0.21259023222E+03 -0.11530276281E+04  0.13672088496E+04  0.70034794328E+03 0.  0.
    5000001    2    3    3    0    0 -0.17425395193E+02  0.12821265996E+03 -0.26516163578E+03  0.34150531149E+03  0.17196817763E+03 0.  0.
        -11    1    4    4    0    0  0.74664090567E+02  0.53812565343E+02 -0.13076222074E+03  0.15990396175E+03  0.51100000000E-03 0. -1.
     200002    1    4    4    0    0 -0.92089485760E+02  0.74400094615E+02 -0.13439941504E+03  0.18160134974E+03  0.30000000000E+02 0. -1.
     200000    1    3    3    0    0  0.81499405362E+02  0.84377572267E+02 -0.88786599231E+03  0.10257035381E+04  0.50000000000E+03 0.  1.
    -200001    1    1    2    0    0 -0.64074010169E+02 -0.21259023222E+03 -0.10504410396E+04  0.12816889105E+04  0.70000000000E+03 0. -1.
<mgrwt>
<rscale>  0 0.14701650E+04</rscale>
<asrwt>0</asrwt>
<pdfrwt beam="1">  1        2 0.34659759E+00 0.14701650E+04</pdfrwt>
<pdfrwt beam="2">  1       -2 0.31816365E-01 0.14701650E+04</pdfrwt>
<totfact> 0.42984981E+01</totfact>
</mgrwt>
</event>
<event>
 8    1  0.6876290E-010  0.1429615E+04  0.7818608E-02  0.8932656E-01
         -2   -1    0    0    0  501 -0.00000000000E+00  0.00000000000E+00  0.22477322025E+03  0.22477322026E+03  0.25500000000E-02 0. -1.
          2   -1    0    0  501    0  0.00000000000E+00 -0.00000000000E+00 -0.22731798364E+04  0.22731798364E+04  0.25500000000E-02 0.  1.
     200001    2    1    2    0    0 -0.99498154593E+02  0.10161555948E+03 -0.10715003453E+04  0.12877582514E+04  0.69998765657E+03 0.  0.
    5000001    2    3    3    0    0 -0.56715558849E+02 -0.30994012180E+02 -0.42259798738E+03  0.45680102077E+03  0.16093734880E+03 0.  0.
        -11    1    4    4    0    0 -0.36335641532E+02 -0.32314689872E+02 -0.20013117952E+02  0.52583675390E+02  0.51100000000E-03 0. -1.
     200002    1    4    4    0    0 -0.20379917317E+02  0.13206776916E+01 -0.40258486943E+03  0.40421734538E+03  0.30000000000E+02 0. -1.
     200000    1    3    3    0    0 -0.42782595744E+02  0.13260957166E+03 -0.64890235793E+03  0.83095723062E+03  0.50000000000E+03 0. -1.
    -200001    1    1    2    0    0  0.99498154593E+02 -0.10161555948E+03 -0.97690627087E+03  0.12101948053E+04  0.70000000000E+03 0. -1.
<mgrwt>
<rscale>  0 0.14296153E+04</rscale>
<asrwt>0</asrwt>
<pdfrwt beam="1">  1        2 0.32473996E+00 0.14296153E+04</pdfrwt>
<pdfrwt beam="2">  1       -2 0.32110461E-01 0.14296153E+04</pdfrwt>
<totfact> 0.50896593E+01</totfact>
</mgrwt>
</event>
<event>
 8    1  0.6876290E-010  0.1513595E+04  0.7818608E-02  0.8875463E-01
          2   -1    0    0  501    0  0.00000000000E+00  0.00000000000E+00  0.76752000488E+03  0.76752000489E+03  0.25500000000E-02 0.  1.
         -2   -1    0    0    0  501 -0.00000000000E+00 -0.00000000000E+00 -0.74622459282E+03  0.74622459282E+03  0.25500000000E-02 0. -1.
     200001    2    1    2    0    0  0.24404700434E+03  0.14179298284E+03 -0.45500479454E+02  0.75603364923E+03  0.69989455980E+03 0.  0.
    5000001    2    3    3    0    0  0.20466467808E+03 -0.15586629276E+02  0.10901560009E+02  0.22735558085E+03  0.97165542599E+02 0.  0.
        -11    1    4    4    0    0  0.41353712621E+01  0.17902580939E+02  0.11816301691E+02  0.21845564440E+02  0.51100000000E-03 0. -1.
     200002    1    4    4    0    0  0.20052930682E+03 -0.33489210215E+02 -0.91474168185E+00  0.20551001641E+03  0.30000000000E+02 0. -1.
     200000    1    3    3    0    0  0.39382326255E+02  0.15737961212E+03 -0.56402039463E+02  0.52867806838E+03  0.50000000000E+03 0. -1.
    -200001    1    1    2    0    0 -0.24404700434E+03 -0.14179298284E+03  0.66795891520E+02  0.75771094847E+03  0.70000000000E+03 0. -1.
<mgrwt>
<rscale>  0 0.15135948E+04</rscale>
<asrwt>0</asrwt>
<pdfrwt beam="1">  1        2 0.10964572E+00 0.15135948E+04</pdfrwt>
<pdfrwt beam="2">  1       -2 0.10660351E+00 0.15135948E+04</pdfrwt>
<totfact> 0.27485546E+01</totfact>
</mgrwt>
</event>
<event>
 8    1  0.6876290E-010  0.2121125E+04  0.7818608E-02  0.8551994E-01
          2   -1    0    0  501    0  0.00000000000E+00  0.00000000000E+00  0.75162281717E+03  0.75162281717E+03  0.25500000000E-02 0.  1.
         -2   -1    0    0    0  501 -0.00000000000E+00 -0.00000000000E+00 -0.14964861369E+04  0.14964861369E+04  0.25500000000E-02 0. -1.
     200001    2    1    2    0    0 -0.53397273994E+03  0.38140211247E+01  0.25002217227E+03  0.91959904595E+03  0.70569815426E+03 0.  0.
    5000001    2    3    3    0    0 -0.88841663355E+02  0.56701459042E+02  0.14793056557E+03  0.24036311301E+03  0.15742641857E+03 0.  0.
        -11    1    4    4    0    0 -0.12545319299E+03  0.18974681863E+02  0.83114178270E+02  0.15167896628E+03  0.51100000000E-03 0. -1.
     200002    1    4    4    0    0  0.36611529635E+02  0.37726777179E+02  0.64816387299E+02  0.88684146729E+02  0.30000000000E+02 0. -1.
     200000    1    3    3    0    0 -0.44513107659E+03 -0.52887437917E+02  0.10209160670E+03  0.67923593294E+03  0.50000000000E+03 0.  1.
    -200001    1    1    2    0    0  0.53397273994E+03 -0.38140211247E+01 -0.99488549196E+03  0.13285099081E+04  0.70000000000E+03 0. -1.
<mgrwt>
<rscale>  0 0.21211253E+04</rscale>
<asrwt>0</asrwt>
<pdfrwt beam="1">  1        2 0.10737469E+00 0.21211253E+04</pdfrwt>
<pdfrwt beam="2">  1       -2 0.21378373E+00 0.21211253E+04</pdfrwt>
<totfact> 0.41152838E+00</totfact>
</mgrwt>
</event>
<event>
 8    1  0.6876290E-010  0.1525690E+04  0.7818608E-02  0.8867547E-01
          2   -1    0    0  501    0  0.00000000000E+00  0.00000000000E+00  0.38095958500E+03  0.38095958500E+03  0.25500000000E-02 0.  1.
         -2   -1    0    0    0  501 -0.00000000000E+00 -0.00000000000E+00 -0.15275429127E+04  0.15275429127E+04  0.25500000000E-02 0. -1.
     200001    2    1    2    0    0  0.30328998514E+03  0.50009663575E+02 -0.53841294241E+03  0.93159052670E+03  0.69533202958E+03 0.  0.
    5000001    2    3    3    0    0  0.15985461504E+03 -0.59434912345E+02 -0.12672315795E+03  0.25925110408E+03  0.14854753262E+03 0.  0.
        -11    1    4    4    0    0 -0.27287492668E+01  0.34048550382E+02 -0.73971193484E+01  0.34949495427E+02  0.51100000000E-03 0. -1.
     200002    1    4    4    0    0  0.16258336431E+03 -0.93483462727E+02 -0.11932603860E+03  0.22430160865E+03  0.30000000000E+02 0. -1.
     200000    1    3    3    0    0  0.14343537009E+03  0.10944457592E+03 -0.41168978445E+03  0.67233942262E+03  0.50000000000E+03 0. -1.
    -200001    1    1    2    0    0 -0.30328998514E+03 -0.50009663575E+02 -0.60817038529E+03  0.97691197100E+03  0.70000000000E+03 0.  1.
<mgrwt>
<rscale>  0 0.15256895E+04</rscale>
<asrwt>0</asrwt>
<pdfrwt beam="1">  1        2 0.54422799E-01 0.15256895E+04</pdfrwt>
<pdfrwt beam="2">  1       -2 0.21822041E+00 0.15256895E+04</pdfrwt>
<totfact> 0.89481561E+00</totfact>
</mgrwt>
</event>
<event>
 8    1  0.6876290E-010  0.1567682E+04  0.7818608E-02  0.8840652E-01
         -2   -1    0    0    0  501 -0.00000000000E+00  0.00000000000E+00  0.31464528707E+03  0.31464528708E+03  0.25500000000E-02 0. -1.
          2   -1    0    0  501    0  0.00000000000E+00 -0.00000000000E+00 -0.19526956343E+04  0.19526956343E+04  0.25500000000E-02 0.  1.
     200001    2    1    2    0    0 -0.33801567453E+03  0.96023090767E+02 -0.76376438690E+03  0.10935219530E+04  0.69927047180E+03 0.  0.
    5000001    2    3    3    0    0 -0.21951797335E+02 -0.23250037070E+01 -0.26865288065E+03  0.31589471207E+03  0.16470522695E+03 0.  0.
        -11    1    4    4    0    0  0.77670182113E+01 -0.41316415777E+02 -0.90780674464E+00  0.42049933388E+02  0.51100000000E-03 0. -1.
     200002    1    4    4    0    0 -0.29718815547E+02  0.38991412070E+02 -0.26774507391E+03  0.27384477869E+03  0.30000000000E+02 0. -1.
     200000    1    3    3    0    0 -0.31606387719E+03  0.98348094474E+02 -0.49511150625E+03  0.77762724089E+03  0.50000000000E+03 0.  1.
    -200001    1    1    2    0    0  0.33801567453E+03 -0.96023090767E+02 -0.87428596032E+03  0.11738189684E+04  0.70000000000E+03 0.  1.
<mgrwt>
<rscale>  0 0.15676817E+04</rscale>
<asrwt>0</asrwt>
<pdfrwt beam="1">  1        2 0.27895651E+00 0.15676817E+04</pdfrwt>
<pdfrwt beam="2">  1       -2 0.44949328E-01 0.15676817E+04</pdfrwt>
<totfact> 0.38355870E+01</totfact>
</mgrwt>
</event>
<event>
 8    1  0.6876290E-010  0.1728632E+04  0.7818608E-02  0.8745201E-01
         -2   -1    0    0    0  501 -0.00000000000E+00  0.00000000000E+00  0.22088407901E+03  0.22088407903E+03  0.25500000000E-02 0. -1.
          2   -1    0    0  501    0  0.00000000000E+00 -0.00000000000E+00 -0.33820550819E+04  0.33820550819E+04  0.25500000000E-02 0.  1.
     200001    2    1    2    0    0  0.36357252579E+02  0.49872310888E+03 -0.17615924406E+04  0.19601163643E+04  0.69914350864E+03 0.  0.
    5000001    2    3    3    0    0  0.45711043428E+02  0.11954838012E+03 -0.51525107059E+03  0.56468532733E+03  0.19236563747E+03 0.  0.
        -11    1    4    4    0    0  0.57338486321E+02  0.91839082804E+02 -0.51061956805E+03  0.52197170653E+03  0.51100000000E-03 0. -1.
     200002    1    4    4    0    0 -0.11627442892E+02  0.27709297316E+02 -0.46315025363E+01  0.42713620798E+02  0.30000000000E+02 0. -1.
     200000    1    3    3    0    0 -0.93537908494E+01  0.37917472876E+03 -0.12463413700E+04  0.13954310370E+04  0.50000000000E+03 0.  1.
    -200001    1    1    2    0    0 -0.36357252579E+02 -0.49872310888E+03 -0.13995785623E+04  0.16428227967E+04  0.70000000000E+03 0.  1.
<mgrwt>
<rscale>  0 0.17286320E+04</rscale>
<asrwt>0</asrwt>
<pdfrwt beam="1">  1        2 0.48315069E+00 0.17286320E+04</pdfrwt>
<pdfrwt beam="2">  1       -2 0.31554870E-01 0.17286320E+04</pdfrwt>
<totfact> 0.12646949E+01</totfact>
</mgrwt>
</event>
<event>
 8    1  0.6876290E-010  0.1912390E+04  0.7818608E-02  0.8648713E-01
          2   -1    0    0  501    0  0.00000000000E+00  0.00000000000E+00  0.22198254625E+04  0.22198254625E+04  0.25500000000E-02 0.  1.
         -2   -1    0    0    0  501 -0.00000000000E+00 -0.00000000000E+00 -0.41188335352E+03  0.41188335353E+03  0.25500000000E-02 0. -1.
     200001    2    1    2    0    0 -0.23767874806E+03  0.46200881135E+03  0.36213910797E+03  0.94342873061E+03  0.69926368930E+03 0.  0.
    5000001    2    3    3    0    0  0.92702021290E+01  0.23355553905E+03  0.12711457703E+03  0.29658159893E+03  0.13102825139E+03 0.  0.
        -11    1    4    4    0    0  0.59909647149E+02  0.60825736275E+02  0.44345690573E+02  0.96205385959E+02  0.51100000000E-03 0. -1.
     200002    1    4    4    0    0 -0.50639445020E+02  0.17272980277E+03  0.82768886456E+02  0.20037621297E+03  0.30000000000E+02 0. -1.
     200000    1    3    3    0    0 -0.24694895019E+03  0.22845327230E+03  0.23502453094E+03  0.64684713168E+03  0.50000000000E+03 0. -1.
    -200001    1    1    2    0    0  0.23767874806E+03 -0.46200881135E+03  0.14458030010E+04  0.16882800854E+04  0.70000000000E+03 0.  1.
<mgrwt>
<rscale>  0 0.19123903E+04</rscale>
<asrwt>0</asrwt>
<pdfrwt beam="1">  1        2 0.31711792E+00 0.19123903E+04</pdfrwt>
<pdfrwt beam="2">  1       -2 0.58840480E-01 0.19123903E+04</pdfrwt>
<totfact> 0.15648518E+01</totfact>
</mgrwt>
</event>
<event>
 8    1  0.6876290E-010  0.2126950E+04  0.7818608E-02  0.8549464E-01
         -2   -1    0    0    0  501 -0.00000000000E+00  0.00000000000E+00  0.10518047407E+04  0.10518047407E+04  0.25500000000E-02 0. -1.
          2   -1    0    0  501    0  0.00000000000E+00 -0.00000000000E+00 -0.10752750162E+04  0.10752750162E+04  0.25500000000E-02 0.  1.
     200001    2    1    2    0    0  0.11478763299E+03  0.76330210862E+03 -0.22305377069E+03  0.10661179851E+04  0.70074835979E+03 0.  0.
    5000001    2    3    3    0    0 -0.13561385404E+02  0.11289373105E+03 -0.27599763125E+02  0.21306066155E+03  0.17805671257E+03 0.  0.
        -11    1    4    4    0    0 -0.52864879976E+02  0.33745376283E+02 -0.83382575520E+02  0.10433647424E+03  0.51100000000E-03 0. -1.
     200002    1    4    4    0    0  0.39303494573E+02  0.79148354766E+02  0.55782812395E+02  0.10872418731E+03  0.30000000000E+02 0. -1.
     200000    1    3    3    0    0  0.12834901839E+03  0.65040837757E+03 -0.19545400757E+03  0.85305732352E+03  0.50000000000E+03 0.  1.
    -200001    1    1    2    0    0 -0.11478763299E+03 -0.76330210862E+03  0.19958349519E+03  0.10609617718E+04  0.70000000000E+03 0. -1.
<mgrwt>
<rscale>  0 0.21269503E+04</rscale>
<asrwt>0</asrwt>
<pdfrwt beam="1">  1        2 0.15361072E+00 0.21269503E+04</pdfrwt>
<pdfrwt beam="2">  1       -2 0.15025782E+00 0.21269503E+04</pdfrwt>
<totfact> 0.69615577E+00</totfact>
</mgrwt>
</event>
<event>
 8    1  0.6876290E-010  0.1683051E+04  0.7818608E-02  0.8771090E-01
          2   -1    0    0  501    0  0.00000000000E+00  0.00000000000E+00  0.32557292059E+04  0.32557292059E+04  0.25500000000E-02 0.  1.
         -2   -1    0    0    0  501 -0.00000000000E+00 -0.00000000000E+00 -0.21751355447E+03  0.21751355449E+03  0.25500000000E-02 0. -1.
     200001    2    1    2    0    0  0.63583251087E+02 -0.43208945317E+03  0.11782116403E+04  0.14384555364E+04  0.70016250655E+03 0.  0.
    5000001    2    3    3    0    0 -0.94572635054E+02 -0.16753989837E+03  0.45168912567E+03  0.50419929987E+03  0.11480534352E+03 0.  0.
        -11    1    4    4    0    0 -0.70771923897E+02 -0.15125902031E+03  0.26733912124E+03  0.31521129768E+03  0.51100000000E-03 0. -1.
     200002    1    4    4    0    0 -0.23800711157E+02 -0.16280878057E+02  0.18435000443E+03  0.18898800219E+03  0.30000000000E+02 0. -1.
     200000    1    3    3    0    0  0.15815588614E+03 -0.26454955480E+03  0.72652251460E+03  0.93425623652E+03  0.50000000000E+03 0. -1.
    -200001    1    1    2    0    0 -0.63583251087E+02  0.43208945317E+03  0.18600040111E+04  0.20347872240E+04  0.70000000000E+03 0.  1.
<mgrwt>
<rscale>  0 0.16830511E+04</rscale>
<asrwt>0</asrwt>
<pdfrwt beam="1">  1        2 0.46510420E+00 0.16830511E+04</pdfrwt>
<pdfrwt beam="2">  1       -2 0.31073363E-01 0.16830511E+04</pdfrwt>
<totfact> 0.15509471E+01</totfact>
</mgrwt>
</event>
<event>
 8    1  0.6876290E-010  0.2135358E+04  0.7818608E-02  0.8545826E-01
          2   -1    0    0  501    0  0.00000000000E+00  0.00000000000E+00  0.10010618020E+04  0.10010618020E+04  0.25500000000E-02 0.  1.
         -2   -1    0    0    0  501 -0.00000000000E+00 -0.00000000000E+00 -0.11387296341E+04  0.11387296341E+04  0.25500000000E-02 0. -1.
     200001    2    1    2    0    0 -0.80108964018E+03 -0.24135574004E+02  0.18771260528E+02  0.10642449112E+04  0.69995552235E+03 0.  0.
    5000001    2    3    3    0    0 -0.23403071904E+03 -0.11880761623E+02 -0.19521475642E+02  0.30716345316E+03  0.19762785481E+03 0.  0.
        -11    1    4    4    0    0  0.24204915665E+02 -0.34188594106E+02 -0.19570472213E+02  0.46235714466E+02  0.51100000000E-03 0. -1.
     200002    1    4    4    0    0 -0.25823563470E+03  0.22307832483E+02  0.48996570863E-01  0.26092773870E+03  0.30000000000E+02 0. -1.
     200000    1    3    3    0    0 -0.56705892114E+03 -0.12254812381E+02  0.38292736170E+02  0.75708145805E+03  0.50000000000E+03 0.  1.
    -200001    1    1    2    0    0  0.80108964018E+03  0.24135574004E+02 -0.15643909264E+03  0.10755465249E+04  0.70000000000E+03 0.  1.
<mgrwt>
<rscale>  0 0.21353583E+04</rscale>
<asrwt>0</asrwt>
<pdfrwt beam="1">  1        2 0.14300883E+00 0.21353583E+04</pdfrwt>
<pdfrwt beam="2">  1       -2 0.16267566E+00 0.21353583E+04</pdfrwt>
<totfact> 0.62290058E+00</totfact>
</mgrwt>
</event>
<event>
 8    1  0.6876290E-010  0.1670692E+04  0.7818608E-02  0.8778258E-01
          2   -1    0    0  501    0  0.00000000000E+00  0.00000000000E+00  0.56064644967E+03  0.56064644968E+03  0.25500000000E-02 0.  1.
         -2   -1    0    0    0  501 -0.00000000000E+00 -0.00000000000E+00 -0.12446404031E+04  0.12446404031E+04  0.25500000000E-02 0. -1.
     200001    2    1    2    0    0  0.15269339495E+03  0.98580045448E+02 -0.79364043911E+03  0.10738118702E+04  0.70012390894E+03 0.  0.
    5000001    2    3    3    0    0 -0.85994049251E+01 -0.34589874213E+02 -0.31827952976E+03  0.35289745859E+03  0.14820373832E+03 0.  0.
        -11    1    4    4    0    0 -0.27292795228E+02  0.65718699962E+01 -0.29066611261E+03  0.29201862127E+03  0.51100000000E-03 0. -1.
     200002    1    4    4    0    0  0.18693390303E+02 -0.41161744209E+02 -0.27613417152E+02  0.60878837326E+02  0.30000000000E+02 0.  1.
     200000    1    3    3    0    0  0.16129279988E+03  0.13316991966E+03 -0.47536090934E+03  0.72091441165E+03  0.50000000000E+03 0. -1.
    -200001    1    1    2    0    0 -0.15269339495E+03 -0.98580045448E+02  0.10964648569E+03  0.73147498252E+03  0.70000000000E+03 0.  1.
<mgrwt>
<rscale>  0 0.16706923E+04</rscale>
<asrwt>0</asrwt>
<pdfrwt beam="1">  1        2 0.80092350E-01 0.16706923E+04</pdfrwt>
<pdfrwt beam="2">  1       -2 0.17780577E+00 0.16706923E+04</pdfrwt>
<totfact> 0.10546685E+01</totfact>
</mgrwt>
</event>
<event>
 8    1  0.6876290E-010  0.1748411E+04  0.7818608E-02  0.8734225E-01
         -2   -1    0    0    0  501 -0.00000000000E+00  0.00000000000E+00  0.17837189667E+03  0.17837189669E+03  0.25500000000E-02 0.  1.
          2   -1    0    0  501    0  0.00000000000E+00 -0.00000000000E+00 -0.42845044291E+04  0.42845044291E+04  0.25500000000E-02 0. -1.
     200001    2    1    2    0    0 -0.30142059366E+03  0.39171301790E+03 -0.24949061262E+04  0.26379533152E+04  0.69996260730E+03 0.  0.
    5000001    2    3    3    0    0 -0.87874416142E+02  0.80058215419E+02 -0.51351546132E+03  0.55981962052E+03  0.18859652073E+03 0.  0.
        -11    1    4    4    0    0 -0.27113082384E+02  0.85638825787E+02 -0.47130618903E+03  0.47979021618E+03  0.51100000000E-03 0. -1.
     200002    1    4    4    0    0 -0.60761333758E+02 -0.55806103682E+01 -0.42209272290E+02  0.80029404342E+02  0.30000000000E+02 0. -1.
     200000    1    3    3    0    0 -0.21354617752E+03  0.31165480248E+03 -0.19813906649E+04  0.20781336946E+04  0.50000000000E+03 0.  1.
    -200001    1    1    2    0    0  0.30142059366E+03 -0.39171301790E+03 -0.16112264062E+04  0.18249230107E+04  0.70000000000E+03 0. -1.
<mgrwt>
<rscale>  0 0.17484109E+04</rscale>
<asrwt>0</asrwt>
<pdfrwt beam="1">  1        2 0.61207200E+00 0.17484109E+04</pdfrwt>
<pdfrwt beam="2">  1       -2 0.25481702E-01 0.17484109E+04</pdfrwt>
<totfact> 0.47597121E+00</totfact>
</mgrwt>
</event>
<event>
 8    1  0.6876290E-010  0.1426125E+04  0.7818608E-02  0.8935122E-01
         -2   -1    0    0    0  501 -0.00000000000E+00  0.00000000000E+00  0.52697231790E+03  0.52697231790E+03  0.25500000000E-02 0. -1.
          2   -1    0    0  501    0  0.00000000000E+00 -0.00000000000E+00 -0.96486665901E+03  0.96486665901E+03  0.25500000000E-02 0.  1.
     200001    2    1    2    0    0  0.89272696753E+02 -0.52987958551E+02 -0.26376218652E+03  0.76307334559E+03  0.70847237178E+03 0.  0.
    5000001    2    3    3    0    0  0.30033721096E+02 -0.89925000266E+02 -0.37059356352E+02  0.20965869590E+03  0.18328895984E+03 0.  0.
        -11    1    4    4    0    0  0.52255435526E+02 -0.11157429478E+03 -0.81491876078E+02  0.14771722874E+03  0.51100000000E-03 0. -1.
     200002    1    4    4    0    0 -0.22221714430E+02  0.21649294516E+02  0.44432519726E+02  0.61941467164E+02  0.30000000000E+02 0. -1.
     200000    1    3    3    0    0  0.59238975656E+02  0.36937041715E+02 -0.22670283017E+03  0.55341464969E+03  0.50000000000E+03 0.  1.
    -200001    1    1    2    0    0 -0.89272696753E+02  0.52987958551E+02 -0.17413215459E+03  0.72876563132E+03  0.70000000000E+03 0. -1.
<mgrwt>
<rscale>  0 0.14261248E+04</rscale>
<asrwt>0</asrwt>
<pdfrwt beam="1">  1        2 0.13783809E+00 0.14261248E+04</pdfrwt>
<pdfrwt beam="2">  1       -2 0.75281760E-01 0.14261248E+04</pdfrwt>
<totfact> 0.45527821E+01</totfact>
</mgrwt>
</event>
<event>
 8    1  0.6876290E-010  0.2192349E+04  0.7818608E-02  0.8521620E-01
         -2   -1    0    0    0  501 -0.00000000000E+00  0.00000000000E+00  0.37067524513E+03  0.37067524514E+03  0.25500000000E-02 0. -1.
          2   -1    0    0  501    0  0.00000000000E+00 -0.00000000000E+00 -0.32416466752E+04  0.32416466752E+04  0.25500000000E-02 0.  1.
     200001    2    1    2    0    0  0.35549509059E+03  0.45232639111E+02 -0.17625178403E+03  0.80519942181E+03  0.69918428646E+03 0.  0.
    5000001    2    3    3    0    0  0.50966620020E+02  0.33130501669E+01 -0.10946584541E+03  0.21447511816E+03  0.17722367883E+03 0.  0.
        -11    1    4    4    0    0 -0.25816059194E+02  0.64947702712E+02 -0.86947274670E+01  0.70429193420E+02  0.51100000000E-03 0. -1.
     200002    1    4    4    0    0  0.76782679214E+02 -0.61634652545E+02 -0.10077111794E+03  0.14404592474E+03  0.30000000000E+02 0. -1.
     200000    1    3    3    0    0  0.30452847057E+03  0.41919588944E+02 -0.66785938623E+02  0.59072430365E+03  0.50000000000E+03 0. -1.
    -200001    1    1    2    0    0 -0.35549509059E+03 -0.45232639111E+02 -0.26947196460E+04  0.28071224985E+04  0.70000000000E+03 0.  1.
<mgrwt>
<rscale>  0 0.21923487E+04</rscale>
<asrwt>0</asrwt>
<pdfrwt beam="1">  1        2 0.46309237E+00 0.21923487E+04</pdfrwt>
<pdfrwt beam="2">  1       -2 0.52953608E-01 0.21923487E+04</pdfrwt>
<totfact> 0.53049053E+00</totfact>
</mgrwt>
</event>
<event>
 8    1  0.6876290E-010  0.1742124E+04  0.7818608E-02  0.8737698E-01
         -2   -1    0    0    0  501 -0.00000000000E+00  0.00000000000E+00  0.26666743844E+03  0.26666743845E+03  0.25500000000E-02 0. -1.
          2   -1    0    0  501    0  0.00000000000E+00 -0.00000000000E+00 -0.28452996086E+04  0.28452996086E+04  0.25500000000E-02 0.  1.
     200001    2    1    2    0    0  0.26700349850E+03  0.33247213050E+03 -0.18160949080E+04  0.19924619502E+04  0.69991093872E+03 0.  0.
    5000001    2    3    3    0    0 -0.49347743747E+02  0.88476602625E+02 -0.43932962818E+03  0.47420816312E+03  0.14696785617E+03 0.  0.
        -11    1    4    4    0    0 -0.94389427073E+02  0.58610282759E+02 -0.22187739486E+03  0.24814130559E+03  0.51100000000E-03 0. -1.
     200002    1    4    4    0    0  0.45041683326E+02  0.29866319866E+02 -0.21745223332E+03  0.22606685753E+03  0.30000000000E+02 0. -1.
     200000    1    3    3    0    0  0.31635124225E+03  0.24399552788E+03 -0.13767652799E+04  0.15182537871E+04  0.50000000000E+03 0.  1.
    -200001    1    1    2    0    0 -0.26700349850E+03 -0.33247213050E+03 -0.76253726210E+03  0.11195050968E+04  0.70000000000E+03 0. -1.
<mgrwt>
<rscale>  0 0.17421237E+04</rscale>
<asrwt>0</asrwt>
<pdfrwt beam="1">  1        2 0.40647135E+00 0.17421237E+04</pdfrwt>
<pdfrwt beam="2">  1       -2 0.38095350E-01 0.17421237E+04</pdfrwt>
<totfact> 0.17808742E+01</totfact>
</mgrwt>
</event>
<event>
 8    1  0.6876290E-010  0.1592964E+04  0.7818608E-02  0.8824882E-01
          2   -1    0    0  501    0  0.00000000000E+00  0.00000000000E+00  0.53859221091E+04  0.53859221091E+04  0.25500000000E-02 0.  1.
         -2   -1    0    0    0  501 -0.00000000000E+00 -0.00000000000E+00 -0.11778554601E+03  0.11778554603E+03  0.25500000000E-02 0. -1.
     200001    2    1    2    0    0  0.13219172421E+03 -0.19499385409E+03  0.16078869751E+04  0.17696851188E+04  0.70070510208E+03 0.  0.
    5000001    2    3    3    0    0  0.54153795918E+01 -0.12875471718E+03  0.54160900882E+03  0.58334260246E+03  0.17418716909E+03 0.  0.
        -11    1    4    4    0    0 -0.81168932854E+02 -0.49003954701E+02  0.25473038106E+03  0.27180388201E+03  0.51100000000E-03 0. -1.
     200002    1    4    4    0    0  0.86584312445E+02 -0.79750762476E+02  0.28687862776E+03  0.31153872045E+03  0.30000000000E+02 0. -1.
     200000    1    3    3    0    0  0.12677634462E+03 -0.66239136914E+02  0.10662779663E+04  0.11863425164E+04  0.50000000000E+03 0. -1.
    -200001    1    1    2    0    0 -0.13219172421E+03  0.19499385409E+03  0.36602495880E+04  0.37340225363E+04  0.70000000000E+03 0.  1.
<mgrwt>
<rscale>  0 0.15929643E+04</rscale>
<asrwt>0</asrwt>
<pdfrwt beam="1">  1        2 0.76941755E+00 0.15929643E+04</pdfrwt>
<pdfrwt beam="2">  1       -2 0.16826504E-01 0.15929643E+04</pdfrwt>
<totfact> 0.99354442E-01</totfact>
</mgrwt>
</event>
<event>
 8    1  0.6876290E-010  0.1673078E+04  0.7818608E-02  0.8776869E-01
         -2   -1    0    0    0  501 -0.00000000000E+00  0.00000000000E+00  0.70471805593E+03  0.70471805593E+03  0.25500000000E-02 0. -1.
          2   -1    0    0  501    0  0.00000000000E+00 -0.00000000000E+00 -0.99301821473E+03  0.99301821473E+03  0.25500000000E-02 0.  1.
     200001    2    1    2    0    0 -0.43598858201E+03 -0.40134369800E+02 -0.84144329089E+01  0.82593765238E+03  0.70028950560E+03 0.  0.
    5000001    2    3    3    0    0 -0.15903560664E+03  0.75570037692E+02  0.97827176020E+01  0.24248105865E+03  0.16642778453E+03 0.  0.
        -11    1    4    4    0    0 -0.12038977432E+03  0.76481582500E+01 -0.58861698402E+02  0.13422701526E+03  0.51100000000E-03 0. -1.
     200002    1    4    4    0    0 -0.38645832325E+02  0.67921879442E+02  0.68644416004E+02  0.10825404340E+03  0.30000000000E+02 0. -1.
     200000    1    3    3    0    0 -0.27695297537E+03 -0.11570440749E+03 -0.18197150511E+02  0.58345659373E+03  0.50000000000E+03 0.  1.
    -200001    1    1    2    0    0  0.43598858201E+03  0.40134369800E+02 -0.27988572590E+03  0.87179861828E+03  0.70000000000E+03 0.  1.
<mgrwt>
<rscale>  0 0.16730784E+04</rscale>
<asrwt>0</asrwt>
<pdfrwt beam="1">  1        2 0.14185974E+00 0.16730784E+04</pdfrwt>
<pdfrwt beam="2">  1       -2 0.10067401E+00 0.16730784E+04</pdfrwt>
<totfact> 0.22050262E+01</totfact>
</mgrwt>
</event>
<event>
 8    1  0.6876290E-010  0.1899230E+04  0.7818608E-02  0.8655240E-01
          2   -1    0    0  501    0  0.00000000000E+00  0.00000000000E+00  0.85220414375E+03  0.85220414375E+03  0.25500000000E-02 0.  1.
         -2   -1    0    0    0  501 -0.00000000000E+00 -0.00000000000E+00 -0.10581601210E+04  0.10581601210E+04  0.25500000000E-02 0. -1.
     200001    2    1    2    0    0 -0.17279056590E+03  0.26491031052E+03  0.44953296214E+03  0.90056240205E+03  0.71337136447E+03 0.  0.
    5000001    2    3    3    0    0 -0.12326639738E+03  0.59539866649E+02  0.16625163351E+03  0.28828960857E+03  0.19165513904E+03 0.  0.
        -11    1    4    4    0    0 -0.52641588061E+02  0.85055473347E+02 -0.36838046484E+01  0.10009565803E+03  0.51100000000E-03 0. -1.
     200002    1    4    4    0    0 -0.70624809321E+02 -0.25515606698E+02  0.16993543816E+03  0.18819395054E+03  0.30000000000E+02 0. -1.
     200000    1    3    3    0    0 -0.49524168518E+02  0.20537044387E+03  0.28328132863E+03  0.61227279348E+03  0.50000000000E+03 0. -1.
    -200001    1    1    2    0    0  0.17279056590E+03 -0.26491031052E+03 -0.65548893942E+03  0.10098018627E+04  0.70000000000E+03 0. -1.
<mgrwt>
<rscale>  0 0.18992298E+04</rscale>
<asrwt>0</asrwt>
<pdfrwt beam="1">  1        2 0.12174345E+00 0.18992298E+04</pdfrwt>
<pdfrwt beam="2">  1       -2 0.15116573E+00 0.18992298E+04</pdfrwt>
<totfact> 0.96494334E+00</totfact>
</mgrwt>
</event>
<event>
 8    1  0.6876290E-010  0.1841274E+04  0.7818608E-02  0.8684653E-01
          2   -1    0    0  501    0  0.00000000000E+00  0.00000000000E+00  0.32276001731E+04  0.32276001731E+04  0.25500000000E-02 0.  1.
         -2   -1    0    0    0  501 -0.00000000000E+00 -0.00000000000E+00 -0.26260141681E+03  0.26260141682E+03  0.25500000000E-02 0. -1.
     200001    2    1    2    0    0  0.57125895900E+03  0.12587162934E+03  0.17285527927E+04  0.19536538080E+04  0.69763025948E+03 0.  0.
    5000001    2    3    3    0    0  0.31047426298E+03  0.35022080854E+02  0.58405303904E+03  0.67453614948E+03  0.12751568696E+03 0.  0.
        -11    1    4    4    0    0  0.26780154093E+03  0.12455907359E+01  0.40991788623E+03  0.48964465715E+03  0.51100000000E-03 0. -1.
     200002    1    4    4    0    0  0.42672722050E+02  0.33776490118E+02  0.17413515282E+03  0.18489149234E+03  0.30000000000E+02 0. -1.
     200000    1    3    3    0    0  0.26078469601E+03  0.90849548483E+02  0.11444997537E+04  0.12791176585E+04  0.50000000000E+03 0.  1.
    -200001    1    1    2    0    0 -0.57125895900E+03 -0.12587162934E+03  0.12364459635E+04  0.15365477819E+04  0.70000000000E+03 0. -1.
<mgrwt>
<rscale>  0 0.18412739E+04</rscale>
<asrwt>0</asrwt>
<pdfrwt beam="1">  1        2 0.46108574E+00 0.18412739E+04</pdfrwt>
<pdfrwt beam="2">  1       -2 0.37514488E-01 0.18412739E+04</pdfrwt>
<totfact> 0.11091143E+01</totfact>
</mgrwt>
</event>
<event>
 8    1  0.6876290E-010  0.1551616E+04  0.7818608E-02  0.8850836E-01
         -2   -1    0    0    0  501 -0.00000000000E+00  0.00000000000E+00  0.37037855512E+03  0.37037855513E+03  0.25500000000E-02 0. -1.
          2   -1    0    0  501    0  0.00000000000E+00 -0.00000000000E+00 -0.16250349683E+04  0.16250349683E+04  0.25500000000E-02 0.  1.
     200001    2    1    2    0    0 -0.23489903717E+03 -0.60306205206E+01 -0.93353810135E+03  0.11902235482E+04  0.69994627078E+03 0.  0.
    5000001    2    3    3    0    0 -0.10449484567E+03 -0.35043664847E+02 -0.32100765260E+03  0.38832544960E+03  0.18868892538E+03 0.  0.
        -11    1    4    4    0    0 -0.11397710652E+03  0.46112607269E+02 -0.13287440124E+03  0.18103248290E+03  0.51100000000E-03 0. -1.
     200002    1    4    4    0    0  0.94822608516E+01 -0.81156272116E+02 -0.18813325136E+03  0.20729296669E+03  0.30000000000E+02 0. -1.
     200000    1    3    3    0    0 -0.13040419150E+03  0.29013044326E+02 -0.61253044874E+03  0.80189809860E+03  0.50000000000E+03 0.  1.
    -200001    1    1    2    0    0  0.23489903717E+03  0.60306205206E+01 -0.32111831186E+03  0.80518997526E+03  0.70000000000E+03 0.  1.
<mgrwt>
<rscale>  0 0.15516161E+04</rscale>
<asrwt>0</asrwt>
<pdfrwt beam="1">  1        2 0.23214785E+00 0.15516161E+04</pdfrwt>
<pdfrwt beam="2">  1       -2 0.52911223E-01 0.15516161E+04</pdfrwt>
<totfact> 0.40769459E+01</totfact>
</mgrwt>
</event>
<event>
 8    1  0.6876290E-010  0.1545486E+04  0.7818608E-02  0.8854756E-01
          2   -1    0    0  501    0  0.00000000000E+00  0.00000000000E+00  0.78180630391E+03  0.78180630391E+03  0.25500000000E-02 0.  1.
         -2   -1    0    0    0  501 -0.00000000000E+00 -0.00000000000E+00 -0.76378474806E+03  0.76378474807E+03  0.25500000000E-02 0. -1.
     200001    2    1    2    0    0  0.24041713601E+03  0.30708955242E+02  0.23265321450E+03  0.77435166754E+03  0.69767438507E+03 0.  0.
    5000001    2    3    3    0    0  0.58335637168E+02  0.91026032488E+02  0.10969039473E+03  0.22488676686E+03  0.16386973503E+03 0.  0.
        -11    1    4    4    0    0  0.54447930532E+02  0.12740753738E+03  0.11103004127E+03  0.17755260568E+03  0.51100000000E-03 0. -1.
     200002    1    4    4    0    0  0.38877066356E+01 -0.36381504895E+02 -0.13396465374E+01  0.47334161175E+02  0.30000000000E+02 0. -1.
     200000    1    3    3    0    0  0.18208149885E+03 -0.60317077246E+02  0.12296281977E+03  0.54946490068E+03  0.50000000000E+03 0.  1.
    -200001    1    1    2    0    0 -0.24041713601E+03 -0.30708955242E+02 -0.21463165865E+03  0.77123938444E+03  0.70000000000E+03 0. -1.
<mgrwt>
<rscale>  0 0.15454860E+04</rscale>
<asrwt>0</asrwt>
<pdfrwt beam="1">  1        2 0.11168662E+00 0.15454860E+04</pdfrwt>
<pdfrwt beam="2">  1       -2 0.10911211E+00 0.15454860E+04</pdfrwt>
<totfact> 0.25319541E+01</totfact>
</mgrwt>
</event>
<event>
 8    1  0.6876290E-010  0.1975345E+04  0.7818608E-02  0.8618235E-01
         -2   -1    0    0    0  501 -0.00000000000E+00  0.00000000000E+00  0.78847944294E+03  0.78847944295E+03  0.25500000000E-02 0. -1.
          2   -1    0    0  501    0  0.00000000000E+00 -0.00000000000E+00 -0.12371874681E+04  0.12371874681E+04  0.25500000000E-02 0.  1.
     200001    2    1    2    0    0  0.51063676216E+03  0.36157374718E+03 -0.53919704827E+03  0.10824417307E+04  0.69961501274E+03 0.  0.
    5000001    2    3    3    0    0  0.81686163400E+02  0.10793770202E+03 -0.21939915780E+03  0.30745750488E+03  0.16754387501E+03 0.  0.
        -11    1    4    4    0    0  0.11844234671E+03  0.10432828016E+03 -0.20297165713E+03  0.25711956972E+03  0.51100000000E-03 0. -1.
     200002    1    4    4    0    0 -0.36756183309E+02  0.36094218596E+01 -0.16427500675E+02  0.50337935158E+02  0.30000000000E+02 0. -1.
     200000    1    3    3    0    0  0.42895059876E+03  0.25363604516E+03 -0.31979789046E+03  0.77498422585E+03  0.50000000000E+03 0. -1.
    -200001    1    1    2    0    0 -0.51063676216E+03 -0.36157374718E+03  0.90489023089E+02  0.94322518033E+03  0.70000000000E+03 0.  1.
<mgrwt>
<rscale>  0 0.19753449E+04</rscale>
<asrwt>0</asrwt>
<pdfrwt beam="1">  1        2 0.17674107E+00 0.19753449E+04</pdfrwt>
<pdfrwt beam="2">  1       -2 0.11263992E+00 0.19753449E+04</pdfrwt>
<totfact> 0.11801340E+01</totfact>
</mgrwt>
</event>
<event>
 8    1  0.6876290E-010  0.2295579E+04  0.7818608E-02  0.8479666E-01
         -2   -1    0    0    0  501 -0.00000000000E+00  0.00000000000E+00  0.48070187322E+03  0.48070187322E+03  0.25500000000E-02 0. -1.
          2   -1    0    0  501    0  0.00000000000E+00 -0.00000000000E+00 -0.27406189693E+04  0.27406189693E+04  0.25500000000E-02 0.  1.
     200001    2    1    2    0    0  0.88885293967E+03  0.15676388951E+03 -0.12374607753E+04  0.16883331083E+04  0.71029926701E+03 0.  0.
    5000001    2    3    3    0    0  0.25619456499E+03 -0.36647633181E+02 -0.41705520310E+03  0.52182981251E+03  0.17717958867E+03 0.  0.
        -11    1    4    4    0    0 -0.10313683702E+02 -0.19989266119E+02 -0.11657933886E+03  0.11872946172E+03  0.51100000000E-03 0. -1.
     200002    1    4    4    0    0  0.26650824869E+03 -0.16658367062E+02 -0.30047586424E+03  0.40310035079E+03  0.30000000000E+02 0. -1.
     200000    1    3    3    0    0  0.63265837468E+03  0.19341152269E+03 -0.82040557219E+03  0.11665032958E+04  0.50000000000E+03 0. -1.
    -200001    1    1    2    0    0 -0.88885293967E+03 -0.15676388951E+03 -0.10224563208E+04  0.15329877342E+04  0.70000000000E+03 0.  1.
<mgrwt>
<rscale>  0 0.22955789E+04</rscale>
<asrwt>0</asrwt>
<pdfrwt beam="1">  1        2 0.39151699E+00 0.22955789E+04</pdfrwt>
<pdfrwt beam="2">  1       -2 0.68671698E-01 0.22955789E+04</pdfrwt>
<totfact> 0.57887079E+00</totfact>
</mgrwt>
</event>
<event>
 8    1  0.6876290E-010  0.1430674E+04  0.7818608E-02  0.8931909E-01
          2   -1    0    0  501    0  0.00000000000E+00  0.00000000000E+00  0.87370350383E+03  0.87370350384E+03  0.25500000000E-02 0.  1.
         -2   -1    0    0    0  501 -0.00000000000E+00 -0.00000000000E+00 -0.58567613310E+03  0.58567613311E+03  0.25500000000E-02 0. -1.
     200001    2    1    2    0    0 -0.35781711936E+02 -0.12192337705E+03  0.20959275355E+03  0.74362993911E+03  0.70207600957E+03 0.  0.
    5000001    2    3    3    0    0 -0.62805189619E+02 -0.21358019996E+02  0.54672166725E+02  0.20992210929E+03  0.19151394021E+03 0.  0.
        -11    1    4    4    0    0 -0.12588759585E+03 -0.25885594682E+02  0.55315818941E+02  0.13991994364E+03  0.51100000000E-03 0. -1.
     200002    1    4    4    0    0  0.63082406233E+02  0.45275746857E+01 -0.64365221551E+00  0.70002165659E+02  0.30000000000E+02 0. -1.
     200000    1    3    3    0    0  0.27023477683E+02 -0.10056535705E+03  0.15492058682E+03  0.53370782982E+03  0.50000000000E+03 0.  1.
    -200001    1    1    2    0    0  0.35781711936E+02  0.12192337705E+03  0.78434617184E+02  0.71574969784E+03  0.70000000000E+03 0.  1.
<mgrwt>
<rscale>  0 0.14306744E+04</rscale>
<asrwt>0</asrwt>
<pdfrwt beam="1">  1        2 0.12481479E+00 0.14306744E+04</pdfrwt>
<pdfrwt beam="2">  1       -2 0.83668019E-01 0.14306744E+04</pdfrwt>
<totfact> 0.41132415E+01</totfact>
</mgrwt>
</event>
<event>
 8    1  0.6876290E-010  0.1731364E+04  0.7818608E-02  0.8743676E-01
         -2   -1    0    0    0  501 -0.00000000000E+00  0.00000000000E+00  0.42337515260E+03  0.42337515260E+03  0.25500000000E-02 0. -1.
          2   -1    0    0  501    0  0.00000000000E+00 -0.00000000000E+00 -0.17700745348E+04  0.17700745348E+04  0.25500000000E-02 0.  1.
     200001    2    1    2    0    0 -0.16866633075E+03  0.45514946561E+02 -0.12792973112E+04  0.14688373906E+04  0.70025832954E+03 0.  0.
    5000001    2    3    3    0    0 -0.55475179018E+02  0.68225800142E+02 -0.41923424497E+03  0.46732029259E+03  0.18681179948E+03 0.  0.
        -11    1    4    4    0    0  0.12521991714E+02  0.11566693489E+03 -0.26974763219E+03  0.29376763807E+03  0.51100000000E-03 0. -1.
     200002    1    4    4    0    0 -0.67997170732E+02 -0.47441134746E+02 -0.14948661278E+03  0.17355265453E+03  0.30000000000E+02 0. -1.
     200000    1    3    3    0    0 -0.11319115173E+03 -0.22710853581E+02 -0.86006306626E+03  0.10015170980E+04  0.50000000000E+03 0.  1.
    -200001    1    1    2    0    0  0.16866633075E+03 -0.45514946561E+02 -0.67402070985E+02  0.72461229679E+03  0.70000000000E+03 0. -1.
<mgrwt>
<rscale>  0 0.17313643E+04</rscale>
<asrwt>0</asrwt>
<pdfrwt beam="1">  1        2 0.25286779E+00 0.17313643E+04</pdfrwt>
<pdfrwt beam="2">  1       -2 0.60482165E-01 0.17313643E+04</pdfrwt>
<totfact> 0.25557160E+01</totfact>
</mgrwt>
</event>
<event>
 8    1  0.6876290E-010  0.1749326E+04  0.7818608E-02  0.8733721E-01
          2   -1    0    0  501    0  0.00000000000E+00  0.00000000000E+00  0.14568461700E+04  0.14568461700E+04  0.25500000000E-02 0.  1.
         -2   -1    0    0    0  501 -0.00000000000E+00 -0.00000000000E+00 -0.52513131503E+03  0.52513131504E+03  0.25500000000E-02 0. -1.
     200001    2    1    2    0    0  0.51578049235E+03 -0.66346208773E+02  0.39094041700E+03  0.95588376201E+03  0.70031994197E+03 0.  0.
    5000001    2    3    3    0    0  0.25960946440E+03  0.44650890639E+02  0.19774332202E+03  0.35150882114E+03  0.12274059597E+03 0.  0.
        -11    1    4    4    0    0  0.17906788682E+03  0.16678818021E+02  0.18869748280E+03  0.26067265119E+03  0.51100000000E-03 0. -1.
     200002    1    4    4    0    0  0.80541577579E+02  0.27972072618E+02  0.90458392186E+01  0.90836169958E+02  0.30000000000E+02 0. -1.
     200000    1    3    3    0    0  0.25617102796E+03 -0.11099709941E+03  0.19319709497E+03  0.60437494087E+03  0.50000000000E+03 0. -1.
    -200001    1    1    2    0    0 -0.51578049235E+03  0.66346208773E+02  0.54077443801E+03  0.10260937231E+04  0.70000000000E+03 0.  1.
<mgrwt>
<rscale>  0 0.17493262E+04</rscale>
<asrwt>0</asrwt>
<pdfrwt beam="1">  1        2 0.20812088E+00 0.17493262E+04</pdfrwt>
<pdfrwt beam="2">  1       -2 0.75018759E-01 0.17493262E+04</pdfrwt>
<totfact> 0.23387774E+01</totfact>
</mgrwt>
</event>
<event>
 8    1  0.6876290E-010  0.2300687E+04  0.7818608E-02  0.8477650E-01
         -2   -1    0    0    0  501 -0.00000000000E+00  0.00000000000E+00  0.49838766648E+03  0.49838766649E+03  0.25500000000E-02 0. -1.
          2   -1    0    0  501    0  0.00000000000E+00 -0.00000000000E+00 -0.26551416637E+04  0.26551416637E+04  0.25500000000E-02 0.  1.
     200001    2    1    2    0    0  0.77990243944E+03  0.25214945865E+03 -0.16283222165E+04  0.19530846995E+04  0.70091328847E+03 0.  0.
    5000001    2    3    3    0    0  0.28306791387E+03  0.18904115759E+02 -0.37282646261E+03  0.49448347780E+03  0.15820723478E+03 0.  0.
        -11    1    4    4    0    0  0.26713864470E+03  0.17708089500E+02 -0.37461488643E+03  0.46044863455E+03  0.51100000000E-03 0. -1.
     200002    1    4    4    0    0  0.15929269178E+02  0.11960262589E+01  0.17884238197E+01  0.34034843251E+02  0.30000000000E+02 0. -1.
     200000    1    3    3    0    0  0.49683452557E+03  0.23324534289E+03 -0.12554957539E+04  0.14586012217E+04  0.50000000000E+03 0.  1.
    -200001    1    1    2    0    0 -0.77990243944E+03 -0.25214945865E+03 -0.52843178068E+03  0.12004446307E+04  0.70000000000E+03 0. -1.
<mgrwt>
<rscale>  0 0.23006867E+04</rscale>
<asrwt>0</asrwt>
<pdfrwt beam="1">  1        2 0.37930594E+00 0.23006867E+04</pdfrwt>
<pdfrwt beam="2">  1       -2 0.71198240E-01 0.23006867E+04</pdfrwt>
<totfact> 0.59454737E+00</totfact>
</mgrwt>
</event>
<event>
 8    1  0.6876290E-010  0.1610545E+04  0.7818608E-02  0.8814096E-01
          2   -1    0    0  501    0  0.00000000000E+00  0.00000000000E+00  0.10596883732E+04  0.10596883732E+04  0.25500000000E-02 0.  1.
         -2   -1    0    0    0  501 -0.00000000000E+00 -0.00000000000E+00 -0.61193809944E+03  0.61193809945E+03  0.25500000000E-02 0. -1.
     200001    2    1    2    0    0  0.18484105955E+03 -0.30315859225E+03  0.41171322754E+03  0.88589750023E+03  0.69945353657E+03 0.  0.
    5000001    2    3    3    0    0  0.16261934205E+02 -0.62341869140E+02  0.17208807685E+03  0.25833728122E+03  0.18158437577E+03 0.  0.
        -11    1    4    4    0    0 -0.48788303252E+02  0.42913273989E+02  0.65935728860E+02  0.92570880731E+02  0.51100000000E-03 0. -1.
     200002    1    4    4    0    0  0.65050237457E+02 -0.10525514313E+03  0.10615234799E+03  0.16576640049E+03  0.30000000000E+02 0. -1.
     200000    1    3    3    0    0  0.16857912535E+03 -0.24081672311E+03  0.23962515069E+03  0.62756021900E+03  0.50000000000E+03 0. -1.
    -200001    1    1    2    0    0 -0.18484105955E+03  0.30315859225E+03  0.36037046178E+02  0.78572897239E+03  0.70000000000E+03 0.  1.
<mgrwt>
<rscale>  0 0.16105449E+04</rscale>
<asrwt>0</asrwt>
<pdfrwt beam="1">  1        2 0.15138405E+00 0.16105449E+04</pdfrwt>
<pdfrwt beam="2">  1       -2 0.87419728E-01 0.16105449E+04</pdfrwt>
<totfact> 0.28030941E+01</totfact>
</mgrwt>
</event>
<event>
 8    1  0.6876290E-010  0.1484285E+04  0.7818608E-02  0.8894971E-01
          2   -1    0    0  501    0  0.00000000000E+00  0.00000000000E+00  0.83397190573E+03  0.83397190573E+03  0.25500000000E-02 0.  1.
         -2   -1    0    0    0  501 -0.00000000000E+00 -0.00000000000E+00 -0.66042495086E+03  0.66042495087E+03  0.25500000000E-02 0. -1.
     200001    2    1    2    0    0 -0.21798099235E+03  0.10712438156E+03  0.40427842809E+02  0.74159406426E+03  0.69952555316E+03 0.  0.
    5000001    2    3    3    0    0 -0.13579705680E+03  0.54742565621E+02  0.25354319884E+02  0.23196158394E+03  0.17811722478E+03 0.  0.
        -11    1    4    4    0    0  0.41651202570E+02  0.15199913979E+02  0.17087894402E+02  0.47516904317E+02  0.51100000000E-03 0. -1.
     200002    1    4    4    0    0 -0.17744825937E+03  0.39542651642E+02  0.82664254827E+01  0.18444467963E+03  0.30000000000E+02 0. -1.
     200000    1    3    3    0    0 -0.82183935550E+02  0.52381815935E+02  0.15073522925E+02  0.50963248032E+03  0.50000000000E+03 0. -1.
    -200001    1    1    2    0    0  0.21798099235E+03 -0.10712438156E+03  0.13311911206E+03  0.75280279233E+03  0.70000000000E+03 0.  1.
<mgrwt>
<rscale>  0 0.14842855E+04</rscale>
<asrwt>0</asrwt>
<pdfrwt beam="1">  1        2 0.11913884E+00 0.14842855E+04</pdfrwt>
<pdfrwt beam="2">  1       -2 0.94346422E-01 0.14842855E+04</pdfrwt>
<totfact> 0.33057621E+01</totfact>
</mgrwt>
</event>
<event>
 8    1  0.6876290E-010  0.1795068E+04  0.7818608E-02  0.8708927E-01
          2   -1    0    0  501    0  0.00000000000E+00  0.00000000000E+00  0.19646052260E+04  0.19646052260E+04  0.25500000000E-02 0.  1.
         -2   -1    0    0    0  501 -0.00000000000E+00 -0.00000000000E+00 -0.41004025156E+03  0.41004025156E+03  0.25500000000E-02 0. -1.
     200001    2    1    2    0    0 -0.66634205487E+02  0.51690652998E+03  0.49886685974E+03  0.10049261678E+04  0.69955413010E+03 0.  0.
    5000001    2    3    3    0    0 -0.95051553946E+02  0.26595321918E+03  0.75390702440E+02  0.30270315076E+03  0.78609966039E+02 0.  0.
        -11    1    4    4    0    0 -0.29002596233E+02  0.80575498824E+02 -0.97585378911E+01  0.86190432537E+02  0.51100000000E-03 0. -1.
     200002    1    4    4    0    0 -0.66048957714E+02  0.18537772036E+03  0.85149240331E+02  0.21651271822E+03  0.30000000000E+02 0. -1.
     200000    1    3    3    0    0  0.28417348459E+02  0.25095331080E+03  0.42347615730E+03  0.70222301707E+03  0.50000000000E+03 0.  1.
    -200001    1    1    2    0    0  0.66634205487E+02 -0.51690652998E+03  0.10556981147E+04  0.13697193097E+04  0.70000000000E+03 0. -1.
<mgrwt>
<rscale>  0 0.17950679E+04</rscale>
<asrwt>0</asrwt>
<pdfrwt beam="1">  1        2 0.28065789E+00 0.17950679E+04</pdfrwt>
<pdfrwt beam="2">  1       -2 0.58577178E-01 0.17950679E+04</pdfrwt>
<totfact> 0.21590288E+01</totfact>
</mgrwt>
</event>
<event>
 8    1  0.6876290E-010  0.2081101E+04  0.7818608E-02  0.8569615E-01
          2   -1    0    0  501    0  0.00000000000E+00  0.00000000000E+00  0.30189043127E+04  0.30189043127E+04  0.25500000000E-02 0.  1.
         -2   -1    0    0    0  501 -0.00000000000E+00 -0.00000000000E+00 -0.35865493394E+03  0.35865493395E+03  0.25500000000E-02 0. -1.
     200001    2    1    2    0    0 -0.19537706357E+02 -0.64578151514E+03  0.65026098120E+03  0.11532686079E+04  0.69983830350E+03 0.  0.
    5000001    2    3    3    0    0 -0.33682936111E+02 -0.22381084473E+03  0.11340363174E+03  0.30682005786E+03  0.17335607808E+03 0.  0.
        -11    1    4    4    0    0 -0.74430625960E+02 -0.20206100404E+03  0.46740359326E+02  0.22034797168E+03  0.51100000000E-03 0. -1.
     200002    1    4    4    0    0  0.40747689848E+02 -0.21749840686E+02  0.66663272417E+02  0.86472086173E+02  0.30000000000E+02 0. -1.
     200000    1    3    3    0    0  0.14145229755E+02 -0.42197067041E+03  0.53685734946E+03  0.84644855005E+03  0.50000000000E+03 0. -1.
    -200001    1    1    2    0    0  0.19537706357E+02  0.64578151514E+03  0.20099883975E+04  0.22242906387E+04  0.70000000000E+03 0.  1.
<mgrwt>
<rscale>  0 0.20811006E+04</rscale>
<asrwt>0</asrwt>
<pdfrwt beam="1">  1        2 0.43127208E+00 0.20811006E+04</pdfrwt>
<pdfrwt beam="2">  1       -2 0.51236415E-01 0.20811006E+04</pdfrwt>
<totfact> 0.76825921E+00</totfact>
</mgrwt>
</event>
<event>
 8    1  0.6876290E-010  0.1657655E+04  0.7818608E-02  0.8785890E-01
          2   -1    0    0  501    0  0.00000000000E+00  0.00000000000E+00  0.31670248072E+03  0.31670248073E+03  0.25500000000E-02 0.  1.
         -2   -1    0    0    0  501 -0.00000000000E+00 -0.00000000000E+00 -0.21690873134E+04  0.21690873134E+04  0.25500000000E-02 0. -1.
     200001    2    1    2    0    0 -0.11407843302E+03  0.12106494575E+03 -0.30629682418E+03  0.78048667152E+03  0.69833451150E+03 0.  0.
    5000001    2    3    3    0    0 -0.61667192607E+01  0.10661879320E+03 -0.12443191318E+03  0.23741349492E+03  0.17168654887E+03 0.  0.
        -11    1    4    4    0    0 -0.20607288172E+02  0.17944774122E+02 -0.13893001370E+03  0.14159175100E+03  0.51100000000E-03 0. -1.
     200002    1    4    4    0    0  0.14440568912E+02  0.88674019076E+02  0.14498100520E+02  0.95821743922E+02  0.30000000000E+02 0. -1.
     200000    1    3    3    0    0 -0.10791171376E+03  0.14446152550E+02 -0.18186491099E+03  0.54307317660E+03  0.50000000000E+03 0.  1.
    -200001    1    1    2    0    0  0.11407843302E+03 -0.12106494575E+03 -0.15460880085E+04  0.17053031226E+04  0.70000000000E+03 0. -1.
<mgrwt>
<rscale>  0 0.16576554E+04</rscale>
<asrwt>0</asrwt>
<pdfrwt beam="1">  1        2 0.45243213E-01 0.16576554E+04</pdfrwt>
<pdfrwt beam="2">  1       -2 0.30986961E+00 0.16576554E+04</pdfrwt>
<totfact> 0.29794132E+00</totfact>
</mgrwt>
</event>
<event>
 8    1  0.6876290E-010  0.1548825E+04  0.7818608E-02  0.8852619E-01
         -2   -1    0    0    0  501 -0.00000000000E+00  0.00000000000E+00  0.58379635692E+03  0.58379635693E+03  0.25500000000E-02 0. -1.
          2   -1    0    0  501    0  0.00000000000E+00 -0.00000000000E+00 -0.10272667147E+04  0.10272667147E+04  0.25500000000E-02 0.  1.
     200001    2    1    2    0    0  0.30055220451E+03  0.13996665471E+03 -0.22689172471E+03  0.80680652279E+03  0.69966750560E+03 0.  0.
    5000001    2    3    3    0    0  0.15199207050E+03  0.28915748013E+02 -0.11153158287E+03  0.26117809645E+03  0.17842924119E+03 0.  0.
        -11    1    4    4    0    0  0.13572081111E+03 -0.49456630626E+02 -0.40458639025E+02  0.15000999418E+03  0.51100000000E-03 0. -1.
     200002    1    4    4    0    0  0.16271259385E+02  0.78372378639E+02 -0.71072943848E+02  0.11116810227E+03  0.30000000000E+02 0. -1.
     200000    1    3    3    0    0  0.14856013402E+03  0.11105090670E+03 -0.11536014184E+03  0.54562842633E+03  0.50000000000E+03 0.  1.
    -200001    1    1    2    0    0 -0.30055220451E+03 -0.13996665471E+03 -0.21657863308E+03  0.80425654885E+03  0.70000000000E+03 0. -1.
<mgrwt>
<rscale>  0 0.15488248E+04</rscale>
<asrwt>0</asrwt>
<pdfrwt beam="1">  1        2 0.14675239E+00 0.15488248E+04</pdfrwt>
<pdfrwt beam="2">  1       -2 0.83399480E-01 0.15488248E+04</pdfrwt>
<totfact> 0.32801473E+01</totfact>
</mgrwt>
</event>
<event>
 8    1  0.6876290E-010  0.1448056E+04  0.7818608E-02  0.8919750E-01
         -2   -1    0    0    0  501 -0.00000000000E+00  0.00000000000E+00  0.14206551934E+03  0.14206551936E+03  0.25500000000E-02 0. -1.
          2   -1    0    0  501    0  0.00000000000E+00 -0.00000000000E+00 -0.36899616645E+04  0.36899616645E+04  0.25500000000E-02 0.  1.
     200001    2    1    2    0    0  0.23199944371E+02  0.85566541719E+02 -0.13420047481E+04  0.15160356627E+04  0.69966243015E+03 0.  0.
    5000001    2    3    3    0    0 -0.18843861388E+02  0.11377235997E+03 -0.43155462856E+03  0.47609207290E+03  0.16469676209E+03 0.  0.
        -11    1    4    4    0    0  0.45686480167E+02  0.54536671762E+02 -0.59671565696E+02  0.92855795672E+02  0.51100000000E-03 0. -1.
     200002    1    4    4    0    0 -0.64530341555E+02  0.59235688204E+02 -0.37188306287E+03  0.38323627723E+03  0.30000000000E+02 0. -1.
     200000    1    3    3    0    0  0.42043805759E+02 -0.28205818247E+02 -0.91045011958E+03  0.10399435898E+04  0.50000000000E+03 0. -1.
    -200001    1    1    2    0    0 -0.23199944371E+02 -0.85566541719E+02 -0.22058913970E+04  0.23159915211E+04  0.70000000000E+03 0.  1.
<mgrwt>
<rscale>  0 0.14480557E+04</rscale>
<asrwt>0</asrwt>
<pdfrwt beam="1">  1        2 0.52713732E+00 0.14480557E+04</pdfrwt>
<pdfrwt beam="2">  1       -2 0.20295077E-01 0.14480557E+04</pdfrwt>
<totfact> 0.18769583E+01</totfact>
</mgrwt>
</event>
<event>
 8    1  0.6876290E-010  0.1512838E+04  0.7818608E-02  0.8875961E-01
         -2   -1    0    0    0  501 -0.00000000000E+00  0.00000000000E+00  0.13262293298E+04  0.13262293298E+04  0.25500000000E-02 0. -1.
          2   -1    0    0  501    0  0.00000000000E+00 -0.00000000000E+00 -0.43142569419E+03  0.43142569420E+03  0.25500000000E-02 0.  1.
     200001    2    1    2    0    0 -0.18760799237E+03  0.15713802271E+03  0.62333189518E+03  0.96798039299E+03  0.69896657480E+03 0.  0.
    5000001    2    3    3    0    0  0.35949186207E+02  0.87983254430E+02  0.86407792832E+02  0.19788449912E+03  0.15052764292E+03 0.  0.
        -11    1    4    4    0    0 -0.25638175069E+02  0.80878213093E+02 -0.31538945738E+01  0.84903170878E+02  0.51100000000E-03 0. -1.
     200002    1    4    4    0    0  0.61587361276E+02  0.71050413378E+01  0.89561687406E+02  0.11298132825E+03  0.30000000000E+02 0. -1.
     200000    1    3    3    0    0 -0.22355717858E+03  0.69154768284E+02  0.53692410234E+03  0.77009589386E+03  0.50000000000E+03 0. -1.
    -200001    1    1    2    0    0  0.18760799237E+03 -0.15713802271E+03  0.27147174041E+03  0.78967463099E+03  0.70000000000E+03 0.  1.
<mgrwt>
<rscale>  0 0.15128376E+04</rscale>
<asrwt>0</asrwt>
<pdfrwt beam="1">  1        2 0.61632242E-01 0.15128376E+04</pdfrwt>
<pdfrwt beam="2">  1       -2 0.18946133E+00 0.15128376E+04</pdfrwt>
<totfact> 0.11994004E+01</totfact>
</mgrwt>
</event>
<event>
 8    1  0.6876290E-010  0.2325463E+04  0.7818608E-02  0.8467949E-01
          2   -1    0    0  501    0  0.00000000000E+00  0.00000000000E+00  0.14250965804E+04  0.14250965804E+04  0.25500000000E-02 0.  1.
         -2   -1    0    0    0  501 -0.00000000000E+00 -0.00000000000E+00 -0.94866860176E+03  0.94866860176E+03  0.25500000000E-02 0. -1.
     200001    2    1    2    0    0  0.48957616570E+03 -0.77259874776E+03  0.40068880854E+03  0.12194991518E+04  0.70002358018E+03 0.  0.
    5000001    2    3    3    0    0  0.15959719520E+03 -0.13345354302E+03  0.10528966531E+03  0.29502450770E+03  0.18075517602E+03 0.  0.
        -11    1    4    4    0    0 -0.12011768213E+02 -0.96836180292E+02  0.37099143264E+02  0.10439288683E+03  0.51100000000E-03 0. -1.
     200002    1    4    4    0    0  0.17160896342E+03 -0.36617362732E+02  0.68190522046E+02  0.19063162087E+03  0.30000000000E+02 0. -1.
     200000    1    3    3    0    0  0.32997897050E+03 -0.63914520474E+03  0.29539914323E+03  0.92447464407E+03  0.50000000000E+03 0. -1.
    -200001    1    1    2    0    0 -0.48957616570E+03  0.77259874776E+03  0.75739170118E+02  0.11542660304E+04  0.70000000000E+03 0.  1.
<mgrwt>
<rscale>  0 0.23254629E+04</rscale>
<asrwt>0</asrwt>
<pdfrwt beam="1">  1        2 0.20358522E+00 0.23254629E+04</pdfrwt>
<pdfrwt beam="2">  1       -2 0.13552409E+00 0.23254629E+04</pdfrwt>
<totfact> 0.56984136E+00</totfact>
</mgrwt>
</event>
<event>
 8    1  0.6876290E-010  0.1468643E+04  0.7818608E-02  0.8905577E-01
         -2   -1    0    0    0  501 -0.00000000000E+00  0.00000000000E+00  0.54044896410E+03  0.54044896411E+03  0.25500000000E-02 0. -1.
          2   -1    0    0  501    0  0.00000000000E+00 -0.00000000000E+00 -0.99774157933E+03  0.99774157933E+03  0.25500000000E-02 0.  1.
     200001    2    1    2    0    0 -0.11893426858E+03 -0.12518623389E+03 -0.37221372162E+03  0.81220475051E+03  0.70093976117E+03 0.  0.
    5000001    2    3    3    0    0 -0.78446986082E+02 -0.14136686745E+03 -0.17930913365E+03  0.27451226125E+03  0.13063956264E+03 0.  0.
        -11    1    4    4    0    0 -0.17872251844E+02  0.16334358485E+02  0.27208106853E+01  0.24364553436E+02  0.51100000000E-03 0. -1.
     200002    1    4    4    0    0 -0.60574734238E+02 -0.15770122594E+03 -0.18202994434E+03  0.25014770782E+03  0.30000000000E+02 0. -1.
     200000    1    3    3    0    0 -0.40487282499E+02  0.16180633557E+02 -0.19290458797E+03  0.53769248926E+03  0.50000000000E+03 0.  1.
    -200001    1    1    2    0    0  0.11893426858E+03  0.12518623389E+03 -0.85078893599E+02  0.72598579293E+03  0.70000000000E+03 0. -1.
<mgrwt>
<rscale>  0 0.14686435E+04</rscale>
<asrwt>0</asrwt>
<pdfrwt beam="1">  1        2 0.14253451E+00 0.14686435E+04</pdfrwt>
<pdfrwt beam="2">  1       -2 0.77206995E-01 0.14686435E+04</pdfrwt>
<totfact> 0.40926223E+01</totfact>
</mgrwt>
</event>
<event>
 8    1  0.6876290E-010  0.1828868E+04  0.7818608E-02  0.8691097E-01
         -2   -1    0    0    0  501 -0.00000000000E+00  0.00000000000E+00  0.28640186095E+03  0.28640186096E+03  0.25500000000E-02 0. -1.
          2   -1    0    0  501    0  0.00000000000E+00 -0.00000000000E+00 -0.29196359922E+04  0.29196359922E+04  0.25500000000E-02 0.  1.
     200001    2    1    2    0    0  0.39984470572E+03  0.20662272311E+01 -0.56006235624E+03  0.98164551665E+03  0.70005572600E+03 0.  0.
    5000001    2    3    3    0    0  0.33194511657E+01 -0.69029159807E+02  0.51617104019E+01  0.12621283253E+03  0.10548455897E+03 0.  0.
        -11    1    4    4    0    0  0.31369411875E+02 -0.50168568691E+02 -0.32389630306E+02  0.67453787421E+02  0.51100000000E-03 0. -1.
     200002    1    4    4    0    0 -0.28049960709E+02 -0.18860591117E+02  0.37551340708E+02  0.58759045108E+02  0.30000000000E+02 0. -1.
     200000    1    3    3    0    0  0.39652525456E+03  0.71095387039E+02 -0.56522406664E+03  0.85543268412E+03  0.50000000000E+03 0. -1.
    -200001    1    1    2    0    0 -0.39984470572E+03 -0.20662272311E+01 -0.20731717751E+04  0.22243923365E+04  0.70000000000E+03 0. -1.
<mgrwt>
<rscale>  0 0.18288676E+04</rscale>
<asrwt>0</asrwt>
<pdfrwt beam="1">  1        2 0.41709084E+00 0.18288676E+04</pdfrwt>
<pdfrwt beam="2">  1       -2 0.40914553E-01 0.18288676E+04</pdfrwt>
<totfact> 0.13997436E+01</totfact>
</mgrwt>
</event>
<event>
 8    1  0.6876290E-010  0.1524681E+04  0.7818608E-02  0.8868204E-01
         -2   -1    0    0    0  501 -0.00000000000E+00  0.00000000000E+00  0.31354593220E+03  0.31354593221E+03  0.25500000000E-02 0. -1.
          2   -1    0    0  501    0  0.00000000000E+00 -0.00000000000E+00 -0.18535192026E+04  0.18535192026E+04  0.25500000000E-02 0.  1.
     200001    2    1    2    0    0  0.26114048296E+03  0.13190537636E+03 -0.67074973082E+03  0.10133134536E+04  0.70093193228E+03 0.  0.
    5000001    2    3    3    0    0  0.21751079992E+02 -0.23370401622E+02 -0.75672099351E+02  0.18534289798E+03  0.16615185241E+03 0.  0.
        -11    1    4    4    0    0  0.28933890431E+01  0.34806721666E+02  0.38757253081E+02  0.52172830477E+02  0.51100000000E-03 0. -1.
     200002    1    4    4    0    0  0.18857690949E+02 -0.58177123288E+02 -0.11442935243E+03  0.13317006751E+03  0.30000000000E+02 0. -1.
     200000    1    3    3    0    0  0.23938940297E+03  0.15527577798E+03 -0.59507763147E+03  0.82797055561E+03  0.50000000000E+03 0. -1.
    -200001    1    1    2    0    0 -0.26114048296E+03 -0.13190537636E+03 -0.86922353960E+03  0.11537516812E+04  0.70000000000E+03 0. -1.
<mgrwt>
<rscale>  0 0.15246815E+04</rscale>
<asrwt>0</asrwt>
<pdfrwt beam="1">  1        2 0.26478845E+00 0.15246815E+04</pdfrwt>
<pdfrwt beam="2">  1       -2 0.44792277E-01 0.15246815E+04</pdfrwt>
<totfact> 0.43587073E+01</totfact>
</mgrwt>
</event>
<event>
 8    1  0.6876290E-010  0.1402013E+04  0.7818608E-02  0.8952363E-01
          2   -1    0    0  501    0  0.00000000000E+00  0.00000000000E+00  0.13164981502E+04  0.13164981502E+04  0.25500000000E-02 0.  1.
         -2   -1    0    0    0  501 -0.00000000000E+00 -0.00000000000E+00 -0.37327038581E+03  0.37327038582E+03  0.25500000000E-02 0. -1.
     200001    2    1    2    0    0 -0.32990196877E+02  0.61005379626E+02  0.39858480175E+03  0.80013604663E+03  0.69031720209E+03 0.  0.
    5000001    2    3    3    0    0 -0.11653855315E+03  0.18306424726E+02  0.99106828438E+02  0.20980513512E+03  0.14240671235E+03 0.  0.
        -11    1    4    4    0    0  0.15888789679E+02  0.39655996925E+02  0.45109004833E+02  0.62127884616E+02  0.51100000000E-03 0. -1.
     200002    1    4    4    0    0 -0.13242734283E+03 -0.21349572199E+02  0.53997823605E+02  0.14767725050E+03  0.30000000000E+02 0. -1.
     200000    1    3    3    0    0  0.83548356274E+02  0.42698954900E+02  0.29947797331E+03  0.59033091151E+03  0.50000000000E+03 0. -1.
    -200001    1    1    2    0    0  0.32990196877E+02 -0.61005379626E+02  0.54464296265E+03  0.88963248940E+03  0.70000000000E+03 0. -1.
<mgrwt>
<rscale>  0 0.14020125E+04</rscale>
<asrwt>0</asrwt>
<pdfrwt beam="1">  1        2 0.18807116E+00 0.14020125E+04</pdfrwt>
<pdfrwt beam="2">  1       -2 0.53324341E-01 0.14020125E+04</pdfrwt>
<totfact> 0.59360505E+01</totfact>
</mgrwt>
</event>
<event>
 8    1  0.6876290E-010  0.3272837E+04  0.7818608E-02  0.8169842E-01
         -2   -1    0    0    0  501 -0.00000000000E+00  0.00000000000E+00  0.78591808394E+03  0.78591808395E+03  0.25500000000E-02 0. -1.
          2   -1    0    0  501    0  0.00000000000E+00 -0.00000000000E+00 -0.34073088726E+04  0.34073088726E+04  0.25500000000E-02 0.  1.
     200001    2    1    2    0    0  0.78690309390E+03  0.11938512153E+04 -0.82602457802E+03  0.17936776168E+04  0.70033248260E+03 0.  0.
    5000001    2    3    3    0    0  0.19678112223E+03  0.31371063895E+03 -0.75067098561E+02  0.40197775281E+03  0.13716365922E+03 0.  0.
        -11    1    4    4    0    0  0.92968272772E+02  0.18556101681E+03  0.21275592512E+02  0.20863518768E+03  0.51100000000E-03 0. -1.
     200002    1    4    4    0    0  0.10381284945E+03  0.12814962215E+03 -0.96342691073E+02  0.19334256513E+03  0.30000000000E+02 0. -1.
     200000    1    3    3    0    0  0.59012197168E+03  0.88014057634E+03 -0.75095747946E+03  0.13916998640E+04  0.50000000000E+03 0. -1.
    -200001    1    1    2    0    0 -0.78690309390E+03 -0.11938512153E+04 -0.17953662107E+04  0.23995493398E+04  0.70000000000E+03 0.  1.
<mgrwt>
<rscale>  0 0.32728371E+04</rscale>
<asrwt>0</asrwt>
<pdfrwt beam="1">  1        2 0.48675840E+00 0.32728371E+04</pdfrwt>
<pdfrwt beam="2">  1       -2 0.11227401E+00 0.32728371E+04</pdfrwt>
<totfact> 0.72108553E-01</totfact>
</mgrwt>
</event>
<event>
 8    1  0.6876290E-010  0.1568841E+04  0.7818608E-02  0.8839922E-01
         -2   -1    0    0    0  501 -0.00000000000E+00  0.00000000000E+00  0.23600570995E+03  0.23600570996E+03  0.25500000000E-02 0. -1.
          2   -1    0    0  501    0  0.00000000000E+00 -0.00000000000E+00 -0.26072071699E+04  0.26072071699E+04  0.25500000000E-02 0.  1.
     200001    2    1    2    0    0  0.35214617933E+03 -0.22873627654E+02 -0.12495622294E+04  0.14747814063E+04  0.69931702155E+03 0.  0.
    5000001    2    3    3    0    0  0.72325946575E+02 -0.33117702955E+02 -0.42451465607E+03  0.47023782731E+03  0.18596530919E+03 0.  0.
        -11    1    4    4    0    0 -0.24439896579E+01  0.65608219483E+01 -0.35901723695E+03  0.35908549664E+03  0.51100000000E-03 0. -1.
     200002    1    4    4    0    0  0.74769936233E+02 -0.39678524903E+02 -0.65497419121E+02  0.11115233067E+03  0.30000000000E+02 0. -1.
     200000    1    3    3    0    0  0.27982023276E+03  0.10244075300E+02 -0.82504757335E+03  0.10045435790E+04  0.50000000000E+03 0. -1.
    -200001    1    1    2    0    0 -0.35214617933E+03  0.22873627654E+02 -0.11216392306E+04  0.13684314736E+04  0.70000000000E+03 0.  1.
<mgrwt>
<rscale>  0 0.15688413E+04</rscale>
<asrwt>0</asrwt>
<pdfrwt beam="1">  1        2 0.37245815E+00 0.15688413E+04</pdfrwt>
<pdfrwt beam="2">  1       -2 0.33715103E-01 0.15688413E+04</pdfrwt>
<totfact> 0.30685370E+01</totfact>
</mgrwt>
</event>
<event>
 8    1  0.6876290E-010  0.1969169E+04  0.7818608E-02  0.8621172E-01
          2   -1    0    0  501    0  0.00000000000E+00  0.00000000000E+00  0.24140783373E+04  0.24140783373E+04  0.25500000000E-02 0.  1.
         -2   -1    0    0    0  501 -0.00000000000E+00 -0.00000000000E+00 -0.40156381234E+03  0.40156381235E+03  0.25500000000E-02 0. -1.
     200001    2    1    2    0    0  0.58079267641E+02 -0.24678939275E+02  0.20935427050E+02  0.70368344868E+03  0.70053540415E+03 0.  0.
    5000001    2    3    3    0    0 -0.92773872791E+01  0.26262202277E+02 -0.13102996360E+03  0.17432024745E+03  0.11154785577E+03 0.  0.
        -11    1    4    4    0    0 -0.26929102440E+02 -0.28500384045E+02 -0.88332306251E+02  0.96643907086E+02  0.51100000000E-03 0. -1.
     200002    1    4    4    0    0  0.17651715161E+02  0.54762586322E+02 -0.42697657346E+02  0.77676340360E+02  0.30000000000E+02 0. -1.
     200000    1    3    3    0    0  0.67356654920E+02 -0.50941141552E+02  0.15196539065E+03  0.52936320123E+03  0.50000000000E+03 0. -1.
    -200001    1    1    2    0    0 -0.58079267641E+02  0.24678939275E+02  0.19915790980E+04  0.21119587010E+04  0.70000000000E+03 0.  1.
<mgrwt>
<rscale>  0 0.19691689E+04</rscale>
<asrwt>0</asrwt>
<pdfrwt beam="1">  1        2 0.34486834E+00 0.19691689E+04</pdfrwt>
<pdfrwt beam="2">  1       -2 0.57366257E-01 0.19691689E+04</pdfrwt>
<totfact> 0.13017760E+01</totfact>
</mgrwt>
</event>
<event>
 8    1  0.6876290E-010  0.1743191E+04  0.7818608E-02  0.8737107E-01
          2   -1    0    0  501    0  0.00000000000E+00  0.00000000000E+00  0.23675312892E+04  0.23675312892E+04  0.25500000000E-02 0.  1.
         -2   -1    0    0    0  501 -0.00000000000E+00 -0.00000000000E+00 -0.32087395086E+03  0.32087395087E+03  0.25500000000E-02 0. -1.
     200001    2    1    2    0    0  0.51446449624E+03  0.31193728794E+02  0.93600922060E+03  0.12780201834E+04  0.70112449791E+03 0.  0.
    5000001    2    3    3    0    0  0.22050802732E+03 -0.38238915838E+02  0.39023539381E+03  0.47858265130E+03  0.16331468624E+03 0.  0.
        -11    1    4    4    0    0  0.23291151696E+03 -0.33608131703E+02  0.37428875663E+03  0.44211916333E+03  0.51100000000E-03 0. -1.
     200002    1    4    4    0    0 -0.12403489638E+02 -0.46307841349E+01  0.15946637184E+02  0.36463487962E+02  0.30000000000E+02 0.  1.
     200000    1    3    3    0    0  0.29395646892E+03  0.69432644632E+02  0.54577382679E+03  0.79943753212E+03  0.50000000000E+03 0.  1.
    -200001    1    1    2    0    0 -0.51446449624E+03 -0.31193728794E+02  0.11106481177E+04  0.14103850567E+04  0.70000000000E+03 0. -1.
<mgrwt>
<rscale>  0 0.17431915E+04</rscale>
<asrwt>0</asrwt>
<pdfrwt beam="1">  1        2 0.33821875E+00 0.17431915E+04</pdfrwt>
<pdfrwt beam="2">  1       -2 0.45839137E-01 0.17431915E+04</pdfrwt>
<totfact> 0.22207843E+01</totfact>
</mgrwt>
</event>
<event>
 8    1  0.6876290E-010  0.1605768E+04  0.7818608E-02  0.8817012E-01
         -2   -1    0    0    0  501 -0.00000000000E+00  0.00000000000E+00  0.79874094661E+03  0.79874094661E+03  0.25500000000E-02 0. -1.
          2   -1    0    0  501    0  0.00000000000E+00 -0.00000000000E+00 -0.80704879601E+03  0.80704879602E+03  0.25500000000E-02 0.  1.
     200001    2    1    2    0    0  0.13052275237E+03  0.25902010775E+03 -0.26987196596E+03  0.80420169870E+03  0.69984418914E+03 0.  0.
    5000001    2    3    3    0    0  0.20376383141E+02  0.50232403919E+02 -0.95716090579E+02  0.22449936400E+03  0.19570361021E+03 0.  0.
        -11    1    4    4    0    0  0.44651888905E+02  0.38024644388E+02 -0.14752398408E+03  0.15875449803E+03  0.51100000000E-03 0. -1.
     200002    1    4    4    0    0 -0.24275505764E+02  0.12207759532E+02  0.51807893503E+02  0.65744865976E+02  0.30000000000E+02 0. -1.
     200000    1    3    3    0    0  0.11014636923E+03  0.20878770383E+03 -0.17415587538E+03  0.57970233470E+03  0.50000000000E+03 0.  1.
    -200001    1    1    2    0    0 -0.13052275237E+03 -0.25902010775E+03  0.26156411655E+03  0.80158804393E+03  0.70000000000E+03 0. -1.
<mgrwt>
<rscale>  0 0.16057683E+04</rscale>
<asrwt>0</asrwt>
<pdfrwt beam="1">  1        2 0.11529269E+00 0.16057683E+04</pdfrwt>
<pdfrwt beam="2">  1       -2 0.11410585E+00 0.16057683E+04</pdfrwt>
<totfact> 0.21701408E+01</totfact>
</mgrwt>
</event>
<event>
 8    1  0.6876290E-010  0.1623812E+04  0.7818608E-02  0.8806052E-01
         -2   -1    0    0    0  501 -0.00000000000E+00  0.00000000000E+00  0.18888286033E+03  0.18888286035E+03  0.25500000000E-02 0. -1.
          2   -1    0    0  501    0  0.00000000000E+00 -0.00000000000E+00 -0.34899474602E+04  0.34899474602E+04  0.25500000000E-02 0.  1.
     200001    2    1    2    0    0 -0.36993592815E+03  0.25101825855E+02 -0.12488099970E+04  0.14790049530E+04  0.70031889155E+03 0.  0.
    5000001    2    3    3    0    0 -0.17231089254E+03 -0.86024282509E+02 -0.34037603992E+03  0.41756398856E+03  0.14633049963E+03 0.  0.
        -11    1    4    4    0    0 -0.65085145641E+02 -0.79810342814E+02 -0.26128381270E+03  0.28084692945E+03  0.51100000000E-03 0. -1.
     200002    1    4    4    0    0 -0.10722574690E+03 -0.62139396951E+01 -0.79092227221E+02  0.13671705911E+03  0.30000000000E+02 0. -1.
     200000    1    3    3    0    0 -0.19762503561E+03  0.11112610836E+03 -0.90843395704E+03  0.10614409644E+04  0.50000000000E+03 0. -1.
    -200001    1    1    2    0    0  0.36993592815E+03 -0.25101825855E+02 -0.20522546029E+04  0.21998253676E+04  0.70000000000E+03 0.  1.
<mgrwt>
<rscale>  0 0.16238119E+04</rscale>
<asrwt>0</asrwt>
<pdfrwt beam="1">  1        2 0.49856388E+00 0.16238119E+04</pdfrwt>
<pdfrwt beam="2">  1       -2 0.26983268E-01 0.16238119E+04</pdfrwt>
<totfact> 0.14708474E+01</totfact>
</mgrwt>
</event>
<event>
 8    1  0.6876290E-010  0.1492786E+04  0.7818608E-02  0.8889265E-01
         -2   -1    0    0    0  501 -0.00000000000E+00  0.00000000000E+00  0.49033322491E+03  0.49033322492E+03  0.25500000000E-02 0. -1.
          2   -1    0    0  501    0  0.00000000000E+00 -0.00000000000E+00 -0.11361707887E+04  0.11361707887E+04  0.25500000000E-02 0.  1.
     200001    2    1    2    0    0  0.96596364998E+02  0.10487698187E+03 -0.56172260833E+03  0.90719506417E+03  0.69795455202E+03 0.  0.
    5000001    2    3    3    0    0  0.22326597499E+02  0.62072592088E+02 -0.18843167487E+03  0.27735831139E+03  0.19253481025E+03 0.  0.
        -11    1    4    4    0    0  0.19306468481E+02 -0.12098954269E+02  0.34015242097E+02  0.40940946677E+02  0.51100000000E-03 0. -1.
     200002    1    4    4    0    0  0.30201290173E+01  0.74171546357E+02 -0.22244691697E+03  0.23641736471E+03  0.30000000000E+02 0. -1.
     200000    1    3    3    0    0  0.74269767499E+02  0.42804389782E+02 -0.37329093346E+03  0.62983675278E+03  0.50000000000E+03 0. -1.
    -200001    1    1    2    0    0 -0.96596364998E+02 -0.10487698187E+03 -0.84114955483E+02  0.71930894947E+03  0.70000000000E+03 0. -1.
<mgrwt>
<rscale>  0 0.14927857E+04</rscale>
<asrwt>0</asrwt>
<pdfrwt beam="1">  1        2 0.16231011E+00 0.14927857E+04</pdfrwt>
<pdfrwt beam="2">  1       -2 0.70047604E-01 0.14927857E+04</pdfrwt>
<totfact> 0.41821217E+01</totfact>
</mgrwt>
</event>
<event>
 8    1  0.6876290E-010  0.2574589E+04  0.7818608E-02  0.8376884E-01
          2   -1    0    0  501    0  0.00000000000E+00  0.00000000000E+00  0.21479404569E+04  0.21479404569E+04  0.25500000000E-02 0.  1.
         -2   -1    0    0    0  501 -0.00000000000E+00 -0.00000000000E+00 -0.77149599868E+03  0.77149599868E+03  0.25500000000E-02 0. -1.
     200001    2    1    2    0    0  0.42745820790E+02  0.59402483226E+03  0.17101533238E+04  0.19416561563E+04  0.70050805265E+03 0.  0.
    5000001    2    3    3    0    0  0.93332031692E+02  0.95979083435E+02  0.29503446472E+03  0.35951522768E+03  0.15583007080E+03 0.  0.
        -11    1    4    4    0    0 -0.27643158764E+02  0.35016365578E+02  0.15924271125E+03  0.16537391321E+03  0.51100000000E-03 0. -1.
     200002    1    4    4    0    0  0.12097519046E+03  0.60962717857E+02  0.13579175347E+03  0.19414131447E+03  0.30000000000E+02 0. -1.
     200000    1    3    3    0    0 -0.50586210902E+02  0.49804574882E+03  0.14151188591E+04  0.15821409286E+04  0.50000000000E+03 0.  1.
    -200001    1    1    2    0    0 -0.42745820790E+02 -0.59402483226E+03 -0.33370886565E+03  0.97778029922E+03  0.70000000000E+03 0. -1.
<mgrwt>
<rscale>  0 0.25745893E+04</rscale>
<asrwt>0</asrwt>
<pdfrwt beam="1">  1        2 0.30684864E+00 0.25745893E+04</pdfrwt>
<pdfrwt beam="2">  1       -2 0.11021371E+00 0.25745893E+04</pdfrwt>
<totfact> 0.39249595E+00</totfact>
</mgrwt>
</event>
<event>
 8    1  0.6876290E-010  0.1917138E+04  0.7818608E-02  0.8646373E-01
          2   -1    0    0  501    0  0.00000000000E+00  0.00000000000E+00  0.12021711170E+04  0.12021711170E+04  0.25500000000E-02 0.  1.
         -2   -1    0    0    0  501 -0.00000000000E+00 -0.00000000000E+00 -0.76432885602E+03  0.76432885603E+03  0.25500000000E-02 0. -1.
     200001    2    1    2    0    0  0.37219571745E+03 -0.21360724545E+03 -0.28856336117E+03  0.87022316707E+03  0.69990130712E+03 0.  0.
    5000001    2    3    3    0    0  0.15152158273E+03 -0.46747054320E+02 -0.87217059356E+02  0.26435211613E+03  0.19269444397E+03 0.  0.
        -11    1    4    4    0    0  0.89242180156E+02 -0.75315169489E+02  0.34256267757E+02  0.12169648045E+03  0.51100000000E-03 0. -1.
     200002    1    4    4    0    0  0.62279402576E+02  0.28568115169E+02 -0.12147332711E+03  0.14265563567E+03  0.30000000000E+02 0. -1.
     200000    1    3    3    0    0  0.22067413472E+03 -0.16686019113E+03 -0.20134630181E+03  0.60587105094E+03  0.50000000000E+03 0. -1.
    -200001    1    1    2    0    0 -0.37219571745E+03  0.21360724545E+03  0.72640562215E+03  0.10962768060E+04  0.70000000000E+03 0.  1.
<mgrwt>
<rscale>  0 0.19171375E+04</rscale>
<asrwt>0</asrwt>
<pdfrwt beam="1">  1        2 0.17173873E+00 0.19171375E+04</pdfrwt>
<pdfrwt beam="2">  1       -2 0.10918984E+00 0.19171375E+04</pdfrwt>
<totfact> 0.13382431E+01</totfact>
</mgrwt>
</event>
<event>
 8    1  0.6876290E-010  0.1801689E+04  0.7818608E-02  0.8705402E-01
         -2   -1    0    0    0  501 -0.00000000000E+00  0.00000000000E+00  0.57232619226E+03  0.57232619227E+03  0.25500000000E-02 0. -1.
          2   -1    0    0  501    0  0.00000000000E+00 -0.00000000000E+00 -0.14179337490E+04  0.14179337490E+04  0.25500000000E-02 0.  1.
     200001    2    1    2    0    0  0.34384262349E+02  0.49187570042E+02  0.20027289683E+03  0.73031247502E+03  0.69974665660E+03 0.  0.
    5000001    2    3    3    0    0 -0.11917064012E+02  0.85277492146E+02  0.54297399588E+02  0.20614156673E+03  0.17925364948E+03 0.  0.
        -11    1    4    4    0    0  0.67274153782E+02  0.86779307661E+02  0.51802632441E+02  0.12140828939E+03  0.51100000000E-03 0. -1.
     200002    1    4    4    0    0 -0.79191217793E+02 -0.15018155151E+01  0.24947671468E+01  0.84733277339E+02  0.30000000000E+02 0. -1.
     200000    1    3    3    0    0  0.46301326360E+02 -0.36089922104E+02  0.14597549724E+03  0.52417090829E+03  0.50000000000E+03 0. -1.
    -200001    1    1    2    0    0 -0.34384262349E+02 -0.49187570042E+02 -0.10458804535E+04  0.12599474662E+04  0.70000000000E+03 0.  1.
<mgrwt>
<rscale>  0 0.18016888E+04</rscale>
<asrwt>0</asrwt>
<pdfrwt beam="1">  1        2 0.20256196E+00 0.18016888E+04</pdfrwt>
<pdfrwt beam="2">  1       -2 0.81760885E-01 0.18016888E+04</pdfrwt>
<totfact> 0.20162573E+01</totfact>
</mgrwt>
</event>
<event>
 8    1  0.6876290E-010  0.1478514E+04  0.7818608E-02  0.8898868E-01
         -2   -1    0    0    0  501 -0.00000000000E+00  0.00000000000E+00  0.15604775641E+04  0.15604775641E+04  0.25500000000E-02 0. -1.
          2   -1    0    0  501    0  0.00000000000E+00 -0.00000000000E+00 -0.35021382838E+03  0.35021382839E+03  0.25500000000E-02 0.  1.
     200001    2    1    2    0    0  0.18879750328E+03 -0.14448973625E+03  0.60869089807E+03  0.95758507098E+03  0.69995912569E+03 0.  0.
    5000001    2    3    3    0    0  0.56809536632E+02 -0.58570550005E+02  0.15352657771E+03  0.26333908544E+03  0.19778582122E+03 0.  0.
        -11    1    4    4    0    0 -0.26442870420E+02 -0.10603333088E+03  0.53766314564E+02  0.12179125271E+03  0.51100000000E-03 0. -1.
     200002    1    4    4    0    0  0.83252407052E+02  0.47462780875E+02  0.99760263151E+02  0.14154783274E+03  0.30000000000E+02 0. -1.
     200000    1    3    3    0    0  0.13198796664E+03 -0.85919186248E+02  0.45516432036E+03  0.69424598553E+03  0.50000000000E+03 0.  1.
    -200001    1    1    2    0    0 -0.18879750328E+03  0.14448973625E+03  0.60157283766E+03  0.95310632153E+03  0.70000000000E+03 0.  1.
<mgrwt>
<rscale>  0 0.14785139E+04</rscale>
<asrwt>0</asrwt>
<pdfrwt beam="1">  1        2 0.50030547E-01 0.14785139E+04</pdfrwt>
<pdfrwt beam="2">  1       -2 0.22292536E+00 0.14785139E+04</pdfrwt>
<totfact> 0.92123397E+00</totfact>
</mgrwt>
</event>
<event>
 8    1  0.6876290E-010  0.1559496E+04  0.7818608E-02  0.8845825E-01
         -2   -1    0    0    0  501 -0.00000000000E+00  0.00000000000E+00  0.20349915921E+03  0.20349915923E+03  0.25500000000E-02 0. -1.
          2   -1    0    0  501    0  0.00000000000E+00 -0.00000000000E+00 -0.29877623812E+04  0.29877623812E+04  0.25500000000E-02 0.  1.
     200001    2    1    2    0    0  0.21980768625E+02 -0.27840877553E+03 -0.18004864111E+04  0.19519829543E+04  0.70035100966E+03 0.  0.
    5000001    2    3    3    0    0 -0.32918302042E+02 -0.10778289099E+03 -0.43238761705E+03  0.48439261268E+03  0.18701974667E+03 0.  0.
        -11    1    4    4    0    0  0.46739290732E+02  0.19375120802E+02 -0.44378720762E+02  0.67301021247E+02  0.51100000000E-03 0. -1.
     200002    1    4    4    0    0 -0.79657592773E+02 -0.12715801179E+03 -0.38800889629E+03  0.41709159144E+03  0.30000000000E+02 0. -1.
     200000    1    3    3    0    0  0.54899070666E+02 -0.17062588454E+03 -0.13680987940E+04  0.14675903416E+04  0.50000000000E+03 0.  1.
    -200001    1    1    2    0    0 -0.21980768625E+02  0.27840877553E+03 -0.98377681092E+03  0.12392785862E+04  0.70000000000E+03 0. -1.
<mgrwt>
<rscale>  0 0.15594962E+04</rscale>
<asrwt>0</asrwt>
<pdfrwt beam="1">  1        2 0.42682317E+00 0.15594962E+04</pdfrwt>
<pdfrwt beam="2">  1       -2 0.29071310E-01 0.15594962E+04</pdfrwt>
<totfact> 0.25208541E+01</totfact>
</mgrwt>
</event>
<event>
 8    1  0.6876290E-010  0.1573300E+04  0.7818608E-02  0.8837121E-01
          2   -1    0    0  501    0  0.00000000000E+00  0.00000000000E+00  0.23732951182E+04  0.23732951182E+04  0.25500000000E-02 0.  1.
         -2   -1    0    0    0  501 -0.00000000000E+00 -0.00000000000E+00 -0.26074210134E+03  0.26074210135E+03  0.25500000000E-02 0. -1.
     200001    2    1    2    0    0 -0.86160150646E+02  0.26118310445E+03  0.14306007966E+04  0.16188037408E+04  0.70588010771E+03 0.  0.
    5000001    2    3    3    0    0 -0.23611380430E+02  0.12313526857E+02  0.51630510239E+03  0.54559125872E+03  0.17432654015E+03 0.  0.
        -11    1    4    4    0    0 -0.13334091967E+02 -0.48101671910E+02  0.38762948247E+02  0.63199169347E+02  0.51100000000E-03 0. -1.
     200002    1    4    4    0    0 -0.10277288463E+02  0.60415198767E+02  0.47754215415E+03  0.48239208937E+03  0.30000000000E+02 0. -1.
     200000    1    3    3    0    0 -0.62548770216E+02  0.24886957759E+03  0.91429569423E+03  0.10732124821E+04  0.50000000000E+03 0. -1.
    -200001    1    1    2    0    0  0.86160150646E+02 -0.26118310445E+03  0.68195222024E+03  0.10152334787E+04  0.70000000000E+03 0. -1.
<mgrwt>
<rscale>  0 0.15732997E+04</rscale>
<asrwt>0</asrwt>
<pdfrwt beam="1">  1        2 0.33904217E+00 0.15732997E+04</pdfrwt>
<pdfrwt beam="2">  1       -2 0.37248871E-01 0.15732997E+04</pdfrwt>
<totfact> 0.33635702E+01</totfact>
</mgrwt>
</event>
<event>
 8    1  0.6876290E-010  0.1886098E+04  0.7818608E-02  0.8661807E-01
         -2   -1    0    0    0  501 -0.00000000000E+00  0.00000000000E+00  0.10535424334E+04  0.10535424334E+04  0.25500000000E-02 0. -1.
          2   -1    0    0  501    0  0.00000000000E+00 -0.00000000000E+00 -0.84414379590E+03  0.84414379590E+03  0.25500000000E-02 0.  1.
     200001    2    1    2    0    0  0.25374606458E+03  0.48673172814E+03  0.42112397314E+03  0.98328890958E+03  0.69872515231E+03 0.  0.
    5000001    2    3    3    0    0  0.55834326123E+02  0.12401680538E+03  0.19187061724E+03  0.29532941033E+03  0.17862666893E+03 0.  0.
        -11    1    4    4    0    0 -0.24803482748E+02  0.58530555596E+02  0.17462817153E+03  0.18583873920E+03  0.51100000000E-03 0. -1.
     200002    1    4    4    0    0  0.80637808871E+02  0.65486249781E+02  0.17242445715E+02  0.10949067113E+03  0.30000000000E+02 0. -1.
     200000    1    3    3    0    0  0.19791173846E+03  0.36271492277E+03  0.22925335590E+03  0.68795949925E+03  0.50000000000E+03 0.  1.
    -200001    1    1    2    0    0 -0.25374606458E+03 -0.48673172814E+03 -0.21172533568E+03  0.91439731968E+03  0.70000000000E+03 0.  1.
<mgrwt>
<rscale>  0 0.18860979E+04</rscale>
<asrwt>0</asrwt>
<pdfrwt beam="1">  1        2 0.12059197E+00 0.18860979E+04</pdfrwt>
<pdfrwt beam="2">  1       -2 0.15050606E+00 0.18860979E+04</pdfrwt>
<totfact> 0.98957832E+00</totfact>
</mgrwt>
</event>
<event>
 8    1  0.6876290E-010  0.1636466E+04  0.7818608E-02  0.8798453E-01
         -2   -1    0    0    0  501 -0.00000000000E+00  0.00000000000E+00  0.45410825634E+03  0.45410825635E+03  0.25500000000E-02 0. -1.
          2   -1    0    0  501    0  0.00000000000E+00 -0.00000000000E+00 -0.14743300347E+04  0.14743300347E+04  0.25500000000E-02 0.  1.
     200001    2    1    2    0    0 -0.86534925925E+02  0.84067793464E+02 -0.98858692473E+03  0.12174133610E+04  0.70016819151E+03 0.  0.
    5000001    2    3    3    0    0 -0.12455248566E+02 -0.54250682019E+02 -0.43424236455E+03  0.45457806376E+03  0.12237857314E+03 0.  0.
        -11    1    4    4    0    0 -0.55326800268E+02 -0.17631491036E+02 -0.11298251235E+03  0.12703138353E+03  0.51100000000E-03 0. -1.
     200002    1    4    4    0    0  0.42871551701E+02 -0.36619190984E+02 -0.32125985220E+03  0.32754668023E+03  0.30000000000E+02 0. -1.
     200000    1    3    3    0    0 -0.74079677358E+02  0.13831847548E+03 -0.55434456018E+03  0.76283529720E+03  0.50000000000E+03 0.  1.
    -200001    1    1    2    0    0  0.86534925925E+02 -0.84067793464E+02 -0.31634853679E+02  0.71102493013E+03  0.70000000000E+03 0. -1.
<mgrwt>
<rscale>  0 0.16364662E+04</rscale>
<asrwt>0</asrwt>
<pdfrwt beam="1">  1        2 0.21061857E+00 0.16364662E+04</pdfrwt>
<pdfrwt beam="2">  1       -2 0.64872609E-01 0.16364662E+04</pdfrwt>
<totfact> 0.31700236E+01</totfact>
</mgrwt>
</event>
<event>
 8    1  0.6876290E-010  0.1570033E+04  0.7818608E-02  0.8839173E-01
          2   -1    0    0  501    0  0.00000000000E+00  0.00000000000E+00  0.28317347617E+04  0.28317347617E+04  0.25500000000E-02 0.  1.
         -2   -1    0    0    0  501 -0.00000000000E+00 -0.00000000000E+00 -0.21762300603E+03  0.21762300604E+03  0.25500000000E-02 0. -1.
     200001    2    1    2    0    0  0.11055154546E+02  0.35440908776E+03  0.13018802355E+04  0.15204105547E+04  0.70073396458E+03 0.  0.
    5000001    2    3    3    0    0  0.26446321323E+02  0.39095324116E+02  0.31711233874E+03  0.37174721489E+03  0.18816988102E+03 0.  0.
        -11    1    4    4    0    0  0.29512332115E+02  0.10993406760E+03  0.15524936393E+03  0.19250673226E+03  0.51100000000E-03 0. -1.
     200002    1    4    4    0    0 -0.30660107927E+01 -0.70838743481E+02  0.16186297481E+03  0.17924048263E+03  0.30000000000E+02 0. -1.
     200000    1    3    3    0    0 -0.15391166776E+02  0.31531376365E+03  0.98476789680E+03  0.11486633398E+04  0.50000000000E+03 0. -1.
    -200001    1    1    2    0    0 -0.11055154546E+02 -0.35440908776E+03  0.13122315201E+04  0.15289472130E+04  0.70000000000E+03 0.  1.
<mgrwt>
<rscale>  0 0.15700327E+04</rscale>
<asrwt>0</asrwt>
<pdfrwt beam="1">  1        2 0.40453350E+00 0.15700327E+04</pdfrwt>
<pdfrwt beam="2">  1       -2 0.31089004E-01 0.15700327E+04</pdfrwt>
<totfact> 0.27080837E+01</totfact>
</mgrwt>
</event>
<event>
 8    1  0.6876290E-010  0.1463576E+04  0.7818608E-02  0.8909042E-01
          2   -1    0    0  501    0  0.00000000000E+00  0.00000000000E+00  0.56987396187E+03  0.56987396188E+03  0.25500000000E-02 0.  1.
         -2   -1    0    0    0  501 -0.00000000000E+00 -0.00000000000E+00 -0.93970572281E+03  0.93970572281E+03  0.25500000000E-02 0. -1.
     200001    2    1    2    0    0 -0.82107387175E+01  0.20581815269E+03 -0.13016160436E+03  0.74154953414E+03  0.70037499964E+03 0.  0.
    5000001    2    3    3    0    0 -0.18724899005E+02  0.44585924988E+02  0.44892852380E+02  0.18769897519E+03  0.17571855492E+03 0.  0.
        -11    1    4    4    0    0 -0.50613871592E+02  0.98389037725E+02  0.13177924328E+02  0.11142631840E+03  0.51100000000E-03 0. -1.
     200002    1    4    4    0    0  0.31888972588E+02 -0.53803112737E+02  0.31714928052E+02  0.76272656793E+02  0.30000000000E+02 0. -1.
     200000    1    3    3    0    0  0.10514160287E+02  0.16123222770E+03 -0.17505445674E+03  0.55385055894E+03  0.50000000000E+03 0. -1.
    -200001    1    1    2    0    0  0.82107387175E+01 -0.20581815269E+03 -0.23967015658E+03  0.76803015055E+03  0.70000000000E+03 0. -1.
<mgrwt>
<rscale>  0 0.14635762E+04</rscale>
<asrwt>0</asrwt>
<pdfrwt beam="1">  1        2 0.81410566E-01 0.14635762E+04</pdfrwt>
<pdfrwt beam="2">  1       -2 0.13424367E+00 0.14635762E+04</pdfrwt>
<totfact> 0.22393541E+01</totfact>
</mgrwt>
</event>
<event>
 8    1  0.6876290E-010  0.1504043E+04  0.7818608E-02  0.8881769E-01
         -2   -1    0    0    0  501 -0.00000000000E+00  0.00000000000E+00  0.24451453602E+03  0.24451453603E+03  0.25500000000E-02 0. -1.
          2   -1    0    0  501    0  0.00000000000E+00 -0.00000000000E+00 -0.23128957587E+04  0.23128957587E+04  0.25500000000E-02 0.  1.
     200001    2    1    2    0    0  0.24440140590E+03  0.10221749961E+03 -0.92537576027E+03  0.11911592374E+04  0.70168338075E+03 0.  0.
    5000001    2    3    3    0    0  0.76517835362E+02  0.10640751823E+03 -0.26382708324E+03  0.34508057586E+03  0.17971737511E+03 0.  0.
        -11    1    4    4    0    0  0.10767743269E+03  0.23329333080E+02 -0.20975309576E+03  0.23692836148E+03  0.51100000000E-03 0. -1.
     200002    1    4    4    0    0 -0.31159597326E+02  0.83078185147E+02 -0.54073987488E+02  0.10815221438E+03  0.30000000000E+02 0. -1.
     200000    1    3    3    0    0  0.16788357054E+03 -0.41900186187E+01 -0.66154867702E+03  0.84607866158E+03  0.50000000000E+03 0. -1.
    -200001    1    1    2    0    0 -0.24440140590E+03 -0.10221749961E+03 -0.11430054624E+04  0.13662510573E+04  0.70000000000E+03 0.  1.
<mgrwt>
<rscale>  0 0.15040434E+04</rscale>
<asrwt>0</asrwt>
<pdfrwt beam="1">  1        2 0.33041367E+00 0.15040434E+04</pdfrwt>
<pdfrwt beam="2">  1       -2 0.34930649E-01 0.15040434E+04</pdfrwt>
<totfact> 0.41133585E+01</totfact>
</mgrwt>
</event>
<event>
 8    1  0.6876290E-010  0.1573280E+04  0.7818608E-02  0.8837133E-01
         -2   -1    0    0    0  501 -0.00000000000E+00  0.00000000000E+00  0.43135338405E+03  0.43135338406E+03  0.25500000000E-02 0. -1.
          2   -1    0    0  501    0  0.00000000000E+00 -0.00000000000E+00 -0.14345612001E+04  0.14345612001E+04  0.25500000000E-02 0.  1.
     200001    2    1    2    0    0  0.30238467463E+03 -0.68125261270E+02 -0.28719241456E+03  0.81769914931E+03  0.70005347877E+03 0.  0.
    5000001    2    3    3    0    0  0.54324523415E+02 -0.16168085872E+02 -0.12274630371E+03  0.23351090049E+03  0.19038940287E+03 0.  0.
        -11    1    4    4    0    0 -0.95616166117E+01  0.21382514816E+02  0.43295181087E+02  0.49225086670E+02  0.51100000000E-03 0. -1.
     200002    1    4    4    0    0  0.63886140026E+02 -0.37550600688E+02 -0.16604148480E+03  0.18428581382E+03  0.30000000000E+02 0. -1.
     200000    1    3    3    0    0  0.24806015121E+03 -0.51957175398E+02 -0.16444611084E+03  0.58418824883E+03  0.50000000000E+03 0. -1.
    -200001    1    1    2    0    0 -0.30238467463E+03  0.68125261270E+02 -0.71601540147E+03  0.10482154348E+04  0.70000000000E+03 0. -1.
<mgrwt>
<rscale>  0 0.15732804E+04</rscale>
<asrwt>0</asrwt>
<pdfrwt beam="1">  1        2 0.20493731E+00 0.15732804E+04</pdfrwt>
<pdfrwt beam="2">  1       -2 0.61621913E-01 0.15732804E+04</pdfrwt>
<totfact> 0.37339290E+01</totfact>
</mgrwt>
</event>
<event>
 8    1  0.6876290E-010  0.1667692E+04  0.7818608E-02  0.8780009E-01
          2   -1    0    0  501    0  0.00000000000E+00  0.00000000000E+00  0.42183863047E+03  0.42183863047E+03  0.25500000000E-02 0.  1.
         -2   -1    0    0    0  501 -0.00000000000E+00 -0.00000000000E+00 -0.16482576944E+04  0.16482576944E+04  0.25500000000E-02 0. -1.
     200001    2    1    2    0    0 -0.26966615625E+03 -0.18329800365E+03 -0.99338931148E+03  0.12634856012E+04  0.70940506510E+03 0.  0.
    5000001    2    3    3    0    0 -0.77608950695E+02  0.81904641948E+02 -0.28073421368E+03  0.33338039113E+03  0.13999738161E+03 0.  0.
        -11    1    4    4    0    0  0.27642515834E+01  0.11108531583E+02  0.14158926016E+02  0.18207573890E+02  0.51100000000E-03 0. -1.
     200002    1    4    4    0    0 -0.80373202279E+02  0.70796110365E+02 -0.29489313969E+03  0.31517281724E+03  0.30000000000E+02 0. -1.
     200000    1    3    3    0    0 -0.19205720556E+03 -0.26520264560E+03 -0.71265509780E+03  0.93010521010E+03  0.50000000000E+03 0. -1.
    -200001    1    1    2    0    0  0.26966615625E+03  0.18329800365E+03 -0.23302975245E+03  0.80661072365E+03  0.70000000000E+03 0. -1.
<mgrwt>
<rscale>  0 0.16676915E+04</rscale>
<asrwt>0</asrwt>
<pdfrwt beam="1">  1        2 0.60262662E-01 0.16676915E+04</pdfrwt>
<pdfrwt beam="2">  1       -2 0.23546538E+00 0.16676915E+04</pdfrwt>
<totfact> 0.61551350E+00</totfact>
</mgrwt>
</event>
<event>
 8    1  0.6876290E-010  0.1497971E+04  0.7818608E-02  0.8885804E-01
         -2   -1    0    0    0  501 -0.00000000000E+00  0.00000000000E+00  0.16805373516E+03  0.16805373518E+03  0.25500000000E-02 0. -1.
          2   -1    0    0  501    0  0.00000000000E+00 -0.00000000000E+00 -0.33380928111E+04  0.33380928111E+04  0.25500000000E-02 0.  1.
     200001    2    1    2    0    0 -0.21821835251E+03 -0.15027652994E+02 -0.12308772454E+04  0.14329379980E+04  0.70029096318E+03 0.  0.
    5000001    2    3    3    0    0 -0.18306004253E+02  0.30967820213E+02 -0.31029549266E+02  0.11699156121E+03  0.10691153720E+03 0.  0.
        -11    1    4    4    0    0 -0.56637479247E+02  0.77168496869E+01 -0.58456736799E+01  0.57458904668E+02  0.51100000000E-03 0. -1.
     200002    1    4    4    0    0  0.38331474994E+02  0.23250970526E+02 -0.25183875586E+02  0.59532656544E+02  0.30000000000E+02 0. -1.
     200000    1    3    3    0    0 -0.19991234826E+03 -0.45995473207E+02 -0.11998476962E+04  0.13159464368E+04  0.50000000000E+03 0.  1.
    -200001    1    1    2    0    0  0.21821835251E+03  0.15027652994E+02 -0.19391618305E+04  0.20732085483E+04  0.70000000000E+03 0. -1.
<mgrwt>
<rscale>  0 0.14979706E+04</rscale>
<asrwt>0</asrwt>
<pdfrwt beam="1">  1        2 0.47687036E+00 0.14979706E+04</pdfrwt>
<pdfrwt beam="2">  1       -2 0.24007678E-01 0.14979706E+04</pdfrwt>
<totfact> 0.22681059E+01</totfact>
</mgrwt>
</event>
<event>
 8    1  0.6876290E-010  0.1603311E+04  0.7818608E-02  0.8818517E-01
         -2   -1    0    0    0  501 -0.00000000000E+00  0.00000000000E+00  0.20999860428E+03  0.20999860429E+03  0.25500000000E-02 0. -1.
          2   -1    0    0  501    0  0.00000000000E+00 -0.00000000000E+00 -0.30602650043E+04  0.30602650043E+04  0.25500000000E-02 0.  1.
     200001    2    1    2    0    0  0.25147981922E+03 -0.19053523797E+03 -0.18983568511E+04  0.20472846367E+04  0.69861997763E+03 0.  0.
    5000001    2    3    3    0    0 -0.26858539007E+01 -0.39466111645E+02 -0.23802225104E+03  0.28826984015E+03  0.15773433668E+03 0.  0.
        -11    1    4    4    0    0 -0.73468362403E+01  0.31585383009E+02  0.54035734008E+01  0.32875690537E+02  0.51100000000E-03 0. -1.
     200002    1    4    4    0    0  0.46609823396E+01 -0.71051494654E+02 -0.24342582444E+03  0.25539414961E+03  0.30000000000E+02 0. -1.
     200000    1    3    3    0    0  0.25416567312E+03 -0.15106912633E+03 -0.16603346000E+04  0.17590147965E+04  0.50000000000E+03 0.  1.
    -200001    1    1    2    0    0 -0.25147981922E+03  0.19053523797E+03 -0.95190954895E+03  0.12229789719E+04  0.70000000000E+03 0.  1.
<mgrwt>
<rscale>  0 0.16033108E+04</rscale>
<asrwt>0</asrwt>
<pdfrwt beam="1">  1        2 0.43718069E+00 0.16033108E+04</pdfrwt>
<pdfrwt beam="2">  1       -2 0.29999803E-01 0.16033108E+04</pdfrwt>
<totfact> 0.21574845E+01</totfact>
</mgrwt>
</event>
<event>
 8    1  0.6876290E-010  0.2193401E+04  0.7818608E-02  0.8521180E-01
         -2   -1    0    0    0  501 -0.00000000000E+00  0.00000000000E+00  0.59517049267E+03  0.59517049268E+03  0.25500000000E-02 0. -1.
          2   -1    0    0  501    0  0.00000000000E+00 -0.00000000000E+00 -0.20208528540E+04  0.20208528540E+04  0.25500000000E-02 0.  1.
     200001    2    1    2    0    0 -0.67173881746E+03  0.74876773769E+02 -0.10947523150E+03  0.97918469284E+03  0.69998447572E+03 0.  0.
    5000001    2    3    3    0    0 -0.29803649905E+02  0.19776116103E+02  0.21783734402E+02  0.15314246756E+03  0.14730489459E+03 0.  0.
        -11    1    4    4    0    0 -0.57533654160E+02  0.65889891891E+02 -0.93912374317E+00  0.87478461167E+02  0.51100000000E-03 0. -1.
     200002    1    4    4    0    0  0.27730004255E+02 -0.46113775789E+02  0.22722858145E+02  0.65664006394E+02  0.30000000000E+02 0. -1.
     200000    1    3    3    0    0 -0.64193516755E+03  0.55100657666E+02 -0.13125896591E+03  0.82604222528E+03  0.50000000000E+03 0. -1.
    -200001    1    1    2    0    0  0.67173881746E+03 -0.74876773769E+02 -0.13162071299E+04  0.16368386539E+04  0.70000000000E+03 0.  1.
<mgrwt>
<rscale>  0 0.21934010E+04</rscale>
<asrwt>0</asrwt>
<pdfrwt beam="1">  1        2 0.28869326E+00 0.21934010E+04</pdfrwt>
<pdfrwt beam="2">  1       -2 0.85024357E-01 0.21934010E+04</pdfrwt>
<totfact> 0.86585624E+00</totfact>
</mgrwt>
</event>
<event>
 8    1  0.6876290E-010  0.2628141E+04  0.7818608E-02  0.8358705E-01
          2   -1    0    0  501    0  0.00000000000E+00  0.00000000000E+00  0.22351722908E+04  0.22351722908E+04  0.25500000000E-02 0. -1.
         -2   -1    0    0    0  501 -0.00000000000E+00 -0.00000000000E+00 -0.77254955882E+03  0.77254955882E+03  0.25500000000E-02 0.  1.
     200001    2    1    2    0    0  0.80088493955E+03  0.76544329951E+03  0.83704260604E+03  0.15555956068E+04  0.70136811757E+03 0.  0.
    5000001    2    3    3    0    0  0.25760716926E+03  0.19642679051E+03  0.33708393766E+03  0.49782001939E+03  0.17103874702E+03 0.  0.
        -11    1    4    4    0    0  0.26378361325E+03  0.19807938872E+03  0.32944484639E+03  0.46620933675E+03  0.51100000000E-03 0. -1.
     200002    1    4    4    0    0 -0.61764439911E+01 -0.16525982135E+01  0.76390912744E+01  0.31610682636E+02  0.30000000000E+02 0. -1.
     200000    1    3    3    0    0  0.54327777028E+03  0.56901650900E+03  0.49995866837E+03  0.10577755874E+04  0.50000000000E+03 0.  1.
    -200001    1    1    2    0    0 -0.80088493955E+03 -0.76544329951E+03  0.62558012593E+03  0.14521262428E+04  0.70000000000E+03 0.  1.
<mgrwt>
<rscale>  0 0.26281411E+04</rscale>
<asrwt>0</asrwt>
<pdfrwt beam="1">  1        2 0.31931033E+00 0.26281411E+04</pdfrwt>
<pdfrwt beam="2">  1       -2 0.11036422E+00 0.26281411E+04</pdfrwt>
<totfact> 0.35104084E+00</totfact>
</mgrwt>
</event>
<event>
 8    1  0.6876290E-010  0.1529638E+04  0.7818608E-02  0.8864980E-01
         -2   -1    0    0    0  501 -0.00000000000E+00  0.00000000000E+00  0.55184613589E+03  0.55184613590E+03  0.25500000000E-02 0. -1.
          2   -1    0    0  501    0  0.00000000000E+00 -0.00000000000E+00 -0.10599843772E+04  0.10599843772E+04  0.25500000000E-02 0.  1.
     200001    2    1    2    0    0 -0.30524554272E+03  0.24348038548E+01 -0.21327690694E+03  0.79321950896E+03  0.70037802703E+03 0.  0.
    5000001    2    3    3    0    0 -0.11044615826E+03  0.84866353010E+02 -0.64996862513E+02  0.23043293125E+03  0.17168020247E+03 0.  0.
        -11    1    4    4    0    0 -0.13607453401E+03  0.10016916955E+02 -0.38564153751E+02  0.14178790987E+03  0.51100000000E-03 0. -1.
     200002    1    4    4    0    0  0.25628375754E+02  0.74849436056E+02 -0.26432708762E+02  0.88645021373E+02  0.30000000000E+02 0. -1.
     200000    1    3    3    0    0 -0.19479938446E+03 -0.82431549156E+02 -0.14828004442E+03  0.56278657772E+03  0.50000000000E+03 0.  1.
    -200001    1    1    2    0    0  0.30524554272E+03 -0.24348038548E+01 -0.29486133440E+03  0.81861100417E+03  0.70000000000E+03 0. -1.
<mgrwt>
<rscale>  0 0.15296382E+04</rscale>
<asrwt>0</asrwt>
<pdfrwt beam="1">  1        2 0.15142634E+00 0.15296382E+04</pdfrwt>
<pdfrwt beam="2">  1       -2 0.78835163E-01 0.15296382E+04</pdfrwt>
<totfact> 0.35628660E+01</totfact>
</mgrwt>
</event>
<event>
 8    1  0.6876290E-010  0.1522984E+04  0.7818608E-02  0.8869311E-01
          2   -1    0    0  501    0  0.00000000000E+00  0.00000000000E+00  0.24427572887E+04  0.24427572887E+04  0.25500000000E-02 0.  1.
         -2   -1    0    0    0  501 -0.00000000000E+00 -0.00000000000E+00 -0.23738328704E+03  0.23738328706E+03  0.25500000000E-02 0. -1.
     200001    2    1    2    0    0  0.58268572386E+02  0.25586242743E+03  0.84967704978E+03  0.11319884406E+04  0.70041839811E+03 0.  0.
    5000001    2    3    3    0    0  0.61279901561E+01  0.15034329498E+03  0.37229985160E+03  0.43074531801E+03  0.15586433483E+03 0.  0.
        -11    1    4    4    0    0  0.29693812809E+02  0.58559014322E+02  0.26261703421E+02  0.70714621857E+02  0.51100000000E-03 0. -1.
     200002    1    4    4    0    0 -0.23565822653E+02  0.91784280655E+02  0.34603814818E+03  0.36003069615E+03  0.30000000000E+02 0. -1.
     200000    1    3    3    0    0  0.52140582230E+02  0.10551913245E+03  0.47737719818E+03  0.70124312258E+03  0.50000000000E+03 0.  1.
    -200001    1    1    2    0    0 -0.58268572386E+02 -0.25586242743E+03  0.13556969518E+04  0.15481521351E+04  0.70000000000E+03 0. -1.
<mgrwt>
<rscale>  0 0.15229836E+04</rscale>
<asrwt>0</asrwt>
<pdfrwt beam="1">  1        2 0.34896531E+00 0.15229836E+04</pdfrwt>
<pdfrwt beam="2">  1       -2 0.33911899E-01 0.15229836E+04</pdfrwt>
<totfact> 0.37187647E+01</totfact>
</mgrwt>
</event>
<event>
 8    1  0.6876290E-010  0.2580952E+04  0.7818608E-02  0.8374700E-01
          2   -1    0    0  501    0  0.00000000000E+00  0.00000000000E+00  0.95156410890E+03  0.95156410890E+03  0.25500000000E-02 0.  1.
         -2   -1    0    0    0  501 -0.00000000000E+00 -0.00000000000E+00 -0.17500955799E+04  0.17500955799E+04  0.25500000000E-02 0. -1.
     200001    2    1    2    0    0 -0.32046161709E+03 -0.70956505516E+03 -0.11889892342E+04  0.15842360984E+04  0.69995028444E+03 0.  0.
    5000001    2    3    3    0    0 -0.14025559616E+03 -0.26670469069E+03 -0.54521438908E+03  0.63922521818E+03  0.14334268453E+03 0.  0.
        -11    1    4    4    0    0 -0.15700597583E+03 -0.23138202175E+03 -0.41903298554E+03  0.50376299924E+03  0.51100000000E-03 0. -1.
     200002    1    4    4    0    0  0.16750379670E+02 -0.35322668934E+02 -0.12618140354E+03  0.13546221894E+03  0.30000000000E+02 0. -1.
     200000    1    3    3    0    0 -0.18020602093E+03 -0.44286036447E+03 -0.64377484515E+03  0.94501088018E+03  0.50000000000E+03 0.  1.
    -200001    1    1    2    0    0  0.32046161709E+03  0.70956505516E+03  0.39045776326E+03  0.11174235904E+04  0.70000000000E+03 0. -1.
<mgrwt>
<rscale>  0 0.25809519E+04</rscale>
<asrwt>0</asrwt>
<pdfrwt beam="1">  1        2 0.13593773E+00 0.25809519E+04</pdfrwt>
<pdfrwt beam="2">  1       -2 0.25001365E+00 0.25809519E+04</pdfrwt>
<totfact> 0.17235915E+00</totfact>
</mgrwt>
</event>
<event>
 8    1  0.6876290E-010  0.1913356E+04  0.7818608E-02  0.8648237E-01
          2   -1    0    0  501    0  0.00000000000E+00  0.00000000000E+00  0.17363333532E+04  0.17363333532E+04  0.25500000000E-02 0.  1.
         -2   -1    0    0    0  501 -0.00000000000E+00 -0.00000000000E+00 -0.52710663648E+03  0.52710663649E+03  0.25500000000E-02 0. -1.
     200001    2    1    2    0    0 -0.46826183921E+03  0.39713102386E+03  0.86305581181E+03  0.12700536119E+04  0.70084851621E+03 0.  0.
    5000001    2    3    3    0    0 -0.13095383869E+03  0.12526024733E+03  0.24527928527E+03  0.36488056598E+03  0.20034186337E+03 0.  0.
        -11    1    4    4    0    0 -0.13226203232E+03  0.16913527107E+03  0.21425612341E+03  0.30332436686E+03  0.51100000000E-03 0. -1.
     200002    1    4    4    0    0  0.13081936314E+01 -0.43875023736E+02  0.31023161865E+02  0.61556199123E+02  0.30000000000E+02 0. -1.
     200000    1    3    3    0    0 -0.33730800052E+03  0.27187077653E+03  0.61777652654E+03  0.90517304594E+03  0.50000000000E+03 0. -1.
    -200001    1    1    2    0    0  0.46826183921E+03 -0.39713102386E+03  0.34617090494E+03  0.99338637780E+03  0.70000000000E+03 0. -1.
<mgrwt>
<rscale>  0 0.19133560E+04</rscale>
<asrwt>0</asrwt>
<pdfrwt beam="1">  1        2 0.24804761E+00 0.19133560E+04</pdfrwt>
<pdfrwt beam="2">  1       -2 0.75300951E-01 0.19133560E+04</pdfrwt>
<totfact> 0.16316829E+01</totfact>
</mgrwt>
</event>
<event>
 8    1  0.6876290E-010  0.1549151E+04  0.7818608E-02  0.8852410E-01
          2   -1    0    0  501    0  0.00000000000E+00  0.00000000000E+00  0.11966986986E+04  0.11966986986E+04  0.25500000000E-02 0.  1.
         -2   -1    0    0    0  501 -0.00000000000E+00 -0.00000000000E+00 -0.50135202221E+03  0.50135202221E+03  0.25500000000E-02 0. -1.
     200001    2    1    2    0    0  0.30656783526E+03  0.83044693872E+02  0.45062299645E+03  0.89134759181E+03  0.70039930447E+03 0.  0.
    5000001    2    3    3    0    0  0.12940595568E+03  0.43252726104E+02  0.40822397996E+02  0.21985204993E+03  0.16748658453E+03 0.  0.
        -11    1    4    4    0    0  0.95431784822E+02  0.97568871931E+02 -0.32229693348E+01  0.13651848906E+03  0.51100000000E-03 0. -1.
     200002    1    4    4    0    0  0.33974170858E+02 -0.54316145827E+02  0.44045367330E+02  0.83333560864E+02  0.30000000000E+02 0. -1.
     200000    1    3    3    0    0  0.17716187958E+03  0.39791967768E+02  0.40980059846E+03  0.67149554189E+03  0.50000000000E+03 0.  1.
    -200001    1    1    2    0    0 -0.30656783526E+03 -0.83044693872E+02  0.24472367992E+03  0.80670312899E+03  0.70000000000E+03 0. -1.
<mgrwt>
<rscale>  0 0.15491511E+04</rscale>
<asrwt>0</asrwt>
<pdfrwt beam="1">  1        2 0.17095695E+00 0.15491511E+04</pdfrwt>
<pdfrwt beam="2">  1       -2 0.71621719E-01 0.15491511E+04</pdfrwt>
<totfact> 0.36603737E+01</totfact>
</mgrwt>
</event>
<event>
 8    1  0.6876290E-010  0.1685055E+04  0.7818608E-02  0.8769934E-01
          2   -1    0    0  501    0  0.00000000000E+00  0.00000000000E+00  0.16124980931E+04  0.16124980931E+04  0.25500000000E-02 0. -1.
         -2   -1    0    0    0  501 -0.00000000000E+00 -0.00000000000E+00 -0.44021895644E+03  0.44021895645E+03  0.25500000000E-02 0.  1.
     200001    2    1    2    0    0 -0.30316582616E+02  0.46284264188E+03  0.47460361623E+03  0.96097828128E+03  0.69504550802E+03 0.  0.
    5000001    2    3    3    0    0 -0.14501469307E+03  0.11211565390E+03  0.61302830775E+02  0.21466560156E+03  0.93402903475E+02 0.  0.
        -11    1    4    4    0    0 -0.47225877939E+02  0.88543520004E+02  0.36716032136E+02  0.10685647148E+03  0.51100000000E-03 0. -1.
     200002    1    4    4    0    0 -0.97788815132E+02  0.23572133897E+02  0.24586798639E+02  0.10780913008E+03  0.30000000000E+02 0. -1.
     200000    1    3    3    0    0  0.11469811046E+03  0.35072698798E+03  0.41330078546E+03  0.74631267971E+03  0.50000000000E+03 0.  1.
    -200001    1    1    2    0    0  0.30316582616E+02 -0.46284264188E+03  0.69767552040E+03  0.10917387682E+04  0.70000000000E+03 0. -1.
<mgrwt>
<rscale>  0 0.16850546E+04</rscale>
<asrwt>0</asrwt>
<pdfrwt beam="1">  1        2 0.23035687E+00 0.16850546E+04</pdfrwt>
<pdfrwt beam="2">  1       -2 0.62888422E-01 0.16850546E+04</pdfrwt>
<totfact> 0.28521833E+01</totfact>
</mgrwt>
</event>
<event>
 8    1  0.6876290E-010  0.1571570E+04  0.7818608E-02  0.8838206E-01
          2   -1    0    0  501    0  0.00000000000E+00  0.00000000000E+00  0.17606217431E+04  0.17606217431E+04  0.25500000000E-02 0.  1.
         -2   -1    0    0    0  501 -0.00000000000E+00 -0.00000000000E+00 -0.35070475030E+03  0.35070475031E+03  0.25500000000E-02 0. -1.
     200001    2    1    2    0    0 -0.50554260436E+02 -0.34727810228E+03  0.79231701286E+03  0.11140363908E+04  0.70010928971E+03 0.  0.
    5000001    2    3    3    0    0  0.29894582249E+02 -0.12876932542E+03  0.27218001759E+03  0.35590672133E+03  0.18738304911E+03 0.  0.
        -11    1    4    4    0    0  0.40457779541E+01  0.36606883683E+02  0.12725456927E+03  0.13247700801E+03  0.51100000000E-03 0. -1.
     200002    1    4    4    0    0  0.25848804295E+02 -0.16537620910E+03  0.14492544833E+03  0.22342971332E+03  0.30000000000E+02 0. -1.
     200000    1    3    3    0    0 -0.80448842684E+02 -0.21850877686E+03  0.52013699526E+03  0.75812966945E+03  0.50000000000E+03 0. -1.
    -200001    1    1    2    0    0  0.50554260436E+02  0.34727810228E+03  0.61759997993E+03  0.99729010262E+03  0.70000000000E+03 0.  1.
<mgrwt>
<rscale>  0 0.15715704E+04</rscale>
<asrwt>0</asrwt>
<pdfrwt beam="1">  1        2 0.25151739E+00 0.15715704E+04</pdfrwt>
<pdfrwt beam="2">  1       -2 0.50100679E-01 0.15715704E+04</pdfrwt>
<totfact> 0.38696998E+01</totfact>
</mgrwt>
</event>
<event>
 8    1  0.6876290E-010  0.1898616E+04  0.7818608E-02  0.8655545E-01
          2   -1    0    0  501    0  0.00000000000E+00  0.00000000000E+00  0.17616185182E+04  0.17616185182E+04  0.25500000000E-02 0.  1.
         -2   -1    0    0    0  501 -0.00000000000E+00 -0.00000000000E+00 -0.51156711618E+03  0.51156711618E+03  0.25500000000E-02 0. -1.
     200001    2    1    2    0    0  0.37881127087E+03 -0.43530524768E+03  0.95820756200E+03  0.13202105746E+04  0.70128852253E+03 0.  0.
    5000001    2    3    3    0    0  0.71040059716E+02 -0.77224995803E+02  0.25146482650E+03  0.33409198164E+03  0.19331969163E+03 0.  0.
        -11    1    4    4    0    0  0.95087641103E+02 -0.10294808755E+03  0.91008353421E+02  0.16710023523E+03  0.51100000000E-03 0. -1.
     200002    1    4    4    0    0 -0.24047581388E+02  0.25723091743E+02  0.16045647308E+03  0.16699174642E+03  0.30000000000E+02 0. -1.
     200000    1    3    3    0    0  0.30777121115E+03 -0.35808025187E+03  0.70674273550E+03  0.98611859296E+03  0.50000000000E+03 0.  1.
    -200001    1    1    2    0    0 -0.37881127087E+03  0.43530524768E+03  0.29184384001E+03  0.95297505977E+03  0.70000000000E+03 0. -1.
<mgrwt>
<rscale>  0 0.18986164E+04</rscale>
<asrwt>0</asrwt>
<pdfrwt beam="1">  1        2 0.25165979E+00 0.18986164E+04</pdfrwt>
<pdfrwt beam="2">  1       -2 0.73081016E-01 0.18986164E+04</pdfrwt>
<totfact> 0.16933456E+01</totfact>
</mgrwt>
</event>
<event>
 8    1  0.6876290E-010  0.1948999E+04  0.7818608E-02  0.8630843E-01
          2   -1    0    0  501    0  0.00000000000E+00  0.00000000000E+00  0.15929935467E+04  0.15929935467E+04  0.25500000000E-02 0.  1.
         -2   -1    0    0    0  501 -0.00000000000E+00 -0.00000000000E+00 -0.59614159711E+03  0.59614159711E+03  0.25500000000E-02 0. -1.
     200001    2    1    2    0    0 -0.53180034856E+03  0.41445776762E+03  0.57815835930E+03  0.11308860359E+04  0.70003520326E+03 0.  0.
    5000001    2    3    3    0    0 -0.18365486146E+03  0.52003444485E+01  0.14609130795E+03  0.27919427503E+03  0.15116421941E+03 0.  0.
        -11    1    4    4    0    0 -0.56589968405E+00 -0.43836306654E+02  0.42764782719E+02  0.61243519370E+02  0.51100000000E-03 0. -1.
     200002    1    4    4    0    0 -0.18308896178E+03  0.49036651103E+02  0.10332652523E+03  0.21795075566E+03  0.30000000000E+02 0. -1.
     200000    1    3    3    0    0 -0.34814548710E+03  0.40925742317E+03  0.43206705136E+03  0.85169176084E+03  0.50000000000E+03 0. -1.
    -200001    1    1    2    0    0  0.53180034856E+03 -0.41445776762E+03  0.41869359025E+03  0.10582491079E+04  0.70000000000E+03 0. -1.
<mgrwt>
<rscale>  0 0.19489995E+04</rscale>
<asrwt>0</asrwt>
<pdfrwt beam="1">  1        2 0.22757051E+00 0.19489995E+04</pdfrwt>
<pdfrwt beam="2">  1       -2 0.85163085E-01 0.19489995E+04</pdfrwt>
<totfact> 0.14660938E+01</totfact>
</mgrwt>
</event>
<event>
 8    1  0.6876290E-010  0.2402492E+04  0.7818608E-02  0.8438571E-01
          2   -1    0    0  501    0  0.00000000000E+00  0.00000000000E+00  0.19274555901E+04  0.19274555901E+04  0.25500000000E-02 0.  1.
         -2   -1    0    0    0  501 -0.00000000000E+00 -0.00000000000E+00 -0.74865104433E+03  0.74865104433E+03  0.25500000000E-02 0. -1.
     200001    2    1    2    0    0  0.36355309038E+03 -0.34196126616E+03  0.15236931829E+04  0.17497932268E+04  0.70073323312E+03 0.  0.
    5000001    2    3    3    0    0  0.17326661004E+03 -0.19581775656E+02  0.44977326749E+03  0.50744003019E+03  0.15746310045E+03 0.  0.
        -11    1    4    4    0    0  0.11646561990E+02  0.43404085174E+02  0.35342180606E+02  0.57171905218E+02  0.51100000000E-03 0. -1.
     200002    1    4    4    0    0  0.16162004805E+03 -0.62985860830E+02  0.41443108688E+03  0.45026812498E+03  0.30000000000E+02 0. -1.
     200000    1    3    3    0    0  0.19028648034E+03 -0.32237949051E+03  0.10739199154E+04  0.12423531966E+04  0.50000000000E+03 0.  1.
    -200001    1    1    2    0    0 -0.36355309038E+03  0.34196126616E+03 -0.34488863712E+03  0.92631340760E+03  0.70000000000E+03 0. -1.
<mgrwt>
<rscale>  0 0.24024917E+04</rscale>
<asrwt>0</asrwt>
<pdfrwt beam="1">  1        2 0.27535079E+00 0.24024917E+04</pdfrwt>
<pdfrwt beam="2">  1       -2 0.10695015E+00 0.24024917E+04</pdfrwt>
<totfact> 0.55603238E+00</totfact>
</mgrwt>
</event>
<event>
 8    1  0.6876290E-010  0.1522669E+04  0.7818608E-02  0.8869517E-01
         -2   -1    0    0    0  501 -0.00000000000E+00  0.00000000000E+00  0.53830293387E+03  0.53830293388E+03  0.25500000000E-02 0. -1.
          2   -1    0    0  501    0  0.00000000000E+00 -0.00000000000E+00 -0.10767729555E+04  0.10767729555E+04  0.25500000000E-02 0.  1.
     200001    2    1    2    0    0 -0.12922226382E+03 -0.69289592552E+02 -0.54668706786E+03  0.89983679583E+03  0.69952846108E+03 0.  0.
    5000001    2    3    3    0    0  0.90864298999E+01 -0.10542853583E+03 -0.22730419001E+03  0.28955756413E+03  0.14484008000E+03 0.  0.
        -11    1    4    4    0    0 -0.53160420489E+02 -0.33158553935E+01 -0.93515676699E+02  0.10762066248E+03  0.51100000000E-03 0. -1.
     200002    1    4    4    0    0  0.62246850388E+02 -0.10211268043E+03 -0.13378851332E+03  0.18193690166E+03  0.30000000000E+02 0. -1.
     200000    1    3    3    0    0 -0.13830869372E+03  0.36138943274E+02 -0.31938287784E+03  0.61027923170E+03  0.50000000000E+03 0. -1.
    -200001    1    1    2    0    0  0.12922226382E+03  0.69289592552E+02  0.82170462305E+01  0.71523909356E+03  0.70000000000E+03 0. -1.
<mgrwt>
<rscale>  0 0.15226688E+04</rscale>
<asrwt>0</asrwt>
<pdfrwt beam="1">  1        2 0.15382471E+00 0.15226688E+04</pdfrwt>
<pdfrwt beam="2">  1       -2 0.76900419E-01 0.15226688E+04</pdfrwt>
<totfact> 0.36819351E+01</totfact>
</mgrwt>
</event>
<event>
 8    1  0.6876290E-010  0.1500030E+04  0.7818608E-02  0.8884433E-01
         -2   -1    0    0    0  501 -0.00000000000E+00  0.00000000000E+00  0.33247640743E+03  0.33247640744E+03  0.25500000000E-02 0. -1.
          2   -1    0    0  501    0  0.00000000000E+00 -0.00000000000E+00 -0.16919167086E+04  0.16919167086E+04  0.25500000000E-02 0.  1.
     200001    2    1    2    0    0 -0.15029937330E+03 -0.20714730575E+03 -0.59226374986E+03  0.95478581951E+03  0.70380373958E+03 0.  0.
    5000001    2    3    3    0    0 -0.24224126266E+02 -0.88284485162E+02 -0.72038068416E+02  0.21272241409E+03  0.17798984112E+03 0.  0.
        -11    1    4    4    0    0  0.71720184852E+02 -0.24391283984E+02 -0.52130856139E+02  0.91958391742E+02  0.51100000000E-03 0. -1.
     200002    1    4    4    0    0 -0.95944311119E+02 -0.63893201178E+02 -0.19907212276E+02  0.12076402235E+03  0.30000000000E+02 0. -1.
     200000    1    3    3    0    0 -0.12607524704E+03 -0.11886282058E+03 -0.52022568145E+03  0.74206340542E+03  0.50000000000E+03 0.  1.
    -200001    1    1    2    0    0  0.15029937330E+03  0.20714730575E+03 -0.76717655126E+03  0.10696072965E+04  0.70000000000E+03 0. -1.
<mgrwt>
<rscale>  0 0.15000299E+04</rscale>
<asrwt>0</asrwt>
<pdfrwt beam="1">  1        2 0.24170238E+00 0.15000299E+04</pdfrwt>
<pdfrwt beam="2">  1       -2 0.47496631E-01 0.15000299E+04</pdfrwt>
<totfact> 0.47068093E+01</totfact>
</mgrwt>
</event>
<event>
 8    1  0.6876290E-010  0.1563417E+04  0.7818608E-02  0.8843343E-01
          2   -1    0    0  501    0  0.00000000000E+00  0.00000000000E+00  0.23011040796E+04  0.23011040797E+04  0.25500000000E-02 0.  1.
         -2   -1    0    0    0  501 -0.00000000000E+00 -0.00000000000E+00 -0.26555417375E+03  0.26555417376E+03  0.25500000000E-02 0. -1.
     200001    2    1    2    0    0 -0.28667283047E+03 -0.27395906129E+02  0.13344566525E+04  0.15349298020E+04  0.70164313750E+03 0.  0.
    5000001    2    3    3    0    0 -0.15089093152E+03 -0.27686478984E+02  0.26886811905E+03  0.35006030242E+03  0.16345499551E+03 0.  0.
        -11    1    4    4    0    0 -0.10411503128E+03  0.31107810776E+02  0.24122246000E+03  0.26456740321E+03  0.51100000000E-03 0. -1.
     200002    1    4    4    0    0 -0.46775900242E+02 -0.58794289760E+02  0.27645659043E+02  0.85492899212E+02  0.30000000000E+02 0. -1.
     200000    1    3    3    0    0 -0.13578189895E+03  0.29057285523E+00  0.10655885334E+04  0.11848694996E+04  0.50000000000E+03 0.  1.
    -200001    1    1    2    0    0  0.28667283047E+03  0.27395906129E+02  0.70109325344E+03  0.10317284514E+04  0.70000000000E+03 0. -1.
<mgrwt>
<rscale>  0 0.15634165E+04</rscale>
<asrwt>0</asrwt>
<pdfrwt beam="1">  1        2 0.32872915E+00 0.15634165E+04</pdfrwt>
<pdfrwt beam="2">  1       -2 0.37936311E-01 0.15634165E+04</pdfrwt>
<totfact> 0.35423716E+01</totfact>
</mgrwt>
</event>
<event>
 8    1  0.6876290E-010  0.1490667E+04  0.7818608E-02  0.8890683E-01
         -2   -1    0    0    0  501 -0.00000000000E+00  0.00000000000E+00  0.15865709015E+04  0.15865709015E+04  0.25500000000E-02 0. -1.
          2   -1    0    0  501    0  0.00000000000E+00 -0.00000000000E+00 -0.35013993977E+03  0.35013993978E+03  0.25500000000E-02 0.  1.
     200001    2    1    2    0    0  0.61564780019E+02  0.94178819185E+02  0.31813654743E+03  0.77657097755E+03  0.69942243904E+03 0.  0.
    5000001    2    3    3    0    0 -0.96969364084E+02  0.10125828449E+03  0.91188396309E+02  0.20500413371E+03  0.11855409511E+03 0.  0.
        -11    1    4    4    0    0 -0.61188245543E+02 -0.10385798826E+02  0.23640941663E+02  0.66413555340E+02  0.51100000000E-03 0. -1.
     200002    1    4    4    0    0 -0.35781118540E+02  0.11164408332E+03  0.67547454645E+02  0.13859057837E+03  0.30000000000E+02 0. -1.
     200000    1    3    3    0    0  0.15853414410E+03 -0.70794653034E+01  0.22694815112E+03  0.57156684384E+03  0.50000000000E+03 0.  1.
    -200001    1    1    2    0    0 -0.61564780019E+02 -0.94178819185E+02  0.91829441433E+03  0.11601398638E+04  0.70000000000E+03 0. -1.
<mgrwt>
<rscale>  0 0.14906668E+04</rscale>
<asrwt>0</asrwt>
<pdfrwt beam="1">  1        2 0.50019991E-01 0.14906668E+04</pdfrwt>
<pdfrwt beam="2">  1       -2 0.22665299E+00 0.14906668E+04</pdfrwt>
<totfact> 0.87231893E+00</totfact>
</mgrwt>
</event>
<event>
 8    1  0.6876290E-010  0.1644166E+04  0.7818608E-02  0.8793865E-01
          2   -1    0    0  501    0  0.00000000000E+00  0.00000000000E+00  0.20895173127E+04  0.20895173127E+04  0.25500000000E-02 0.  1.
         -2   -1    0    0    0  501 -0.00000000000E+00 -0.00000000000E+00 -0.32343395412E+03  0.32343395413E+03  0.25500000000E-02 0. -1.
     200001    2    1    2    0    0  0.26940460960E+03  0.19243070949E+03  0.12890986691E+04  0.15034883398E+04  0.69935211995E+03 0.  0.
    5000001    2    3    3    0    0  0.88211274961E+02  0.12377308769E+03  0.45316503638E+03  0.51034689377E+03  0.17886977252E+03 0.  0.
        -11    1    4    4    0    0  0.12674149696E+03  0.78891014773E+02  0.20580725496E+03  0.25425150040E+03  0.51100000000E-03 0. -1.
     200002    1    4    4    0    0 -0.38530221996E+02  0.44882072917E+02  0.24735778142E+03  0.25609539337E+03  0.30000000000E+02 0. -1.
     200000    1    3    3    0    0  0.18119333464E+03  0.68657621797E+02  0.83593363274E+03  0.99314144606E+03  0.50000000000E+03 0.  1.
    -200001    1    1    2    0    0 -0.26940460960E+03 -0.19243070949E+03  0.47698468950E+03  0.90946292703E+03  0.70000000000E+03 0. -1.
<mgrwt>
<rscale>  0 0.16441665E+04</rscale>
<asrwt>0</asrwt>
<pdfrwt beam="1">  1        2 0.29850247E+00 0.16441665E+04</pdfrwt>
<pdfrwt beam="2">  1       -2 0.46204851E-01 0.16441665E+04</pdfrwt>
<totfact> 0.30682596E+01</totfact>
</mgrwt>
</event>
<event>
 8    1  0.6876290E-010  0.1709041E+04  0.7818608E-02  0.8756225E-01
          2   -1    0    0  501    0  0.00000000000E+00  0.00000000000E+00  0.35376656795E+04  0.35376656795E+04  0.25500000000E-02 0. -1.
         -2   -1    0    0    0  501 -0.00000000000E+00 -0.00000000000E+00 -0.20640880390E+03  0.20640880392E+03  0.25500000000E-02 0.  1.
     200001    2    1    2    0    0 -0.13450716248E+03  0.10815218789E+03  0.26715398500E+04  0.27668254740E+04  0.69886261958E+03 0.  0.
    5000001    2    3    3    0    0 -0.63260212733E+02  0.26208404324E+02  0.87395173314E+03  0.89783806117E+03  0.19399179688E+03 0.  0.
        -11    1    4    4    0    0 -0.52631521497E+02  0.86887398797E+02  0.24586071946E+03  0.26602065803E+03  0.51100000000E-03 0. -1.
     200002    1    4    4    0    0 -0.10628691236E+02 -0.60678994473E+02  0.62809101368E+03  0.63181740314E+03  0.30000000000E+02 0. -1.
     200000    1    3    3    0    0 -0.71246949750E+02  0.81943783570E+02  0.17975881168E+04  0.18689874128E+04  0.50000000000E+03 0. -1.
    -200001    1    1    2    0    0  0.13450716248E+03 -0.10815218789E+03  0.65971702560E+03  0.97724900940E+03  0.70000000000E+03 0.  1.
<mgrwt>
<rscale>  0 0.17090411E+04</rscale>
<asrwt>0</asrwt>
<pdfrwt beam="1">  1        2 0.50538080E+00 0.17090411E+04</pdfrwt>
<pdfrwt beam="2">  1       -2 0.29486972E-01 0.17090411E+04</pdfrwt>
<totfact> 0.11582883E+01</totfact>
</mgrwt>
</event>
<event>
 8    1  0.6876290E-010  0.2111242E+04  0.7818608E-02  0.8556307E-01
         -2   -1    0    0    0  501 -0.00000000000E+00  0.00000000000E+00  0.36986369082E+03  0.36986369083E+03  0.25500000000E-02 0. -1.
          2   -1    0    0  501    0  0.00000000000E+00 -0.00000000000E+00 -0.30128270493E+04  0.30128270493E+04  0.25500000000E-02 0.  1.
     200001    2    1    2    0    0 -0.42637977830E+03 -0.13673570111E+03 -0.27891636264E+03  0.87685463898E+03  0.70041655695E+03 0.  0.
    5000001    2    3    3    0    0 -0.55063045215E+01  0.43364608260E+02 -0.47351758857E+02  0.16047989899E+03  0.14697210713E+03 0.  0.
        -11    1    4    4    0    0  0.13374833175E+02 -0.50686462140E+02 -0.21799975613E+02  0.56773607810E+02  0.51100000000E-03 0. -1.
     200002    1    4    4    0    0 -0.18881137697E+02  0.94051070400E+02 -0.25551783244E+02  0.10370629118E+03  0.30000000000E+02 0. -1.
     200000    1    3    3    0    0 -0.42087347378E+03 -0.18010030937E+03 -0.23156460378E+03  0.71637473998E+03  0.50000000000E+03 0. -1.
    -200001    1    1    2    0    0  0.42637977830E+03  0.13673570111E+03 -0.23640469958E+04  0.25058361011E+04  0.70000000000E+03 0.  1.
<mgrwt>
<rscale>  0 0.21112417E+04</rscale>
<asrwt>0</asrwt>
<pdfrwt beam="1">  1        2 0.43040385E+00 0.21112417E+04</pdfrwt>
<pdfrwt beam="2">  1       -2 0.52837672E-01 0.21112417E+04</pdfrwt>
<totfact> 0.72499017E+00</totfact>
</mgrwt>
</event>
<event>
 8    1  0.6876290E-010  0.1543433E+04  0.7818608E-02  0.8856073E-01
          2   -1    0    0  501    0  0.00000000000E+00  0.00000000000E+00  0.34226511822E+04  0.34226511822E+04  0.25500000000E-02 0.  1.
         -2   -1    0    0    0  501 -0.00000000000E+00 -0.00000000000E+00 -0.17400154913E+03  0.17400154915E+03  0.25500000000E-02 0. -1.
     200001    2    1    2    0    0  0.30265385852E+03 -0.25112153131E+02  0.13519519494E+04  0.15522232066E+04  0.69956617369E+03 0.  0.
    5000001    2    3    3    0    0  0.19555523261E+03 -0.43470813666E+01  0.25646274410E+03  0.34309215384E+03  0.11695443898E+03 0.  0.
        -11    1    4    4    0    0  0.17444153516E+03 -0.54508576522E+01  0.14881161229E+03  0.22935661532E+03  0.51100000000E-03 0. -1.
     200002    1    4    4    0    0  0.21113697446E+02  0.11037762856E+01  0.10765113181E+03  0.11373553852E+03  0.30000000000E+02 0.  1.
     200000    1    3    3    0    0  0.10709862591E+03 -0.20765071764E+02  0.10954892053E+04  0.12091310528E+04  0.50000000000E+03 0.  1.
    -200001    1    1    2    0    0 -0.30265385852E+03  0.25112153131E+02  0.18966976837E+04  0.20444295247E+04  0.70000000000E+03 0.  1.
<mgrwt>
<rscale>  0 0.15434333E+04</rscale>
<asrwt>0</asrwt>
<pdfrwt beam="1">  1        2 0.48895012E+00 0.15434333E+04</pdfrwt>
<pdfrwt beam="2">  1       -2 0.24857367E-01 0.15434333E+04</pdfrwt>
<totfact> 0.18894175E+01</totfact>
</mgrwt>
</event>
<event>
 8    1  0.6876290E-010  0.1654519E+04  0.7818608E-02  0.8787738E-01
         -2   -1    0    0    0  501 -0.00000000000E+00  0.00000000000E+00  0.40161313335E+03  0.40161313336E+03  0.25500000000E-02 0. -1.
          2   -1    0    0  501    0  0.00000000000E+00 -0.00000000000E+00 -0.17040232643E+04  0.17040232643E+04  0.25500000000E-02 0.  1.
     200001    2    1    2    0    0 -0.13674016669E+03  0.52598335965E+02 -0.11732485192E+04  0.13788990448E+04  0.70949702595E+03 0.  0.
    5000001    2    3    3    0    0  0.36928952478E+02 -0.59508599022E+02 -0.31004041019E+03  0.36014629399E+03  0.16933775786E+03 0.  0.
        -11    1    4    4    0    0 -0.37140637738E+02 -0.19931292955E+02 -0.24788957236E+03  0.25144765558E+03  0.51100000000E-03 0. -1.
     200002    1    4    4    0    0  0.74069590216E+02 -0.39577306067E+02 -0.62150837826E+02  0.10869863841E+03  0.30000000000E+02 0. -1.
     200000    1    3    3    0    0 -0.17366911917E+03  0.11210693499E+03 -0.86320810897E+03  0.10187527508E+04  0.50000000000E+03 0.  1.
    -200001    1    1    2    0    0  0.13674016669E+03 -0.52598335965E+02 -0.12916161179E+03  0.72673735289E+03  0.70000000000E+03 0. -1.
<mgrwt>
<rscale>  0 0.16545188E+04</rscale>
<asrwt>0</asrwt>
<pdfrwt beam="1">  1        2 0.24343189E+00 0.16545188E+04</pdfrwt>
<pdfrwt beam="2">  1       -2 0.57373306E-01 0.16545188E+04</pdfrwt>
<totfact> 0.31091027E+01</totfact>
</mgrwt>
</event>
<event>
 8    1  0.6876290E-010  0.1524110E+04  0.7818608E-02  0.8868577E-01
          2   -1    0    0  501    0  0.00000000000E+00  0.00000000000E+00  0.65619847510E+03  0.65619847511E+03  0.25500000000E-02 0.  1.
         -2   -1    0    0    0  501 -0.00000000000E+00 -0.00000000000E+00 -0.88498753591E+03  0.88498753591E+03  0.25500000000E-02 0. -1.
     200001    2    1    2    0    0  0.20689238058E+03  0.12290212465E+03  0.68586621030E+02  0.74347573433E+03  0.70010188799E+03 0.  0.
    5000001    2    3    3    0    0  0.72851988389E+01  0.88654251509E+01 -0.52682283963E+02  0.17995684099E+03  0.17168975418E+03 0.  0.
        -11    1    4    4    0    0 -0.40651935772E+02  0.73646956928E+02 -0.12519691320E+02  0.85048202907E+02  0.51100000000E-03 0. -1.
     200002    1    4    4    0    0  0.47937134611E+02 -0.64781531777E+02 -0.40162592643E+02  0.94908638078E+02  0.30000000000E+02 0. -1.
     200000    1    3    3    0    0  0.19960718174E+03  0.11403669950E+03  0.12126890499E+03  0.56351889334E+03  0.50000000000E+03 0.  1.
    -200001    1    1    2    0    0 -0.20689238058E+03 -0.12290212465E+03 -0.29737568184E+03  0.79771027669E+03  0.70000000000E+03 0. -1.
<mgrwt>
<rscale>  0 0.15241095E+04</rscale>
<asrwt>0</asrwt>
<pdfrwt beam="1">  1        2 0.93742640E-01 0.15241095E+04</pdfrwt>
<pdfrwt beam="2">  1       -2 0.12642679E+00 0.15241095E+04</pdfrwt>
<totfact> 0.21938241E+01</totfact>
</mgrwt>
</event>
<event>
 8    1  0.6876290E-010  0.1578953E+04  0.7818608E-02  0.8833583E-01
         -2   -1    0    0    0  501 -0.00000000000E+00  0.00000000000E+00  0.28913693799E+03  0.28913693800E+03  0.25500000000E-02 0. -1.
          2   -1    0    0  501    0  0.00000000000E+00 -0.00000000000E+00 -0.21556323640E+04  0.21556323640E+04  0.25500000000E-02 0.  1.
     200001    2    1    2    0    0 -0.27076424810E+03 -0.13248049543E+03 -0.12382259188E+04  0.14570512585E+04  0.70635018529E+03 0.  0.
    5000001    2    3    3    0    0 -0.89735178162E+02 -0.62348834074E+01 -0.36803093121E+03  0.42945756686E+03  0.20222699977E+03 0.  0.
        -11    1    4    4    0    0 -0.50655650024E+02 -0.99866862801E+02 -0.22734931381E+03  0.25343065256E+03  0.51100000000E-03 0. -1.
     200002    1    4    4    0    0 -0.39079528138E+02  0.93631979393E+02 -0.14068161740E+03  0.17602691430E+03  0.30000000000E+02 0. -1.
     200000    1    3    3    0    0 -0.18102906994E+03 -0.12624561203E+03 -0.87019498756E+03  0.10275936916E+04  0.50000000000E+03 0. -1.
    -200001    1    1    2    0    0  0.27076424810E+03  0.13248049543E+03 -0.62826950720E+03  0.98771804347E+03  0.70000000000E+03 0. -1.
<mgrwt>
<rscale>  0 0.15789527E+04</rscale>
<asrwt>0</asrwt>
<pdfrwt beam="1">  1        2 0.30794747E+00 0.15789527E+04</pdfrwt>
<pdfrwt beam="2">  1       -2 0.41305278E-01 0.15789527E+04</pdfrwt>
<totfact> 0.35629681E+01</totfact>
</mgrwt>
</event>
<event>
 8    1  0.6876290E-010  0.2561741E+04  0.7818608E-02  0.8381314E-01
         -2   -1    0    0    0  501 -0.00000000000E+00  0.00000000000E+00  0.65720981398E+03  0.65720981398E+03  0.25500000000E-02 0. -1.
          2   -1    0    0  501    0  0.00000000000E+00 -0.00000000000E+00 -0.24963549878E+04  0.24963549878E+04  0.25500000000E-02 0.  1.
     200001    2    1    2    0    0  0.67472360354E+03  0.27581547403E+03  0.49337162185E+02  0.10116750637E+04  0.69980437407E+03 0.  0.
    5000001    2    3    3    0    0  0.32287978971E+03  0.14709844204E+03 -0.29709082479E+02  0.38190490522E+03  0.13812826215E+03 0.  0.
        -11    1    4    4    0    0  0.66565409921E+02  0.32257461315E+02  0.48943034538E+02  0.88695649490E+02  0.51100000000E-03 0. -1.
     200002    1    4    4    0    0  0.25631437978E+03  0.11484098072E+03 -0.78652117017E+02  0.29320925573E+03  0.30000000000E+02 0. -1.
     200000    1    3    3    0    0  0.35184381384E+03  0.12871703199E+03  0.79046244664E+02  0.62977015844E+03  0.50000000000E+03 0. -1.
    -200001    1    1    2    0    0 -0.67472360354E+03 -0.27581547403E+03 -0.18884823360E+04  0.21418897382E+04  0.70000000000E+03 0.  1.
<mgrwt>
<rscale>  0 0.25617408E+04</rscale>
<asrwt>0</asrwt>
<pdfrwt beam="1">  1        2 0.35662214E+00 0.25617408E+04</pdfrwt>
<pdfrwt beam="2">  1       -2 0.93887117E-01 0.25617408E+04</pdfrwt>
<totfact> 0.37855419E+00</totfact>
</mgrwt>
</event>
<event>
 8    1  0.6876290E-010  0.1539926E+04  0.7818608E-02  0.8858328E-01
          2   -1    0    0  501    0  0.00000000000E+00  0.00000000000E+00  0.22180287728E+04  0.22180287728E+04  0.25500000000E-02 0.  1.
         -2   -1    0    0    0  501 -0.00000000000E+00 -0.00000000000E+00 -0.26728360573E+03  0.26728360574E+03  0.25500000000E-02 0. -1.
     200001    2    1    2    0    0 -0.97401517088E+02 -0.24923040783E+03  0.69223098858E+03  0.10205732246E+04  0.70055914344E+03 0.  0.
    5000001    2    3    3    0    0 -0.90357373058E+02 -0.59251584566E+02  0.35590049262E+03  0.38870316217E+03  0.11291493476E+03 0.  0.
        -11    1    4    4    0    0 -0.95917801808E+01 -0.61527134092E+02  0.92061332939E+02  0.11114350858E+03  0.51100000000E-03 0. -1.
     200002    1    4    4    0    0 -0.80765592877E+02  0.22755495262E+01  0.26383915968E+03  0.27755965359E+03  0.30000000000E+02 0. -1.
     200000    1    3    3    0    0 -0.70441440301E+01 -0.18997882326E+03  0.33633049595E+03  0.63187006240E+03  0.50000000000E+03 0. -1.
    -200001    1    1    2    0    0  0.97401517088E+02  0.24923040783E+03  0.12585141785E+04  0.14647391540E+04  0.70000000000E+03 0.  1.
<mgrwt>
<rscale>  0 0.15399256E+04</rscale>
<asrwt>0</asrwt>
<pdfrwt beam="1">  1        2 0.31686125E+00 0.15399256E+04</pdfrwt>
<pdfrwt beam="2">  1       -2 0.38183372E-01 0.15399256E+04</pdfrwt>
<totfact> 0.38691691E+01</totfact>
</mgrwt>
</event>
<event>
 8    1  0.6876290E-010  0.1792700E+04  0.7818608E-02  0.8710191E-01
          2   -1    0    0  501    0  0.00000000000E+00  0.00000000000E+00  0.34616462883E+04  0.34616462883E+04  0.25500000000E-02 0.  1.
         -2   -1    0    0    0  501 -0.00000000000E+00 -0.00000000000E+00 -0.23209873620E+03  0.23209873622E+03  0.25500000000E-02 0. -1.
     200001    2    1    2    0    0 -0.50192688595E+03  0.50094407381E+02  0.21158587410E+04  0.22849360181E+04  0.69973877026E+03 0.  0.
    5000001    2    3    3    0    0 -0.13403063499E+03 -0.42166657631E+02  0.31169558196E+03  0.37473590819E+03  0.15339695871E+03 0.  0.
        -11    1    4    4    0    0 -0.41230102743E+02  0.41205909080E+02  0.30810494524E+02  0.65932805858E+02  0.51100000000E-03 0. -1.
     200002    1    4    4    0    0 -0.92800532251E+02 -0.83372566711E+02  0.28088508744E+03  0.30880310234E+03  0.30000000000E+02 0. -1.
     200000    1    3    3    0    0 -0.36789625095E+03  0.92261065012E+02  0.18041631591E+04  0.19102001100E+04  0.50000000000E+03 0.  1.
    -200001    1    1    2    0    0  0.50192688595E+03 -0.50094407381E+02  0.11136888111E+04  0.14088090063E+04  0.70000000000E+03 0. -1.
<mgrwt>
<rscale>  0 0.17927005E+04</rscale>
<asrwt>0</asrwt>
<pdfrwt beam="1">  1        2 0.49452090E+00 0.17927005E+04</pdfrwt>
<pdfrwt beam="2">  1       -2 0.33156962E-01 0.17927005E+04</pdfrwt>
<totfact> 0.10259011E+01</totfact>
</mgrwt>
</event>
<event>
 8    1  0.6876290E-010  0.1414911E+04  0.7818608E-02  0.8943095E-01
          2   -1    0    0  501    0  0.00000000000E+00  0.00000000000E+00  0.24798959452E+04  0.24798959452E+04  0.25500000000E-02 0.  1.
         -2   -1    0    0    0  501 -0.00000000000E+00 -0.00000000000E+00 -0.20182038480E+03  0.20182038482E+03  0.25500000000E-02 0. -1.
     200001    2    1    2    0    0  0.76557970539E+02  0.34000267876E+01  0.12660853748E+04  0.14488348196E+04  0.70019816844E+03 0.  0.
    5000001    2    3    3    0    0  0.58413025641E+02  0.33870703903E+02  0.33908885827E+03  0.39499410920E+03  0.19099682288E+03 0.  0.
        -11    1    4    4    0    0  0.60237033340E+02 -0.71122884830E+02  0.16413884677E+03  0.18875520113E+03  0.51100000000E-03 0. -1.
     200002    1    4    4    0    0 -0.18240076989E+01  0.10499358873E+03  0.17495001150E+03  0.20623890807E+03  0.30000000000E+02 0. -1.
     200000    1    3    3    0    0  0.18144944898E+02 -0.30470677115E+02  0.92699651655E+03  0.10538407104E+04  0.50000000000E+03 0.  1.
    -200001    1    1    2    0    0 -0.76557970539E+02 -0.34000267876E+01  0.10119901855E+04  0.12328815104E+04  0.70000000000E+03 0. -1.
<mgrwt>
<rscale>  0 0.14149114E+04</rscale>
<asrwt>0</asrwt>
<pdfrwt beam="1">  1        2 0.35427082E+00 0.14149114E+04</pdfrwt>
<pdfrwt beam="2">  1       -2 0.28831486E-01 0.14149114E+04</pdfrwt>
<totfact> 0.48643594E+01</totfact>
</mgrwt>
</event>
<event>
 8    1  0.6876290E-010  0.3102172E+04  0.7818608E-02  0.8215142E-01
         -2   -1    0    0    0  501 -0.00000000000E+00  0.00000000000E+00  0.16713340114E+04  0.16713340114E+04  0.25500000000E-02 0. -1.
          2   -1    0    0  501    0  0.00000000000E+00 -0.00000000000E+00 -0.14394897931E+04  0.14394897931E+04  0.25500000000E-02 0.  1.
     200001    2    1    2    0    0 -0.41002473599E+03  0.78909616337E+03 -0.94780951716E+03  0.14760834658E+04  0.69977601995E+03 0.  0.
    5000001    2    3    3    0    0 -0.80431231901E+02  0.23089114395E+03 -0.15517781728E+03  0.33657052895E+03  0.17152160961E+03 0.  0.
        -11    1    4    4    0    0 -0.83010794697E+02  0.98285729256E+02  0.20893263859E+01  0.12866717490E+03  0.51100000000E-03 0. -1.
     200002    1    4    4    0    0  0.25795627956E+01  0.13260541470E+03 -0.15726714366E+03  0.20790335405E+03  0.30000000000E+02 0. -1.
     200000    1    3    3    0    0 -0.32959350409E+03  0.55820501942E+03 -0.79263169989E+03  0.11395129369E+04  0.50000000000E+03 0.  1.
    -200001    1    1    2    0    0  0.41002473599E+03 -0.78909616337E+03  0.11796537355E+04  0.16347403387E+04  0.70000000000E+03 0. -1.
<mgrwt>
<rscale>  0 0.31021723E+04</rscale>
<asrwt>0</asrwt>
<pdfrwt beam="1">  1        2 0.20564140E+00 0.31021723E+04</pdfrwt>
<pdfrwt beam="2">  1       -2 0.23876200E+00 0.31021723E+04</pdfrwt>
<totfact> 0.10159887E+00</totfact>
</mgrwt>
</event>
<event>
 8    1  0.6876290E-010  0.1711655E+04  0.7818608E-02  0.8754745E-01
          2   -1    0    0  501    0  0.00000000000E+00  0.00000000000E+00  0.14186254272E+04  0.14186254272E+04  0.25500000000E-02 0.  1.
         -2   -1    0    0    0  501 -0.00000000000E+00 -0.00000000000E+00 -0.51630330591E+03  0.51630330592E+03  0.25500000000E-02 0. -1.
     200001    2    1    2    0    0  0.15073110746E+03 -0.45288984883E+03  0.58450640904E+03  0.10300332094E+04  0.70106461061E+03 0.  0.
    5000001    2    3    3    0    0  0.74597670354E+02 -0.54467274414E+02  0.12720759795E+03  0.24031234052E+03  0.18176014862E+03 0.  0.
        -11    1    4    4    0    0 -0.12925286453E+02 -0.26396898724E+02 -0.38514231262E+02  0.48447964891E+02  0.51100000000E-03 0. -1.
     200002    1    4    4    0    0  0.87522956808E+02 -0.28070375690E+02  0.16572182921E+03  0.19186437563E+03  0.30000000000E+02 0. -1.
     200000    1    3    3    0    0  0.76133437109E+02 -0.39842257441E+03  0.45729881109E+03  0.78972086883E+03  0.50000000000E+03 0.  1.
    -200001    1    1    2    0    0 -0.15073110746E+03  0.45288984883E+03  0.31781571222E+03  0.90489552373E+03  0.70000000000E+03 0. -1.
<mgrwt>
<rscale>  0 0.17116553E+04</rscale>
<asrwt>0</asrwt>
<pdfrwt beam="1">  1        2 0.20266077E+00 0.17116553E+04</pdfrwt>
<pdfrwt beam="2">  1       -2 0.73757616E-01 0.17116553E+04</pdfrwt>
<totfact> 0.25533539E+01</totfact>
</mgrwt>
</event>
<event>
 8    1  0.6876290E-010  0.1681411E+04  0.7818608E-02  0.8772038E-01
          2   -1    0    0  501    0  0.00000000000E+00  0.00000000000E+00  0.18336586550E+04  0.18336586551E+04  0.25500000000E-02 0.  1.
         -2   -1    0    0    0  501 -0.00000000000E+00 -0.00000000000E+00 -0.38545117568E+03  0.38545117569E+03  0.25500000000E-02 0. -1.
     200001    2    1    2    0    0 -0.27201356583E+03 -0.10021695180E+02  0.22531530807E+03  0.78399412913E+03  0.69984854940E+03 0.  0.
    5000001    2    3    3    0    0 -0.92611575835E+02 -0.29832479288E+02 -0.19170497055E+02  0.19888657484E+03  0.17239919053E+03 0.  0.
        -11    1    4    4    0    0  0.31161236122E+02  0.15757805038E+02  0.38375080598E+02  0.51884273797E+02  0.51100000000E-03 0. -1.
     200002    1    4    4    0    0 -0.12377281196E+03 -0.45590284326E+02 -0.57545577653E+02  0.14700230104E+03  0.30000000000E+02 0. -1.
     200000    1    3    3    0    0 -0.17940199000E+03  0.19810784108E+02  0.24448580512E+03  0.58510755429E+03  0.50000000000E+03 0. -1.
    -200001    1    1    2    0    0  0.27201356583E+03  0.10021695180E+02  0.12228921713E+04  0.14351157016E+04  0.70000000000E+03 0.  1.
<mgrwt>
<rscale>  0 0.16814112E+04</rscale>
<asrwt>0</asrwt>
<pdfrwt beam="1">  1        2 0.26195123E+00 0.16814112E+04</pdfrwt>
<pdfrwt beam="2">  1       -2 0.55064454E-01 0.16814112E+04</pdfrwt>
<totfact> 0.28959015E+01</totfact>
</mgrwt>
</event>
<event>
 8    1  0.6876290E-010  0.1443845E+04  0.7818608E-02  0.8922679E-01
          2   -1    0    0  501    0  0.00000000000E+00  0.00000000000E+00  0.12820493477E+04  0.12820493477E+04  0.25500000000E-02 0.  1.
         -2   -1    0    0    0  501 -0.00000000000E+00 -0.00000000000E+00 -0.40651472341E+03  0.40651472342E+03  0.25500000000E-02 0. -1.
     200001    2    1    2    0    0  0.74134960388E+02  0.55639485563E+02  0.27673182737E+03  0.76273658486E+03  0.70469486226E+03 0.  0.
    5000001    2    3    3    0    0  0.57596883286E+02  0.64466901255E+02  0.11135250261E+03  0.23576243718E+03  0.18897397871E+03 0.  0.
        -11    1    4    4    0    0  0.10438817650E+03  0.88769624689E+02  0.10893030506E+03  0.17505070415E+03  0.51100000000E-03 0. -1.
     200002    1    4    4    0    0 -0.46791293218E+02 -0.24302723434E+02  0.24221975441E+01  0.60711733036E+02  0.30000000000E+02 0. -1.
     200000    1    3    3    0    0  0.16538077102E+02 -0.88274156912E+01  0.16537932477E+03  0.52697414768E+03  0.50000000000E+03 0. -1.
    -200001    1    1    2    0    0 -0.74134960388E+02 -0.55639485563E+02  0.59880279689E+03  0.92582748624E+03  0.70000000000E+03 0. -1.
<mgrwt>
<rscale>  0 0.14438448E+04</rscale>
<asrwt>0</asrwt>
<pdfrwt beam="1">  1        2 0.18314991E+00 0.14438448E+04</pdfrwt>
<pdfrwt beam="2">  1       -2 0.58073530E-01 0.14438448E+04</pdfrwt>
<totfact> 0.51778734E+01</totfact>
</mgrwt>
</event>
<event>
 8    1  0.6876290E-010  0.1855915E+04  0.7818608E-02  0.8677117E-01
          2   -1    0    0  501    0  0.00000000000E+00  0.00000000000E+00  0.14663733111E+04  0.14663733111E+04  0.25500000000E-02 0.  1.
         -2   -1    0    0    0  501 -0.00000000000E+00 -0.00000000000E+00 -0.58723465605E+03  0.58723465606E+03  0.25500000000E-02 0. -1.
     200001    2    1    2    0    0 -0.12960216857E+03 -0.98000225816E+02 -0.21008872344E+03  0.74868764454E+03  0.69999653643E+03 0.  0.
    5000001    2    3    3    0    0 -0.52741396858E+02 -0.15491001156E+03 -0.32166532057E+02  0.20942647579E+03  0.12667279247E+03 0.  0.
        -11    1    4    4    0    0 -0.44951409946E+02 -0.76600557867E+01 -0.37225727884E+02  0.58864764737E+02  0.51100000000E-03 0. -1.
     200002    1    4    4    0    0 -0.77899869126E+01 -0.14724995578E+03  0.50591958271E+01  0.15056171105E+03  0.30000000000E+02 0. -1.
     200000    1    3    3    0    0 -0.76860771708E+02  0.56909785748E+02 -0.17792219138E+03  0.53926116875E+03  0.50000000000E+03 0. -1.
    -200001    1    1    2    0    0  0.12960216857E+03  0.98000225816E+02  0.10892273785E+04  0.13049203227E+04  0.70000000000E+03 0.  1.
<mgrwt>
<rscale>  0 0.18559151E+04</rscale>
<asrwt>0</asrwt>
<pdfrwt beam="1">  1        2 0.20948190E+00 0.18559151E+04</pdfrwt>
<pdfrwt beam="2">  1       -2 0.83890665E-01 0.18559151E+04</pdfrwt>
<totfact> 0.17838829E+01</totfact>
</mgrwt>
</event>
<event>
 8    1  0.6876290E-010  0.1650878E+04  0.7818608E-02  0.8789887E-01
          2   -1    0    0  501    0  0.00000000000E+00  0.00000000000E+00  0.35589062285E+03  0.35589062286E+03  0.25500000000E-02 0.  1.
         -2   -1    0    0    0  501 -0.00000000000E+00 -0.00000000000E+00 -0.19144910682E+04  0.19144910682E+04  0.25500000000E-02 0. -1.
     200001    2    1    2    0    0 -0.35368898825E+03  0.24340416704E+03 -0.89944663774E+03  0.12173739840E+04  0.69903767705E+03 0.  0.
    5000001    2    3    3    0    0 -0.42006726754E+02 -0.43815194515E+02 -0.12948641344E+03  0.20619667971E+03  0.14854629950E+03 0.  0.
        -11    1    4    4    0    0 -0.20655532294E+02 -0.55443563867E+02  0.11278364008E+02  0.60231563848E+02  0.51100000000E-03 0. -1.
     200002    1    4    4    0    0 -0.21351194459E+02  0.11628369352E+02 -0.14076477745E+03  0.14596511587E+03  0.30000000000E+02 0. -1.
     200000    1    3    3    0    0 -0.31168226150E+03  0.28721936156E+03 -0.76996022429E+03  0.10111773043E+04  0.50000000000E+03 0. -1.
    -200001    1    1    2    0    0  0.35368898825E+03 -0.24340416704E+03 -0.65915380757E+03  0.10530077070E+04  0.70000000000E+03 0.  1.
<mgrwt>
<rscale>  0 0.16508778E+04</rscale>
<asrwt>0</asrwt>
<pdfrwt beam="1">  1        2 0.50841519E-01 0.16508778E+04</pdfrwt>
<pdfrwt beam="2">  1       -2 0.27349872E+00 0.16508778E+04</pdfrwt>
<totfact> 0.43598695E+00</totfact>
</mgrwt>
</event>
<event>
 8    1  0.6876290E-010  0.2505570E+04  0.7818608E-02  0.8401004E-01
          2   -1    0    0  501    0  0.00000000000E+00  0.00000000000E+00  0.40361541723E+04  0.40361541723E+04  0.25500000000E-02 0.  1.
         -2   -1    0    0    0  501 -0.00000000000E+00 -0.00000000000E+00 -0.38885281657E+03  0.38885281658E+03  0.25500000000E-02 0. -1.
     200001    2    1    2    0    0 -0.10805413481E+02 -0.87301078250E+02  0.36523942872E+04  0.37194829473E+04  0.69773285052E+03 0.  0.
    5000001    2    3    3    0    0  0.31208009556E+02 -0.52865787543E+02  0.92984550831E+03  0.95086907561E+03  0.18913116685E+03 0.  0.
        -11    1    4    4    0    0  0.23711229461E+02 -0.74305955702E+02  0.89854575159E+03  0.90192464495E+03  0.51100000000E-03 0. -1.
     200002    1    4    4    0    0  0.74967800946E+01  0.21440168159E+02  0.31299756718E+02  0.48944430665E+02  0.30000000000E+02 0. -1.
     200000    1    3    3    0    0 -0.42013423036E+02 -0.34435290707E+02  0.27225487789E+04  0.27686138717E+04  0.50000000000E+03 0.  1.
    -200001    1    1    2    0    0  0.10805413481E+02  0.87301078250E+02 -0.50929315414E+01  0.70552404153E+03  0.70000000000E+03 0. -1.
<mgrwt>
<rscale>  0 0.25055697E+04</rscale>
<asrwt>0</asrwt>
<pdfrwt beam="1">  1        2 0.57659345E+00 0.25055697E+04</pdfrwt>
<pdfrwt beam="2">  1       -2 0.55550403E-01 0.25055697E+04</pdfrwt>
<totfact> 0.14693499E+00</totfact>
</mgrwt>
</event>
<event>
 8    1  0.6876290E-010  0.1501951E+04  0.7818608E-02  0.8883157E-01
         -2   -1    0    0    0  501 -0.00000000000E+00  0.00000000000E+00  0.47964652793E+03  0.47964652794E+03  0.25500000000E-02 0. -1.
          2   -1    0    0  501    0  0.00000000000E+00 -0.00000000000E+00 -0.11757910640E+04  0.11757910640E+04  0.25500000000E-02 0.  1.
     200001    2    1    2    0    0 -0.15027360262E+03  0.21403760715E+03 -0.42913468904E+03  0.86190844230E+03  0.70023947950E+03 0.  0.
    5000001    2    3    3    0    0 -0.53610418852E+02  0.85243582530E+02 -0.13621142602E+03  0.26046375665E+03  0.19785669203E+03 0.  0.
        -11    1    4    4    0    0 -0.37063286437E+02  0.10929911750E+01 -0.16186188922E+03  0.16605466875E+03  0.51100000000E-03 0. -1.
     200002    1    4    4    0    0 -0.16547132415E+02  0.84150591355E+02  0.25650463202E+02  0.94409087905E+02  0.30000000000E+02 0. -1.
     200000    1    3    3    0    0 -0.96663183773E+02  0.12879402463E+03 -0.29292326302E+03  0.60144468565E+03  0.50000000000E+03 0. -1.
    -200001    1    1    2    0    0  0.15027360262E+03 -0.21403760715E+03 -0.26700984704E+03  0.79352914964E+03  0.70000000000E+03 0. -1.
<mgrwt>
<rscale>  0 0.15019509E+04</rscale>
<asrwt>0</asrwt>
<pdfrwt beam="1">  1        2 0.16797015E+00 0.15019509E+04</pdfrwt>
<pdfrwt beam="2">  1       -2 0.68520933E-01 0.15019509E+04</pdfrwt>
<totfact> 0.41590922E+01</totfact>
</mgrwt>
</event>
<event>
 8    1  0.6876290E-010  0.2305724E+04  0.7818608E-02  0.8475668E-01
         -2   -1    0    0    0  501 -0.00000000000E+00  0.00000000000E+00  0.35376205788E+03  0.35376205789E+03  0.25500000000E-02 0. -1.
          2   -1    0    0  501    0  0.00000000000E+00 -0.00000000000E+00 -0.37570185489E+04  0.37570185489E+04  0.25500000000E-02 0.  1.
     200001    2    1    2    0    0 -0.87061590975E+03  0.24561392858E+03 -0.19575954958E+04  0.22673506577E+04  0.70028609543E+03 0.  0.
    5000001    2    3    3    0    0 -0.20991530809E+03  0.11851807251E+03 -0.59930577914E+03  0.67122109024E+03  0.18237150267E+03 0.  0.
        -11    1    4    4    0    0  0.29236113890E+02 -0.76435413741E+01 -0.61430920811E+02  0.68461172296E+02  0.51100000000E-03 0. -1.
     200002    1    4    4    0    0 -0.23915142198E+03  0.12616161388E+03 -0.53787485833E+03  0.60275991794E+03  0.30000000000E+02 0. -1.
     200000    1    3    3    0    0 -0.66070060166E+03  0.12709585607E+03 -0.13582897167E+04  0.15961295674E+04  0.50000000000E+03 0.  1.
    -200001    1    1    2    0    0  0.87061590975E+03 -0.24561392858E+03 -0.14456609952E+04  0.18434299491E+04  0.70000000000E+03 0. -1.
<mgrwt>
<rscale>  0 0.23057238E+04</rscale>
<asrwt>0</asrwt>
<pdfrwt beam="1">  1        2 0.53671691E+00 0.23057238E+04</pdfrwt>
<pdfrwt beam="2">  1       -2 0.50537439E-01 0.23057238E+04</pdfrwt>
<totfact> 0.27956973E+00</totfact>
</mgrwt>
</event>
<event>
 8    1  0.6876290E-010  0.1548107E+04  0.7818608E-02  0.8853078E-01
          2   -1    0    0  501    0  0.00000000000E+00  0.00000000000E+00  0.71489440481E+03  0.71489440482E+03  0.25500000000E-02 0.  1.
         -2   -1    0    0    0  501 -0.00000000000E+00 -0.00000000000E+00 -0.83810839336E+03  0.83810839337E+03  0.25500000000E-02 0. -1.
     200001    2    1    2    0    0  0.23813302276E+03 -0.11549515223E+03 -0.25852641545E+03  0.79250564527E+03  0.70084436474E+03 0.  0.
    5000001    2    3    3    0    0  0.13978611134E+03 -0.18689134729E+01  0.18372763978E+02  0.20152663322E+03  0.14398533147E+03 0.  0.
        -11    1    4    4    0    0  0.44922437216E+02  0.21266571312E+01 -0.59876801973E+02  0.74885108338E+02  0.51100000000E-03 0. -1.
     200002    1    4    4    0    0  0.94863674120E+02 -0.39955706041E+01  0.78249565951E+02  0.12664152488E+03  0.30000000000E+02 0. -1.
     200000    1    3    3    0    0  0.98346911422E+02 -0.11362623876E+03 -0.27689917943E+03  0.59097901206E+03  0.50000000000E+03 0. -1.
    -200001    1    1    2    0    0 -0.23813302276E+03  0.11549515223E+03  0.13531242690E+03  0.76049715291E+03  0.70000000000E+03 0.  1.
<mgrwt>
<rscale>  0 0.15481072E+04</rscale>
<asrwt>0</asrwt>
<pdfrwt beam="1">  1        2 0.10212777E+00 0.15481072E+04</pdfrwt>
<pdfrwt beam="2">  1       -2 0.11972977E+00 0.15481072E+04</pdfrwt>
<totfact> 0.22587766E+01</totfact>
</mgrwt>
</event>
<event>
 8    1  0.6876290E-010  0.1452583E+04  0.7818608E-02  0.8916611E-01
          2   -1    0    0  501    0  0.00000000000E+00  0.00000000000E+00  0.19641488626E+04  0.19641488626E+04  0.25500000000E-02 0.  1.
         -2   -1    0    0    0  501 -0.00000000000E+00 -0.00000000000E+00 -0.26856397716E+03  0.26856397717E+03  0.25500000000E-02 0. -1.
     200001    2    1    2    0    0 -0.97403566819E+02  0.14061600727E+03  0.70597342793E+03  0.10085432628E+04  0.69964327745E+03 0.  0.
    5000001    2    3    3    0    0 -0.44169832278E+02  0.21926732430E+02  0.18358238178E+03  0.27382333008E+03  0.19709127204E+03 0.  0.
        -11    1    4    4    0    0 -0.10075628235E+03 -0.44425943122E+02  0.87528326404E+02  0.14066520813E+03  0.51100000000E-03 0. -1.
     200002    1    4    4    0    0  0.56586450076E+02  0.66352675553E+02  0.96054055377E+02  0.13315812194E+03  0.30000000000E+02 0. -1.
     200000    1    3    3    0    0 -0.53233734541E+02  0.11868927484E+03  0.52239104614E+03  0.73471993273E+03  0.50000000000E+03 0. -1.
    -200001    1    1    2    0    0  0.97403566819E+02 -0.14061600727E+03  0.98961145749E+03  0.12241695769E+04  0.70000000000E+03 0.  1.
<mgrwt>
<rscale>  0 0.14525834E+04</rscale>
<asrwt>0</asrwt>
<pdfrwt beam="1">  1        2 0.28059269E+00 0.14525834E+04</pdfrwt>
<pdfrwt beam="2">  1       -2 0.38366283E-01 0.14525834E+04</pdfrwt>
<totfact> 0.52142394E+01</totfact>
</mgrwt>
</event>
<event>
 8    1  0.6876290E-010  0.1480465E+04  0.7818608E-02  0.8897549E-01
         -2   -1    0    0    0  501 -0.00000000000E+00  0.00000000000E+00  0.50382334204E+03  0.50382334205E+03  0.25500000000E-02 0. -1.
          2   -1    0    0  501    0  0.00000000000E+00 -0.00000000000E+00 -0.10875715947E+04  0.10875715947E+04  0.25500000000E-02 0.  1.
     200001    2    1    2    0    0  0.40449824062E+02 -0.23334757603E+03 -0.24673077953E+03  0.77919541898E+03  0.70013009069E+03 0.  0.
    5000001    2    3    3    0    0 -0.86384606468E+02 -0.58417645499E+02 -0.12942248906E+03  0.22201619433E+03  0.14719404992E+03 0.  0.
        -11    1    4    4    0    0 -0.55170467303E+02  0.42287765804E+02 -0.37648839352E+02  0.79053593872E+02  0.51100000000E-03 0. -1.
     200002    1    4    4    0    0 -0.31214139165E+02 -0.10070541130E+03 -0.91773649712E+02  0.14296260046E+03  0.30000000000E+02 0. -1.
     200000    1    3    3    0    0  0.12683443053E+03 -0.17492993054E+03 -0.11730829047E+03  0.55717922465E+03  0.50000000000E+03 0.  1.
    -200001    1    1    2    0    0 -0.40449824062E+02  0.23334757603E+03 -0.33701747316E+03  0.81219951780E+03  0.70000000000E+03 0.  1.
<mgrwt>
<rscale>  0 0.14804647E+04</rscale>
<asrwt>0</asrwt>
<pdfrwt beam="1">  1        2 0.15536737E+00 0.14804647E+04</pdfrwt>
<pdfrwt beam="2">  1       -2 0.71974764E-01 0.14804647E+04</pdfrwt>
<totfact> 0.42130498E+01</totfact>
</mgrwt>
</event>
<event>
 8    1  0.6876290E-010  0.1411765E+04  0.7818608E-02  0.8945346E-01
          2   -1    0    0  501    0  0.00000000000E+00  0.00000000000E+00  0.34745305992E+03  0.34745305993E+03  0.25500000000E-02 0.  1.
         -2   -1    0    0    0  501 -0.00000000000E+00 -0.00000000000E+00 -0.14340645666E+04  0.14340645666E+04  0.25500000000E-02 0. -1.
     200001    2    1    2    0    0  0.67506941960E+02 -0.25747005541E+02 -0.61542378589E+03  0.93461859846E+03  0.69967520525E+03 0.  0.
    5000001    2    3    3    0    0  0.87435827852E+02  0.37092558183E+02 -0.21456627090E+03  0.29038826808E+03  0.17107244011E+03 0.  0.
        -11    1    4    4    0    0 -0.21316189262E+02 -0.82537052768E+01  0.17239427413E+02  0.28630428450E+02  0.51100000000E-03 0. -1.
     200002    1    4    4    0    0  0.10875201711E+03  0.45346263460E+02 -0.23180569831E+03  0.26175783963E+03  0.30000000000E+02 0. -1.
     200000    1    3    3    0    0 -0.19928885892E+02 -0.62839563724E+02 -0.40085751499E+03  0.64423033038E+03  0.50000000000E+03 0.  1.
    -200001    1    1    2    0    0 -0.67506941960E+02  0.25747005541E+02 -0.47118772078E+03  0.84689902805E+03  0.70000000000E+03 0.  1.
<mgrwt>
<rscale>  0 0.14117650E+04</rscale>
<asrwt>0</asrwt>
<pdfrwt beam="1">  1        2 0.49636152E-01 0.14117650E+04</pdfrwt>
<pdfrwt beam="2">  1       -2 0.20486636E+00 0.14117650E+04</pdfrwt>
<totfact> 0.12181702E+01</totfact>
</mgrwt>
</event>
<event>
 8    1  0.6876290E-010  0.1580290E+04  0.7818608E-02  0.8832749E-01
         -2   -1    0    0    0  501 -0.00000000000E+00  0.00000000000E+00  0.31520364659E+03  0.31520364660E+03  0.25500000000E-02 0. -1.
          2   -1    0    0  501    0  0.00000000000E+00 -0.00000000000E+00 -0.19807162083E+04  0.19807162083E+04  0.25500000000E-02 0.  1.
     200001    2    1    2    0    0 -0.16735005617E+03  0.31259205569E+03 -0.92933092871E+03  0.12199629639E+04  0.70635247826E+03 0.  0.
    5000001    2    3    3    0    0 -0.18492410708E+03  0.12225731407E+03 -0.20524795836E+03  0.31950068864E+03  0.10397206071E+03 0.  0.
        -11    1    4    4    0    0 -0.13569058135E+03  0.57185246152E+02 -0.17200327096E+03  0.22642263903E+03  0.51100000000E-03 0. -1.
     200002    1    4    4    0    0 -0.49233525729E+02  0.65072067918E+02 -0.33244687398E+02  0.93078049609E+02  0.30000000000E+02 0.  1.
     200000    1    3    3    0    0  0.17574050911E+02  0.19033474162E+03 -0.72408297035E+03  0.90046227522E+03  0.50000000000E+03 0.  1.
    -200001    1    1    2    0    0  0.16735005617E+03 -0.31259205569E+03 -0.73618163296E+03  0.10759568910E+04  0.70000000000E+03 0.  1.
<mgrwt>
<rscale>  0 0.15802898E+04</rscale>
<asrwt>0</asrwt>
<pdfrwt beam="1">  1        2 0.28295945E+00 0.15802898E+04</pdfrwt>
<pdfrwt beam="2">  1       -2 0.45029094E-01 0.15802898E+04</pdfrwt>
<totfact> 0.36936654E+01</totfact>
</mgrwt>
</event>
<event>
 8    1  0.6876290E-010  0.1662040E+04  0.7818608E-02  0.8783316E-01
         -2   -1    0    0    0  501 -0.00000000000E+00  0.00000000000E+00  0.74410465784E+03  0.74410465785E+03  0.25500000000E-02 0.  1.
          2   -1    0    0  501    0  0.00000000000E+00 -0.00000000000E+00 -0.92808740363E+03  0.92808740363E+03  0.25500000000E-02 0. -1.
     200001    2    1    2    0    0 -0.41630632018E+03  0.16163773444E+03 -0.12110444573E+03  0.83949080050E+03  0.70045757040E+03 0.  0.
    5000001    2    3    3    0    0 -0.14375693826E+03  0.12136280960E+03 -0.42379371028E+02  0.26320712683E+03  0.17912842229E+03 0.  0.
        -11    1    4    4    0    0  0.32263587545E+02 -0.12400262259E+02 -0.17432856098E+02  0.38711885221E+02  0.51100000000E-03 0. -1.
     200002    1    4    4    0    0 -0.17602052581E+03  0.13376307186E+03 -0.24946514930E+02  0.22449524161E+03  0.30000000000E+02 0. -1.
     200000    1    3    3    0    0 -0.27254938192E+03  0.40274924842E+02 -0.78725074704E+02  0.57628367367E+03  0.50000000000E+03 0. -1.
    -200001    1    1    2    0    0  0.41630632018E+03 -0.16163773444E+03 -0.62878300055E+02  0.83270126098E+03  0.70000000000E+03 0.  1.
<mgrwt>
<rscale>  0 0.16620399E+04</rscale>
<asrwt>0</asrwt>
<pdfrwt beam="1">  1        2 0.13258391E+00 0.16620399E+04</pdfrwt>
<pdfrwt beam="2">  1       -2 0.10630067E+00 0.16620399E+04</pdfrwt>
<totfact> 0.21293815E+01</totfact>
</mgrwt>
</event>
<event>
 8    1  0.6876290E-010  0.1755980E+04  0.7818608E-02  0.8730065E-01
         -2   -1    0    0    0  501 -0.00000000000E+00  0.00000000000E+00  0.44839579491E+03  0.44839579491E+03  0.25500000000E-02 0. -1.
          2   -1    0    0  501    0  0.00000000000E+00 -0.00000000000E+00 -0.17191659473E+04  0.17191659473E+04  0.25500000000E-02 0.  1.
     200001    2    1    2    0    0  0.24991768377E+03 -0.19022572340E+03 -0.11622176175E+04  0.13926886382E+04  0.70013368571E+03 0.  0.
    5000001    2    3    3    0    0 -0.59823131814E+01  0.20668708372E+02 -0.27209662120E+03  0.31924713631E+03  0.16558737632E+03 0.  0.
        -11    1    4    4    0    0 -0.44073798010E+02  0.82127315309E+01 -0.26490522479E+03  0.26867215477E+03  0.51100000000E-03 0. -1.
     200002    1    4    4    0    0  0.38091484828E+02  0.12455976842E+02 -0.71913964185E+01  0.50574981542E+02  0.30000000000E+02 0. -1.
     200000    1    3    3    0    0  0.25589999695E+03 -0.21089443177E+03 -0.89012099633E+03  0.10734415018E+04  0.50000000000E+03 0.  1.
    -200001    1    1    2    0    0 -0.24991768377E+03  0.19022572340E+03 -0.10855253482E+03  0.77487310401E+03  0.70000000000E+03 0. -1.
<mgrwt>
<rscale>  0 0.17559804E+04</rscale>
<asrwt>0</asrwt>
<pdfrwt beam="1">  1        2 0.24559513E+00 0.17559804E+04</pdfrwt>
<pdfrwt beam="2">  1       -2 0.64056543E-01 0.17559804E+04</pdfrwt>
<totfact> 0.23988326E+01</totfact>
</mgrwt>
</event>
<event>
 8    1  0.6876290E-010  0.1893113E+04  0.7818608E-02  0.8658292E-01
          2   -1    0    0  501    0  0.00000000000E+00  0.00000000000E+00  0.29490417852E+04  0.29490417852E+04  0.25500000000E-02 0.  1.
         -2   -1    0    0    0  501 -0.00000000000E+00 -0.00000000000E+00 -0.30381699845E+03  0.30381699846E+03  0.25500000000E-02 0. -1.
     200001    2    1    2    0    0  0.40739354250E+02 -0.49581676583E+03  0.63290017776E+03  0.10649501265E+04  0.69718159513E+03 0.  0.
    5000001    2    3    3    0    0  0.98697598045E+02 -0.64182391585E+02  0.57901195667E+02  0.18728776515E+03  0.13365464177E+03 0.  0.
        -11    1    4    4    0    0  0.54733505885E+02  0.30428619201E+02  0.46776778933E+02  0.78164727215E+02  0.51100000000E-03 0. -1.
     200002    1    4    4    0    0  0.43964092160E+02 -0.94611010786E+02  0.11124416735E+02  0.10912303794E+03  0.30000000000E+02 0. -1.
     200000    1    3    3    0    0 -0.57958243796E+02 -0.43163437425E+03  0.57499898210E+03  0.87766236131E+03  0.50000000000E+03 0. -1.
    -200001    1    1    2    0    0 -0.40739354250E+02  0.49581676583E+03  0.20123246090E+04  0.21879086572E+04  0.70000000000E+03 0.  1.
<mgrwt>
<rscale>  0 0.18931128E+04</rscale>
<asrwt>0</asrwt>
<pdfrwt beam="1">  1        2 0.42129165E+00 0.18931128E+04</pdfrwt>
<pdfrwt beam="2">  1       -2 0.43402431E-01 0.18931128E+04</pdfrwt>
<totfact> 0.11933611E+01</totfact>
</mgrwt>
</event>
<event>
 8    1  0.6876290E-010  0.1526911E+04  0.7818608E-02  0.8866752E-01
          2   -1    0    0  501    0  0.00000000000E+00  0.00000000000E+00  0.33106717521E+04  0.33106717521E+04  0.25500000000E-02 0.  1.
         -2   -1    0    0    0  501 -0.00000000000E+00 -0.00000000000E+00 -0.17605617813E+03  0.17605617815E+03  0.25500000000E-02 0. -1.
     200001    2    1    2    0    0  0.79515553291E+02  0.28802972860E+03  0.17132861122E+04  0.18744434372E+04  0.69921745479E+03 0.  0.
    5000001    2    3    3    0    0  0.34689104334E+02 -0.25473544719E+02  0.57339322859E+03  0.59005661886E+03  0.13241896931E+03 0.  0.
        -11    1    4    4    0    0  0.32061436869E+02 -0.70367524699E+02  0.23561171459E+03  0.24797662051E+03  0.51100000000E-03 0. -1.
     200002    1    4    4    0    0  0.26276674649E+01  0.44893979980E+02  0.33778151400E+03  0.34207999836E+03  0.30000000000E+02 0. -1.
     200000    1    3    3    0    0  0.44826448957E+02  0.31350327332E+03  0.11398928836E+04  0.12843868183E+04  0.50000000000E+03 0.  1.
    -200001    1    1    2    0    0 -0.79515553291E+02 -0.28802972860E+03  0.14213294617E+04  0.16122844931E+04  0.70000000000E+03 0.  1.
<mgrwt>
<rscale>  0 0.15269109E+04</rscale>
<asrwt>0</asrwt>
<pdfrwt beam="1">  1        2 0.47295308E+00 0.15269109E+04</pdfrwt>
<pdfrwt beam="2">  1       -2 0.25150884E-01 0.15269109E+04</pdfrwt>
<totfact> 0.21579574E+01</totfact>
</mgrwt>
</event>
<event>
 8    1  0.6876290E-010  0.1611355E+04  0.7818608E-02  0.8813602E-01
         -2   -1    0    0    0  501 -0.00000000000E+00  0.00000000000E+00  0.54935546374E+03  0.54935546374E+03  0.25500000000E-02 0.  1.
          2   -1    0    0  501    0  0.00000000000E+00 -0.00000000000E+00 -0.11815960172E+04  0.11815960172E+04  0.25500000000E-02 0. -1.
     200001    2    1    2    0    0 -0.32495094886E+03 -0.95110879734E+02 -0.54271855222E+03  0.94822969936E+03  0.69996924020E+03 0.  0.
    5000001    2    3    3    0    0 -0.91289384239E+02 -0.12454963424E+03 -0.21687426047E+03  0.30663880985E+03  0.15213990859E+03 0.  0.
        -11    1    4    4    0    0 -0.84617622736E+02  0.32530923298E+01 -0.96720047572E+02  0.12855151609E+03  0.51100000000E-03 0. -1.
     200002    1    4    4    0    0 -0.66717615028E+01 -0.12780272657E+03 -0.12015421289E+03  0.17808729375E+03  0.30000000000E+02 0. -1.
     200000    1    3    3    0    0 -0.23366156462E+03  0.29438754503E+02 -0.32584429175E+03  0.64159088952E+03  0.50000000000E+03 0. -1.
    -200001    1    1    2    0    0  0.32495094886E+03  0.95110879734E+02 -0.89522001211E+02  0.78272178155E+03  0.70000000000E+03 0.  1.
<mgrwt>
<rscale>  0 0.16113550E+04</rscale>
<asrwt>0</asrwt>
<pdfrwt beam="1">  1        2 0.16879943E+00 0.16113550E+04</pdfrwt>
<pdfrwt beam="2">  1       -2 0.78479352E-01 0.16113550E+04</pdfrwt>
<totfact> 0.30349414E+01</totfact>
</mgrwt>
</event>
<event>
 8    1  0.6876290E-010  0.2412901E+04  0.7818608E-02  0.8434689E-01
          2   -1    0    0  501    0  0.00000000000E+00  0.00000000000E+00  0.43018373001E+04  0.43018373001E+04  0.25500000000E-02 0.  1.
         -2   -1    0    0    0  501 -0.00000000000E+00 -0.00000000000E+00 -0.33834917830E+03  0.33834917831E+03  0.25500000000E-02 0. -1.
     200001    2    1    2    0    0  0.15534701365E+02  0.28397276907E+03  0.17223538485E+03  0.77437748468E+03  0.69936657089E+03 0.  0.
    5000001    2    3    3    0    0  0.70127449508E+02  0.10014994764E+03  0.34660084976E+02  0.22147770989E+03  0.18139234632E+03 0.  0.
        -11    1    4    4    0    0  0.25500310669E+02  0.51637137047E+02  0.10548359478E+03  0.12018089921E+03  0.51100000000E-03 0. -1.
     200002    1    4    4    0    0  0.44627138840E+02  0.48512810596E+02 -0.70823509808E+02  0.10129681068E+03  0.30000000000E+02 0. -1.
     200000    1    3    3    0    0 -0.54592748144E+02  0.18382282143E+03  0.13757529987E+03  0.55289977479E+03  0.50000000000E+03 0. -1.
    -200001    1    1    2    0    0 -0.15534701365E+02 -0.28397276907E+03  0.37912527370E+04  0.38658089937E+04  0.70000000000E+03 0.  1.
<mgrwt>
<rscale>  0 0.24129013E+04</rscale>
<asrwt>0</asrwt>
<pdfrwt beam="1">  1        2 0.61454818E+00 0.24129013E+04</pdfrwt>
<pdfrwt beam="2">  1       -2 0.48335598E-01 0.24129013E+04</pdfrwt>
<totfact> 0.12691566E+00</totfact>
</mgrwt>
</event>
<event>
 8    1  0.6876290E-010  0.2451086E+04  0.7818608E-02  0.8420622E-01
         -2   -1    0    0    0  501 -0.00000000000E+00  0.00000000000E+00  0.13571843649E+04  0.13571843649E+04  0.25500000000E-02 0. -1.
          2   -1    0    0  501    0  0.00000000000E+00 -0.00000000000E+00 -0.11066702376E+04  0.11066702376E+04  0.25500000000E-02 0.  1.
     200001    2    1    2    0    0  0.48274783507E+03  0.10852829635E+03  0.10058030734E+04  0.13213637905E+04  0.69967033748E+03 0.  0.
    5000001    2    3    3    0    0  0.19199238425E+03  0.27439713438E+02  0.41151672861E+03  0.48812291897E+03  0.17692923053E+03 0.  0.
        -11    1    4    4    0    0 -0.10422048305E+02 -0.32832641721E+02  0.13249720645E+03  0.13690183041E+03  0.51100000000E-03 0. -1.
     200002    1    4    4    0    0  0.20241443255E+03  0.60272355159E+02  0.27901952216E+03  0.35122108856E+03  0.30000000000E+02 0. -1.
     200000    1    3    3    0    0  0.29075545082E+03  0.81088582907E+02  0.59428634474E+03  0.83324087154E+03  0.50000000000E+03 0. -1.
    -200001    1    1    2    0    0 -0.48274783507E+03 -0.10852829635E+03 -0.75528894608E+03  0.11424908120E+04  0.70000000000E+03 0.  1.
<mgrwt>
<rscale>  0 0.24510859E+04</rscale>
<asrwt>0</asrwt>
<pdfrwt beam="1">  1        2 0.15809575E+00 0.24510859E+04</pdfrwt>
<pdfrwt beam="2">  1       -2 0.19388348E+00 0.24510859E+04</pdfrwt>
<totfact> 0.31819670E+00</totfact>
</mgrwt>
</event>
<event>
 8    1  0.6876290E-010  0.2227842E+04  0.7818608E-02  0.8506928E-01
         -2   -1    0    0    0  501 -0.00000000000E+00  0.00000000000E+00  0.16001630952E+04  0.16001630952E+04  0.25500000000E-02 0. -1.
          2   -1    0    0  501    0  0.00000000000E+00 -0.00000000000E+00 -0.77543336683E+03  0.77543336684E+03  0.25500000000E-02 0.  1.
     200001    2    1    2    0    0 -0.10719153256E+03  0.11557966302E+03  0.13210878412E+04  0.15031172019E+04  0.69945661430E+03 0.  0.
    5000001    2    3    3    0    0 -0.37900561095E+02 -0.13830498213E+02  0.26680228822E+03  0.32707882845E+03  0.18484957077E+03 0.  0.
        -11    1    4    4    0    0 -0.88059415125E+02  0.88851722759E+01  0.50563035689E+02  0.10193148413E+03  0.51100000000E-03 0. -1.
     200002    1    4    4    0    0  0.50158854030E+02 -0.22715670489E+02  0.21623925253E+03  0.22514734432E+03  0.30000000000E+02 0. -1.
     200000    1    3    3    0    0 -0.69290971464E+02  0.12941016123E+03  0.10542855530E+04  0.11760383735E+04  0.50000000000E+03 0. -1.
    -200001    1    1    2    0    0  0.10719153256E+03 -0.11557966302E+03 -0.49635811286E+03  0.87247926013E+03  0.70000000000E+03 0.  1.
<mgrwt>
<rscale>  0 0.22278419E+04</rscale>
<asrwt>0</asrwt>
<pdfrwt beam="1">  1        2 0.11077620E+00 0.22278419E+04</pdfrwt>
<pdfrwt beam="2">  1       -2 0.22859472E+00 0.22278419E+04</pdfrwt>
<totfact> 0.31606971E+00</totfact>
</mgrwt>
</event>
<event>
 8    1  0.6876290E-010  0.1486713E+04  0.7818608E-02  0.8893337E-01
          2   -1    0    0  501    0  0.00000000000E+00  0.00000000000E+00  0.27340197975E+04  0.27340197975E+04  0.25500000000E-02 0.  1.
         -2   -1    0    0    0  501 -0.00000000000E+00 -0.00000000000E+00 -0.20211215789E+03  0.20211215790E+03  0.25500000000E-02 0. -1.
     200001    2    1    2    0    0  0.23075037394E+03  0.93419850397E+02  0.12593600310E+04  0.14625816781E+04  0.70084554214E+03 0.  0.
    5000001    2    3    3    0    0  0.12724493942E+03  0.49197502259E+02  0.48854509331E+03  0.53693344081E+03  0.17609526632E+03 0.  0.
        -11    1    4    4    0    0  0.14891620643E+03  0.34213344229E+02  0.23528400749E+03  0.28054438800E+03  0.51100000000E-03 0. -1.
     200002    1    4    4    0    0 -0.21671267005E+02  0.14984158030E+02  0.25326108582E+03  0.25638905280E+03  0.30000000000E+02 0. -1.
     200000    1    3    3    0    0  0.10350543452E+03  0.44222348139E+02  0.77081493764E+03  0.92564823726E+03  0.50000000000E+03 0. -1.
    -200001    1    1    2    0    0 -0.23075037394E+03 -0.93419850397E+02  0.12725476086E+04  0.14735502773E+04  0.70000000000E+03 0. -1.
<mgrwt>
<rscale>  0 0.14867127E+04</rscale>
<asrwt>0</asrwt>
<pdfrwt beam="1">  1        2 0.39057424E+00 0.14867127E+04</pdfrwt>
<pdfrwt beam="2">  1       -2 0.28873167E-01 0.14867127E+04</pdfrwt>
<totfact> 0.35355739E+01</totfact>
</mgrwt>
</event>
<event>
 8    1  0.6876290E-010  0.1688656E+04  0.7818608E-02  0.8767861E-01
         -2   -1    0    0    0  501 -0.00000000000E+00  0.00000000000E+00  0.86472295783E+03  0.86472295784E+03  0.25500000000E-02 0. -1.
          2   -1    0    0  501    0  0.00000000000E+00 -0.00000000000E+00 -0.82441425004E+03  0.82441425005E+03  0.25500000000E-02 0.  1.
     200001    2    1    2    0    0 -0.30139074349E+03 -0.35147148047E+03 -0.24783306528E+02  0.84735008980E+03  0.70923859213E+03 0.  0.
    5000001    2    3    3    0    0 -0.70788163734E+02 -0.12840283422E+03 -0.71829375464E+01  0.25300427824E+03  0.20606144292E+03 0.  0.
        -11    1    4    4    0    0 -0.11901218127E+03 -0.48163052507E+02 -0.59655599219E+02  0.14157107556E+03  0.51100000000E-03 0. -1.
     200002    1    4    4    0    0  0.48224017536E+02 -0.80239781714E+02  0.52472661673E+02  0.11143320268E+03  0.30000000000E+02 0. -1.
     200000    1    3    3    0    0 -0.23060257975E+03 -0.22306864625E+03 -0.17600368982E+02  0.59434581156E+03  0.50000000000E+03 0.  1.
    -200001    1    1    2    0    0  0.30139074349E+03  0.35147148047E+03  0.65092014315E+02  0.84178711808E+03  0.70000000000E+03 0. -1.
<mgrwt>
<rscale>  0 0.16886562E+04</rscale>
<asrwt>0</asrwt>
<pdfrwt beam="1">  1        2 0.11777346E+00 0.16886562E+04</pdfrwt>
<pdfrwt beam="2">  1       -2 0.12353185E+00 0.16886562E+04</pdfrwt>
<totfact> 0.17238971E+01</totfact>
</mgrwt>
</event>
<event>
 8    1  0.6876290E-010  0.1733260E+04  0.7818608E-02  0.8742619E-01
         -2   -1    0    0    0  501 -0.00000000000E+00  0.00000000000E+00  0.23980687351E+03  0.23980687353E+03  0.25500000000E-02 0. -1.
          2   -1    0    0  501    0  0.00000000000E+00 -0.00000000000E+00 -0.31318847185E+04  0.31318847185E+04  0.25500000000E-02 0.  1.
     200001    2    1    2    0    0 -0.26728530360E+03  0.17837571015E+03 -0.67139888829E+03  0.10212290086E+04  0.69919446027E+03 0.  0.
    5000001    2    3    3    0    0 -0.32436136406E+02  0.52595913147E+02 -0.12200331372E+03  0.23204576876E+03  0.18746198872E+03 0.  0.
        -11    1    4    4    0    0 -0.53405057115E+02 -0.49117387004E+02 -0.49692528969E+01  0.72727651592E+02  0.51100000000E-03 0. -1.
     200002    1    4    4    0    0  0.20968920708E+02  0.10171330015E+03 -0.11703406083E+03  0.15931811716E+03  0.30000000000E+02 0. -1.
     200000    1    3    3    0    0 -0.23484916719E+03  0.12577979700E+03 -0.54939557457E+03  0.78918323983E+03  0.50000000000E+03 0. -1.
    -200001    1    1    2    0    0  0.26728530360E+03 -0.17837571015E+03 -0.22206789567E+04  0.23504625834E+04  0.70000000000E+03 0.  1.
<mgrwt>
<rscale>  0 0.17332599E+04</rscale>
<asrwt>0</asrwt>
<pdfrwt beam="1">  1        2 0.44741208E+00 0.17332599E+04</pdfrwt>
<pdfrwt beam="2">  1       -2 0.34258127E-01 0.17332599E+04</pdfrwt>
<totfact> 0.15129339E+01</totfact>
</mgrwt>
</event>
<event>
 8    1  0.6876290E-010  0.1627803E+04  0.7818608E-02  0.8803647E-01
         -2   -1    0    0    0  501 -0.00000000000E+00  0.00000000000E+00  0.50599349126E+03  0.50599349127E+03  0.25500000000E-02 0. -1.
          2   -1    0    0  501    0  0.00000000000E+00 -0.00000000000E+00 -0.13091789630E+04  0.13091789630E+04  0.25500000000E-02 0.  1.
     200001    2    1    2    0    0 -0.34954684208E+03  0.44984081727E+02 -0.18533900933E+03  0.81720411133E+03  0.71362836882E+03 0.  0.
    5000001    2    3    3    0    0  0.25735617674E+02  0.80910226144E+02  0.23917253824E+02  0.15696491519E+03  0.12983513723E+03 0.  0.
        -11    1    4    4    0    0 -0.28169005870E+01 -0.33384873681E+02  0.69875129971E+01  0.34224407339E+02  0.51100000000E-03 0. -1.
     200002    1    4    4    0    0  0.28552518262E+02  0.11429509982E+03  0.16929740827E+02  0.12274050785E+03  0.30000000000E+02 0. -1.
     200000    1    3    3    0    0 -0.37528245976E+03 -0.35926144417E+02 -0.20925626315E+03  0.66023919614E+03  0.50000000000E+03 0. -1.
    -200001    1    1    2    0    0  0.34954684208E+03 -0.44984081727E+02 -0.61784646242E+03  0.99796834296E+03  0.70000000000E+03 0.  1.
<mgrwt>
<rscale>  0 0.16278035E+04</rscale>
<asrwt>0</asrwt>
<pdfrwt beam="1">  1        2 0.18702556E+00 0.16278035E+04</pdfrwt>
<pdfrwt beam="2">  1       -2 0.72284785E-01 0.16278035E+04</pdfrwt>
<totfact> 0.30830740E+01</totfact>
</mgrwt>
</event>
<event>
 8    1  0.6876290E-010  0.1444991E+04  0.7818608E-02  0.8921881E-01
          2   -1    0    0  501    0  0.00000000000E+00  0.00000000000E+00  0.24920542309E+04  0.24920542309E+04  0.25500000000E-02 0.  1.
         -2   -1    0    0    0  501 -0.00000000000E+00 -0.00000000000E+00 -0.20946552431E+03  0.20946552433E+03  0.25500000000E-02 0. -1.
     200001    2    1    2    0    0 -0.16639986471E+03  0.59585534171E+02  0.11040640544E+04  0.13194344805E+04  0.70050735985E+03 0.  0.
    5000001    2    3    3    0    0 -0.46242557691E+02 -0.79177481275E+02  0.23771311943E+03  0.30245026457E+03  0.16297603415E+03 0.  0.
        -11    1    4    4    0    0  0.58000409970E+02 -0.35163549287E+02  0.66068413450E+02  0.94686630583E+02  0.51100000000E-03 0. -1.
     200002    1    4    4    0    0 -0.10424296766E+03 -0.44013931988E+02  0.17164470598E+03  0.20776363398E+03  0.30000000000E+02 0. -1.
     200000    1    3    3    0    0 -0.12015730702E+03  0.13876301545E+03  0.86635093500E+03  0.10169842159E+04  0.50000000000E+03 0.  1.
    -200001    1    1    2    0    0  0.16639986471E+03 -0.59585534171E+02  0.11785246522E+04  0.13820852747E+04  0.70000000000E+03 0. -1.
<mgrwt>
<rscale>  0 0.14449906E+04</rscale>
<asrwt>0</asrwt>
<pdfrwt beam="1">  1        2 0.35600777E+00 0.14449906E+04</pdfrwt>
<pdfrwt beam="2">  1       -2 0.29923645E-01 0.14449906E+04</pdfrwt>
<totfact> 0.44626167E+01</totfact>
</mgrwt>
</event>
<event>
 8    1  0.6876290E-010  0.1753407E+04  0.7818608E-02  0.8731477E-01
         -2   -1    0    0    0  501 -0.00000000000E+00  0.00000000000E+00  0.48751941365E+03  0.48751941366E+03  0.25500000000E-02 0. -1.
          2   -1    0    0  501    0  0.00000000000E+00 -0.00000000000E+00 -0.15765710055E+04  0.15765710055E+04  0.25500000000E-02 0.  1.
     200001    2    1    2    0    0  0.23935428204E+03  0.15849108868E+02  0.87929956296E+01  0.74015522254E+03  0.70015053389E+03 0.  0.
    5000001    2    3    3    0    0  0.95958370619E+02 -0.30790236396E+02 -0.70715658075E+02  0.21189464106E+03  0.17246039274E+03 0.  0.
        -11    1    4    4    0    0  0.34700411409E+02  0.67981130591E+02 -0.87963907139E+01  0.76830522308E+02  0.51100000000E-03 0. -1.
     200002    1    4    4    0    0  0.61257959210E+02 -0.98771366987E+02 -0.61919267361E+02  0.13506411875E+03  0.30000000000E+02 0. -1.
     200000    1    3    3    0    0  0.14339591142E+03  0.46639345264E+02  0.79508653704E+02  0.52826058149E+03  0.50000000000E+03 0. -1.
    -200001    1    1    2    0    0 -0.23935428204E+03 -0.15849108868E+02 -0.10978445875E+04  0.13239351966E+04  0.70000000000E+03 0.  1.
<mgrwt>
<rscale>  0 0.17534069E+04</rscale>
<asrwt>0</asrwt>
<pdfrwt beam="1">  1        2 0.22522443E+00 0.17534069E+04</pdfrwt>
<pdfrwt beam="2">  1       -2 0.69645631E-01 0.17534069E+04</pdfrwt>
<totfact> 0.23777845E+01</totfact>
</mgrwt>
</event>
<event>
 8    1  0.6876290E-010  0.2135628E+04  0.7818608E-02  0.8545709E-01
          2   -1    0    0  501    0  0.00000000000E+00  0.00000000000E+00  0.11890579065E+04  0.11890579066E+04  0.25500000000E-02 0.  1.
         -2   -1    0    0    0  501 -0.00000000000E+00 -0.00000000000E+00 -0.95893320770E+03  0.95893320771E+03  0.25500000000E-02 0. -1.
     200001    2    1    2    0    0 -0.56091024117E+03 -0.90033940454E+02  0.69073194227E+03  0.11356248555E+04  0.69986197737E+03 0.  0.
    5000001    2    3    3    0    0 -0.63122072225E+00 -0.99932081902E+02  0.64207445962E+02  0.15759443759E+03  0.10356925804E+03 0.  0.
        -11    1    4    4    0    0  0.38597454494E+02 -0.93069059706E+01  0.26401351201E+02  0.47680324429E+02  0.51100000000E-03 0. -1.
     200002    1    4    4    0    0 -0.39228675216E+02 -0.90625175932E+02  0.37806094761E+02  0.10991411317E+03  0.30000000000E+02 0. -1.
     200000    1    3    3    0    0 -0.56027902045E+03  0.98981414485E+01  0.62652449631E+03  0.97803041795E+03  0.50000000000E+03 0.  1.
    -200001    1    1    2    0    0  0.56091024117E+03  0.90033940454E+02 -0.46060724342E+03  0.10123662587E+04  0.70000000000E+03 0. -1.
<mgrwt>
<rscale>  0 0.21356284E+04</rscale>
<asrwt>0</asrwt>
<pdfrwt beam="1">  1        2 0.16986541E+00 0.21356284E+04</pdfrwt>
<pdfrwt beam="2">  1       -2 0.13699046E+00 0.21356284E+04</pdfrwt>
<totfact> 0.76048631E+00</totfact>
</mgrwt>
</event>
<event>
 8    1  0.6876290E-010  0.1427342E+04  0.7818608E-02  0.8934261E-01
          2   -1    0    0  501    0  0.00000000000E+00  0.00000000000E+00  0.23615554004E+04  0.23615554004E+04  0.25500000000E-02 0.  1.
         -2   -1    0    0    0  501 -0.00000000000E+00 -0.00000000000E+00 -0.21567410266E+03  0.21567410267E+03  0.25500000000E-02 0. -1.
     200001    2    1    2    0    0  0.65482291125E+02  0.10182858333E+03  0.11956535810E+04  0.13908106459E+04  0.70007840730E+03 0.  0.
    5000001    2    3    3    0    0  0.97133005777E+02  0.35660857898E+02  0.29326481377E+03  0.35655467048E+03  0.17441463370E+03 0.  0.
        -11    1    4    4    0    0  0.48834124714E+02  0.22020068533E+02 -0.38820509001E+01  0.53709640422E+02  0.51100000000E-03 0. -1.
     200002    1    4    4    0    0  0.48298881063E+02  0.13640789365E+02  0.29714686467E+03  0.30284503006E+03  0.30000000000E+02 0. -1.
     200000    1    3    3    0    0 -0.31650714652E+02  0.66167725427E+02  0.90238876718E+03  0.10342559755E+04  0.50000000000E+03 0.  1.
    -200001    1    1    2    0    0 -0.65482291125E+02 -0.10182858333E+03  0.95022771681E+03  0.11864188572E+04  0.70000000000E+03 0. -1.
<mgrwt>
<rscale>  0 0.14273421E+04</rscale>
<asrwt>0</asrwt>
<pdfrwt beam="1">  1        2 0.33736506E+00 0.14273421E+04</pdfrwt>
<pdfrwt beam="2">  1       -2 0.30810586E-01 0.14273421E+04</pdfrwt>
<totfact> 0.49505780E+01</totfact>
</mgrwt>
</event>
<event>
 8    1  0.6876290E-010  0.1499044E+04  0.7818608E-02  0.8885089E-01
         -2   -1    0    0    0  501 -0.00000000000E+00  0.00000000000E+00  0.10305137279E+04  0.10305137279E+04  0.25500000000E-02 0. -1.
          2   -1    0    0  501    0  0.00000000000E+00 -0.00000000000E+00 -0.54514897941E+03  0.54514897942E+03  0.25500000000E-02 0.  1.
     200001    2    1    2    0    0 -0.95608475491E+02 -0.18986862989E+03  0.41289170311E+03  0.84051413764E+03  0.70056647070E+03 0.  0.
    5000001    2    3    3    0    0  0.23918363978E+02 -0.15703659196E+03  0.23111265873E+02  0.19453163221E+03  0.10989015411E+03 0.  0.
        -11    1    4    4    0    0 -0.61563681259E+01  0.12903313827E+02 -0.83552069706E+01  0.16559162418E+02  0.51100000000E-03 0. -1.
     200002    1    4    4    0    0  0.30074732103E+02 -0.16993990579E+03  0.31466472844E+02  0.17797246979E+03  0.30000000000E+02 0. -1.
     200000    1    3    3    0    0 -0.11952683947E+03 -0.32832037928E+02  0.38978043724E+03  0.64598250543E+03  0.50000000000E+03 0. -1.
    -200001    1    1    2    0    0  0.95608475491E+02  0.18986862989E+03  0.72473045374E+02  0.73514856968E+03  0.70000000000E+03 0.  1.
<mgrwt>
<rscale>  0 0.14990444E+04</rscale>
<asrwt>0</asrwt>
<pdfrwt beam="1">  1        2 0.77878425E-01 0.14990444E+04</pdfrwt>
<pdfrwt beam="2">  1       -2 0.14721625E+00 0.14990444E+04</pdfrwt>
<totfact> 0.18505253E+01</totfact>
</mgrwt>
</event>
<event>
 8    1  0.6876290E-010  0.1711136E+04  0.7818608E-02  0.8755038E-01
          2   -1    0    0  501    0  0.00000000000E+00  0.00000000000E+00  0.54466318083E+03  0.54466318084E+03  0.25500000000E-02 0.  1.
         -2   -1    0    0    0  501 -0.00000000000E+00 -0.00000000000E+00 -0.13439435271E+04  0.13439435271E+04  0.25500000000E-02 0. -1.
     200001    2    1    2    0    0  0.80077779454E+01  0.30162607186E+02 -0.93704521614E+03  0.11744967257E+04  0.70740010895E+03 0.  0.
    5000001    2    3    3    0    0 -0.82123349793E+02  0.70421347716E+02 -0.22443309343E+03  0.29839146726E+03  0.16420670971E+03 0.  0.
        -11    1    4    4    0    0 -0.40070893734E+00 -0.39012334862E+02 -0.66468737594E+01  0.39576555814E+02  0.51100000000E-03 0. -1.
     200002    1    4    4    0    0 -0.81722640856E+02  0.10943368258E+03 -0.21778621967E+03  0.25881491145E+03  0.30000000000E+02 0. -1.
     200000    1    3    3    0    0  0.90131127738E+02 -0.40258740531E+02 -0.71261212271E+03  0.87610525841E+03  0.50000000000E+03 0. -1.
    -200001    1    1    2    0    0 -0.80077779454E+01 -0.30162607186E+02  0.13776486989E+03  0.71410998225E+03  0.70000000000E+03 0.  1.
<mgrwt>
<rscale>  0 0.17111359E+04</rscale>
<asrwt>0</asrwt>
<pdfrwt beam="1">  1        2 0.77809027E-01 0.17111359E+04</pdfrwt>
<pdfrwt beam="2">  1       -2 0.19199193E+00 0.17111359E+04</pdfrwt>
<totfact> 0.87050978E+00</totfact>
</mgrwt>
</event>
<event>
 8    1  0.6876290E-010  0.2556123E+04  0.7818608E-02  0.8383260E-01
         -2   -1    0    0    0  501 -0.00000000000E+00  0.00000000000E+00  0.70416938042E+03  0.70416938043E+03  0.25500000000E-02 0. -1.
          2   -1    0    0  501    0  0.00000000000E+00 -0.00000000000E+00 -0.23196702433E+04  0.23196702433E+04  0.25500000000E-02 0.  1.
     200001    2    1    2    0    0 -0.94514790298E+03  0.35543860290E+03 -0.12239873035E+04  0.17342955081E+04  0.69999630806E+03 0.  0.
    5000001    2    3    3    0    0 -0.33385425043E+03  0.10066698010E+03 -0.39963796761E+03  0.56462019544E+03  0.19363098546E+03 0.  0.
        -11    1    4    4    0    0 -0.21001203001E+03  0.51114467396E+01 -0.32908552065E+03  0.39042087487E+03  0.51100000000E-03 0. -1.
     200002    1    4    4    0    0 -0.12384222042E+03  0.95555533356E+02 -0.70552446961E+02  0.17419932056E+03  0.30000000000E+02 0. -1.
     200000    1    3    3    0    0 -0.61129365255E+03  0.25477162281E+03 -0.82434933591E+03  0.11696753127E+04  0.50000000000E+03 0.  1.
    -200001    1    1    2    0    0  0.94514790298E+03 -0.35543860290E+03 -0.39151355933E+03  0.12895441156E+04  0.70000000000E+03 0. -1.
<mgrwt>
<rscale>  0 0.25561227E+04</rscale>
<asrwt>0</asrwt>
<pdfrwt beam="1">  1        2 0.33138146E+00 0.25561227E+04</pdfrwt>
<pdfrwt beam="2">  1       -2 0.10059563E+00 0.25561227E+04</pdfrwt>
<totfact> 0.39863102E+00</totfact>
</mgrwt>
</event>
<event>
 8    1  0.6876290E-010  0.1681681E+04  0.7818608E-02  0.8771882E-01
         -2   -1    0    0    0  501 -0.00000000000E+00  0.00000000000E+00  0.15497381531E+04  0.15497381531E+04  0.25500000000E-02 0. -1.
          2   -1    0    0  501    0  0.00000000000E+00 -0.00000000000E+00 -0.45621449825E+03  0.45621449826E+03  0.25500000000E-02 0.  1.
     200001    2    1    2    0    0 -0.85460863649E+02 -0.33293650937E+03  0.92172550906E+03  0.12074134342E+04  0.70008500092E+03 0.  0.
    5000001    2    3    3    0    0 -0.45734461195E+02 -0.16376575311E+02  0.25311610675E+03  0.31364226003E+03  0.17872848295E+03 0.  0.
        -11    1    4    4    0    0  0.80821774047E+01  0.67743548656E+02  0.15963470198E+03  0.17360226972E+03  0.51100000000E-03 0. -1.
     200002    1    4    4    0    0 -0.53816638599E+02 -0.84120123967E+02  0.93481404772E+02  0.14003999030E+03  0.30000000000E+02 0. -1.
     200000    1    3    3    0    0 -0.39726402454E+02 -0.31655993406E+03  0.66860940230E+03  0.89377117416E+03  0.50000000000E+03 0.  1.
    -200001    1    1    2    0    0  0.85460863649E+02  0.33293650937E+03  0.17179814580E+03  0.79853921719E+03  0.70000000000E+03 0.  1.
<mgrwt>
<rscale>  0 0.16816813E+04</rscale>
<asrwt>0</asrwt>
<pdfrwt beam="1">  1        2 0.65173499E-01 0.16816813E+04</pdfrwt>
<pdfrwt beam="2">  1       -2 0.22139117E+00 0.16816813E+04</pdfrwt>
<totfact> 0.68932535E+00</totfact>
</mgrwt>
</event>
<event>
 8    1  0.6876290E-010  0.1664381E+04  0.7818608E-02  0.8781944E-01
          2   -1    0    0  501    0  0.00000000000E+00  0.00000000000E+00  0.11322831550E+04  0.11322831550E+04  0.25500000000E-02 0.  1.
         -2   -1    0    0    0  501 -0.00000000000E+00 -0.00000000000E+00 -0.61163220447E+03  0.61163220447E+03  0.25500000000E-02 0. -1.
     200001    2    1    2    0    0 -0.38897972364E+03  0.15692422535E+03  0.42793331596E+03  0.92261943372E+03  0.70154775936E+03 0.  0.
    5000001    2    3    3    0    0 -0.50860876729E+02  0.62167784162E+01  0.88259040164E+02  0.21380655091E+03  0.18787790164E+03 0.  0.
        -11    1    4    4    0    0 -0.90949642619E+02 -0.42585231137E+02  0.10134274797E+03  0.14267337513E+03  0.51100000000E-03 0. -1.
     200002    1    4    4    0    0  0.40088765891E+02  0.48802009553E+02 -0.13083707806E+02  0.71133175783E+02  0.30000000000E+02 0. -1.
     200000    1    3    3    0    0 -0.33811884691E+03  0.15070744694E+03  0.33967427580E+03  0.70881288281E+03  0.50000000000E+03 0.  1.
    -200001    1    1    2    0    0  0.38897972364E+03 -0.15692422535E+03  0.92717634577E+02  0.82129592576E+03  0.70000000000E+03 0. -1.
<mgrwt>
<rscale>  0 0.16643808E+04</rscale>
<asrwt>0</asrwt>
<pdfrwt beam="1">  1        2 0.16175473E+00 0.16643808E+04</pdfrwt>
<pdfrwt beam="2">  1       -2 0.87376030E-01 0.16643808E+04</pdfrwt>
<totfact> 0.25313137E+01</totfact>
</mgrwt>
</event>
<event>
 8    1  0.6876290E-010  0.1943962E+04  0.7818608E-02  0.8633278E-01
          2   -1    0    0  501    0  0.00000000000E+00  0.00000000000E+00  0.23893471494E+04  0.23893471494E+04  0.25500000000E-02 0.  1.
         -2   -1    0    0    0  501 -0.00000000000E+00 -0.00000000000E+00 -0.39539985518E+03  0.39539985519E+03  0.25500000000E-02 0. -1.
     200001    2    1    2    0    0 -0.20887245931E+03  0.62342660761E+03  0.12033089977E+04  0.15408027312E+04  0.70273186444E+03 0.  0.
    5000001    2    3    3    0    0 -0.30779838481E+02  0.18188589254E+03  0.44700839559E+03  0.51675889164E+03  0.18219047725E+03 0.  0.
        -11    1    4    4    0    0 -0.79566661912E+02  0.49372617981E+02  0.82850688840E+02  0.12503097910E+03  0.51100000000E-03 0. -1.
     200002    1    4    4    0    0  0.48786823430E+02  0.13251327456E+03  0.36415770675E+03  0.39172791254E+03  0.30000000000E+02 0. -1.
     200000    1    3    3    0    0 -0.17809262083E+03  0.44154071506E+03  0.75630060211E+03  0.10240438396E+04  0.50000000000E+03 0.  1.
    -200001    1    1    2    0    0  0.20887245931E+03 -0.62342660761E+03  0.79063829657E+03  0.12439442734E+04  0.70000000000E+03 0. -1.
<mgrwt>
<rscale>  0 0.19439625E+04</rscale>
<asrwt>0</asrwt>
<pdfrwt beam="1">  1        2 0.34133530E+00 0.19439625E+04</pdfrwt>
<pdfrwt beam="2">  1       -2 0.56485695E-01 0.19439625E+04</pdfrwt>
<totfact> 0.13880896E+01</totfact>
</mgrwt>
</event>
<event>
 8    1  0.6876290E-010  0.1712982E+04  0.7818608E-02  0.8753995E-01
         -2   -1    0    0    0  501 -0.00000000000E+00  0.00000000000E+00  0.95059776765E+03  0.95059776765E+03  0.25500000000E-02 0. -1.
          2   -1    0    0  501    0  0.00000000000E+00 -0.00000000000E+00 -0.77170011354E+03  0.77170011355E+03  0.25500000000E-02 0.  1.
     200001    2    1    2    0    0  0.97100728861E+02  0.41480327775E+03  0.34221053757E+03  0.88673734558E+03  0.69835861651E+03 0.  0.
    5000001    2    3    3    0    0  0.71865924015E+02  0.14635309435E+03  0.14382368758E+03  0.28502342802E+03  0.18430724932E+03 0.  0.
        -11    1    4    4    0    0 -0.60622026326E+02  0.47474730591E+02  0.33160584531E+02  0.83836176482E+02  0.51100000000E-03 0. -1.
     200002    1    4    4    0    0  0.13248795034E+03  0.98878363756E+02  0.11066310305E+03  0.20118725154E+03  0.30000000000E+02 0. -1.
     200000    1    3    3    0    0  0.25234804846E+02  0.26845018340E+03  0.19838684999E+03  0.60171391757E+03  0.50000000000E+03 0. -1.
    -200001    1    1    2    0    0 -0.97100728861E+02 -0.41480327775E+03 -0.16331288346E+03  0.83556053562E+03  0.70000000000E+03 0.  1.
<mgrwt>
<rscale>  0 0.17129815E+04</rscale>
<asrwt>0</asrwt>
<pdfrwt beam="1">  1        2 0.11024287E+00 0.17129815E+04</pdfrwt>
<pdfrwt beam="2">  1       -2 0.13579968E+00 0.17129815E+04</pdfrwt>
<totfact> 0.14743726E+01</totfact>
</mgrwt>
</event>
<event>
 8    1  0.6876290E-010  0.1753281E+04  0.7818608E-02  0.8731546E-01
         -2   -1    0    0    0  501 -0.00000000000E+00  0.00000000000E+00  0.89067165333E+03  0.89067165333E+03  0.25500000000E-02 0. -1.
          2   -1    0    0  501    0  0.00000000000E+00 -0.00000000000E+00 -0.86283080218E+03  0.86283080218E+03  0.25500000000E-02 0.  1.
     200001    2    1    2    0    0 -0.30784667974E+03 -0.25978672654E+03 -0.32173633702E+03  0.87346669942E+03  0.70510359730E+03 0.  0.
    5000001    2    3    3    0    0 -0.95910006229E+02 -0.66058744237E+02 -0.12133723151E+03  0.26305086887E+03  0.20226356290E+03 0.  0.
        -11    1    4    4    0    0 -0.12965237109E+03 -0.10868391948E+03 -0.10397530513E+03  0.19857692655E+03  0.51100000000E-03 0. -1.
     200002    1    4    4    0    0  0.33742364857E+02  0.42625175239E+02 -0.17361926382E+02  0.64473942317E+02  0.30000000000E+02 0. -1.
     200000    1    3    3    0    0 -0.21193667351E+03 -0.19372798230E+03 -0.20039910551E+03  0.61041583056E+03  0.50000000000E+03 0.  1.
    -200001    1    1    2    0    0  0.30784667974E+03  0.25978672654E+03  0.34957718816E+03  0.88003575609E+03  0.70000000000E+03 0. -1.
<mgrwt>
<rscale>  0 0.17532814E+04</rscale>
<asrwt>0</asrwt>
<pdfrwt beam="1">  1        2 0.12326154E+00 0.17532814E+04</pdfrwt>
<pdfrwt beam="2">  1       -2 0.12723881E+00 0.17532814E+04</pdfrwt>
<totfact> 0.14996568E+01</totfact>
</mgrwt>
</event>
<event>
 8    1  0.6876290E-010  0.1414703E+04  0.7818608E-02  0.8943244E-01
          2   -1    0    0  501    0  0.00000000000E+00  0.00000000000E+00  0.97811979066E+03  0.97811979067E+03  0.25500000000E-02 0. -1.
         -2   -1    0    0    0  501 -0.00000000000E+00 -0.00000000000E+00 -0.51153867952E+03  0.51153867952E+03  0.25500000000E-02 0.  1.
     200001    2    1    2    0    0 -0.87756918432E+02  0.51725627156E+02  0.22629484665E+03  0.74258798747E+03  0.69989338065E+03 0.  0.
    5000001    2    3    3    0    0 -0.71391466143E+02 -0.82949437975E+02  0.25149162372E+02  0.18683193713E+03  0.14931959571E+03 0.  0.
        -11    1    4    4    0    0  0.64621948713E+01 -0.97091390678E+01 -0.50928464486E+02  0.52246873965E+02  0.51100000000E-03 0. -1.
     200002    1    4    4    0    0 -0.77853661014E+02 -0.73240298907E+02  0.76077626858E+02  0.13458506316E+03  0.30000000000E+02 0. -1.
     200000    1    3    3    0    0 -0.16365452288E+02  0.13467506513E+03  0.20114568427E+03  0.55575605035E+03  0.50000000000E+03 0. -1.
    -200001    1    1    2    0    0  0.87756918432E+02 -0.51725627156E+02  0.24028626450E+03  0.74707048272E+03  0.70000000000E+03 0.  1.
<mgrwt>
<rscale>  0 0.14147029E+04</rscale>
<asrwt>0</asrwt>
<pdfrwt beam="1">  1        2 0.13973140E+00 0.14147029E+04</pdfrwt>
<pdfrwt beam="2">  1       -2 0.73076956E-01 0.14147029E+04</pdfrwt>
<totfact> 0.47736746E+01</totfact>
</mgrwt>
</event>
<event>
 8    1  0.6876290E-010  0.2973757E+04  0.7818608E-02  0.8251265E-01
         -2   -1    0    0    0  501 -0.00000000000E+00  0.00000000000E+00  0.15520088461E+04  0.15520088461E+04  0.25500000000E-02 0. -1.
          2   -1    0    0  501    0  0.00000000000E+00 -0.00000000000E+00 -0.14244814413E+04  0.14244814413E+04  0.25500000000E-02 0.  1.
     200001    2    1    2    0    0 -0.10343732299E+03  0.11460591787E+04 -0.56772223434E+03  0.14607320674E+04  0.69805351976E+03 0.  0.
    5000001    2    3    3    0    0  0.52065282297E+01  0.18006673338E+03 -0.13919260211E+03  0.28660152246E+03  0.17411121672E+03 0.  0.
        -11    1    4    4    0    0  0.60962067132E+02  0.16027979666E+03 -0.13823434555E+03  0.22026057554E+03  0.51100000000E-03 0. -1.
     200002    1    4    4    0    0 -0.55755538902E+02  0.19786936715E+02 -0.95825656147E+00  0.66340946922E+02  0.30000000000E+02 0. -1.
     200000    1    3    3    0    0 -0.10864385122E+03  0.96599244531E+03 -0.42852963223E+03  0.11741305449E+04  0.50000000000E+03 0.  1.
    -200001    1    1    2    0    0  0.10343732299E+03 -0.11460591787E+04  0.69524963921E+03  0.15157582201E+04  0.70000000000E+03 0. -1.
<mgrwt>
<rscale>  0 0.29737571E+04</rscale>
<asrwt>0</asrwt>
<pdfrwt beam="1">  1        2 0.20349735E+00 0.29737571E+04</pdfrwt>
<pdfrwt beam="2">  1       -2 0.22171555E+00 0.29737571E+04</pdfrwt>
<totfact> 0.13369365E+00</totfact>
</mgrwt>
</event>
<event>
 8    1  0.6876290E-010  0.1530232E+04  0.7818608E-02  0.8864594E-01
          2   -1    0    0  501    0  0.00000000000E+00  0.00000000000E+00  0.17501229638E+04  0.17501229638E+04  0.25500000000E-02 0.  1.
         -2   -1    0    0    0  501 -0.00000000000E+00 -0.00000000000E+00 -0.33449213105E+03  0.33449213106E+03  0.25500000000E-02 0. -1.
     200001    2    1    2    0    0 -0.30106295950E+03 -0.13064080879E+02  0.61292617952E+03  0.97775271131E+03  0.69965154694E+03 0.  0.
    5000001    2    3    3    0    0 -0.21370877658E+02  0.78502182913E+02  0.12112262147E+03  0.21717215606E+03  0.16085319021E+03 0.  0.
        -11    1    4    4    0    0 -0.83115303135E-01  0.11436181154E+03  0.12003004075E+03  0.16578854463E+03  0.51100000000E-03 0. -1.
     200002    1    4    4    0    0 -0.21287762355E+02 -0.35859628625E+02  0.10925807173E+01  0.51383611432E+02  0.30000000000E+02 0. -1.
     200000    1    3    3    0    0 -0.27969208185E+03 -0.91566263791E+02  0.49180355805E+03  0.76058055525E+03  0.50000000000E+03 0. -1.
    -200001    1    1    2    0    0  0.30106295950E+03  0.13064080879E+02  0.80270465323E+03  0.11068623835E+04  0.70000000000E+03 0.  1.
<mgrwt>
<rscale>  0 0.15302318E+04</rscale>
<asrwt>0</asrwt>
<pdfrwt beam="1">  1        2 0.25001757E+00 0.15302318E+04</pdfrwt>
<pdfrwt beam="2">  1       -2 0.47784590E-01 0.15302318E+04</pdfrwt>
<totfact> 0.43271688E+01</totfact>
</mgrwt>
</event>
<event>
 8    1  0.6876290E-010  0.1852721E+04  0.7818608E-02  0.8678755E-01
         -2   -1    0    0    0  501 -0.00000000000E+00  0.00000000000E+00  0.54449900929E+03  0.54449900929E+03  0.25500000000E-02 0. -1.
          2   -1    0    0  501    0  0.00000000000E+00 -0.00000000000E+00 -0.15760245368E+04  0.15760245368E+04  0.25500000000E-02 0.  1.
     200001    2    1    2    0    0  0.48192817423E+03 -0.32852007177E+03 -0.70757290533E+03  0.11535046713E+04  0.69980955109E+03 0.  0.
    5000001    2    3    3    0    0  0.19433140145E+02 -0.25507065752E+02 -0.11463721487E+03  0.20098628759E+03  0.16194301290E+03 0.  0.
        -11    1    4    4    0    0  0.92475154660E+01  0.19680995119E+02 -0.13897802544E+03  0.14066893640E+03  0.51100000000E-03 0. -1.
     200002    1    4    4    0    0  0.10185624679E+02 -0.45188060871E+02  0.24340810576E+02  0.60317351192E+02  0.30000000000E+02 0. -1.
     200000    1    3    3    0    0  0.46249503409E+03 -0.30301300601E+03 -0.59293569046E+03  0.95251838376E+03  0.50000000000E+03 0. -1.
    -200001    1    1    2    0    0 -0.48192817423E+03  0.32852007177E+03 -0.32395262216E+03  0.96701887473E+03  0.70000000000E+03 0.  1.
<mgrwt>
<rscale>  0 0.18527210E+04</rscale>
<asrwt>0</asrwt>
<pdfrwt beam="1">  1        2 0.22514636E+00 0.18527210E+04</pdfrwt>
<pdfrwt beam="2">  1       -2 0.77785574E-01 0.18527210E+04</pdfrwt>
<totfact> 0.18498811E+01</totfact>
</mgrwt>
</event>
<event>
 8    1  0.6876290E-010  0.1552458E+04  0.7818608E-02  0.8850299E-01
          2   -1    0    0  501    0  0.00000000000E+00  0.00000000000E+00  0.12328814279E+04  0.12328814279E+04  0.25500000000E-02 0.  1.
         -2   -1    0    0    0  501 -0.00000000000E+00 -0.00000000000E+00 -0.48871796987E+03  0.48871796988E+03  0.25500000000E-02 0. -1.
     200001    2    1    2    0    0  0.39643675063E+02  0.32608815925E+03  0.45210232887E+03  0.89503735428E+03  0.69913535257E+03 0.  0.
    5000001    2    3    3    0    0 -0.25972865321E+02  0.58746967394E+02  0.55671492733E+02  0.20010264435E+03  0.18115175202E+03 0.  0.
        -11    1    4    4    0    0  0.36126536371E+02 -0.47186391413E+02  0.42399732767E+02  0.73002873257E+02  0.51100000000E-03 0. -1.
     200002    1    4    4    0    0 -0.62099401692E+02  0.10593335881E+03  0.13271759966E+02  0.12709977109E+03  0.30000000000E+02 0. -1.
     200000    1    3    3    0    0  0.65616540384E+02  0.26734119185E+03  0.39643083614E+03  0.69493470993E+03  0.50000000000E+03 0.  1.
    -200001    1    1    2    0    0 -0.39643675063E+02 -0.32608815925E+03  0.29206112915E+03  0.82656204349E+03  0.70000000000E+03 0.  1.
<mgrwt>
<rscale>  0 0.15524578E+04</rscale>
<asrwt>0</asrwt>
<pdfrwt beam="1">  1        2 0.17612592E+00 0.15524578E+04</pdfrwt>
<pdfrwt beam="2">  1       -2 0.69816853E-01 0.15524578E+04</pdfrwt>
<totfact> 0.36907753E+01</totfact>
</mgrwt>
</event>
<event>
 8    1  0.6876290E-010  0.1464641E+04  0.7818608E-02  0.8908313E-01
          2   -1    0    0  501    0  0.00000000000E+00  0.00000000000E+00  0.14430501981E+04  0.14430501981E+04  0.25500000000E-02 0. -1.
         -2   -1    0    0    0  501 -0.00000000000E+00 -0.00000000000E+00 -0.37163876003E+03  0.37163876004E+03  0.25500000000E-02 0.  1.
     200001    2    1    2    0    0  0.17753454547E+03 -0.12159768627E+03  0.52364521989E+03  0.90016594482E+03  0.69984991231E+03 0.  0.
    5000001    2    3    3    0    0  0.10108779386E+03 -0.33130402853E+02  0.17677060361E+03  0.28049460815E+03  0.19003424229E+03 0.  0.
        -11    1    4    4    0    0  0.31462257848E+02  0.59841813253E+02  0.13925700341E+03  0.15480125736E+03  0.51100000000E-03 0. -1.
     200002    1    4    4    0    0  0.69625536008E+02 -0.92972216106E+02  0.37513600200E+02  0.12569335079E+03  0.30000000000E+02 0. -1.
     200000    1    3    3    0    0  0.76446751612E+02 -0.88467283420E+02  0.34687461628E+03  0.61967133667E+03  0.50000000000E+03 0. -1.
    -200001    1    1    2    0    0 -0.17753454547E+03  0.12159768627E+03  0.54776621821E+03  0.91452301335E+03  0.70000000000E+03 0.  1.
<mgrwt>
<rscale>  0 0.14646411E+04</rscale>
<asrwt>0</asrwt>
<pdfrwt beam="1">  1        2 0.20615003E+00 0.14646411E+04</pdfrwt>
<pdfrwt beam="2">  1       -2 0.53091250E-01 0.14646411E+04</pdfrwt>
<totfact> 0.50882222E+01</totfact>
</mgrwt>
</event>
<event>
 8    1  0.6876290E-010  0.1793534E+04  0.7818608E-02  0.8709745E-01
         -2   -1    0    0    0  501 -0.00000000000E+00  0.00000000000E+00  0.18783408951E+04  0.18783408951E+04  0.25500000000E-02 0. -1.
          2   -1    0    0  501    0  0.00000000000E+00 -0.00000000000E+00 -0.42813913481E+03  0.42813913482E+03  0.25500000000E-02 0.  1.
     200001    2    1    2    0    0 -0.24571868406E+03  0.70515515201E+02  0.13666381446E+04  0.15565913799E+04  0.69994770946E+03 0.  0.
    5000001    2    3    3    0    0 -0.29043690161E+02 -0.10242176964E+02  0.35171831411E+03  0.40180476747E+03  0.19181465156E+03 0.  0.
        -11    1    4    4    0    0 -0.75145745463E+02  0.46191250185E+02  0.28568283375E+03  0.29899029441E+03  0.51100000000E-03 0. -1.
     200002    1    4    4    0    0  0.46102055302E+02 -0.56433427149E+02  0.66035480363E+02  0.10281447306E+03  0.30000000000E+02 0. -1.
     200000    1    3    3    0    0 -0.21667499390E+03  0.80757692165E+02  0.10149198305E+04  0.11547866124E+04  0.50000000000E+03 0. -1.
    -200001    1    1    2    0    0  0.24571868406E+03 -0.70515515201E+02  0.83563615658E+02  0.74988865003E+03  0.70000000000E+03 0.  1.
<mgrwt>
<rscale>  0 0.17935342E+04</rscale>
<asrwt>0</asrwt>
<pdfrwt beam="1">  1        2 0.61162734E-01 0.17935342E+04</pdfrwt>
<pdfrwt beam="2">  1       -2 0.26833441E+00 0.17935342E+04</pdfrwt>
<totfact> 0.37667697E+00</totfact>
</mgrwt>
</event>
<event>
 8    1  0.6876290E-010  0.1707350E+04  0.7818608E-02  0.8757184E-01
          2   -1    0    0  501    0  0.00000000000E+00  0.00000000000E+00  0.24130966983E+04  0.24130966983E+04  0.25500000000E-02 0.  1.
         -2   -1    0    0    0  501 -0.00000000000E+00 -0.00000000000E+00 -0.30200228443E+03  0.30200228445E+03  0.25500000000E-02 0. -1.
     200001    2    1    2    0    0  0.32209643773E+03  0.21134502594E+03  0.57567601345E+03  0.98422564842E+03  0.69920270261E+03 0.  0.
    5000001    2    3    3    0    0 -0.45451891096E+02  0.82855671580E+02  0.38111384829E+02  0.15321601059E+03  0.11441910475E+03 0.  0.
        -11    1    4    4    0    0  0.29883400638E+02  0.50516341415E+02  0.28926676929E+02  0.65434478848E+02  0.51100000000E-03 0. -1.
     200002    1    4    4    0    0 -0.75335291733E+02  0.32339330165E+02  0.91847079006E+01  0.87781531744E+02  0.30000000000E+02 0. -1.
     200000    1    3    3    0    0  0.36754832883E+03  0.12848935436E+03  0.53756462862E+03  0.83100963782E+03  0.50000000000E+03 0. -1.
    -200001    1    1    2    0    0 -0.32209643773E+03 -0.21134502594E+03  0.15354184005E+04  0.17308733344E+04  0.70000000000E+03 0. -1.
<mgrwt>
<rscale>  0 0.17073497E+04</rscale>
<asrwt>0</asrwt>
<pdfrwt beam="1">  1        2 0.34472809E+00 0.17073497E+04</pdfrwt>
<pdfrwt beam="2">  1       -2 0.43143185E-01 0.17073497E+04</pdfrwt>
<totfact> 0.23794797E+01</totfact>
</mgrwt>
</event>
<event>
 8    1  0.6876290E-010  0.1932701E+04  0.7818608E-02  0.8638748E-01
          2   -1    0    0  501    0  0.00000000000E+00  0.00000000000E+00  0.61195852686E+03  0.61195852686E+03  0.25500000000E-02 0. -1.
         -2   -1    0    0    0  501 -0.00000000000E+00 -0.00000000000E+00 -0.15259752991E+04  0.15259752991E+04  0.25500000000E-02 0.  1.
     200001    2    1    2    0    0  0.47146852006E+02 -0.65858077555E+03 -0.35707267854E+03  0.10261163108E+04  0.69961583882E+03 0.  0.
    5000001    2    3    3    0    0  0.25183645341E+02 -0.15756709894E+03 -0.74201842746E+02  0.26354631640E+03  0.19618649484E+03 0.  0.
        -11    1    4    4    0    0 -0.47194004113E+02 -0.69779389797E+02  0.45460574736E+02  0.95724088506E+02  0.51100000000E-03 0. -1.
     200002    1    4    4    0    0  0.72377649454E+02 -0.87787709146E+02 -0.11966241748E+03  0.16782222789E+03  0.30000000000E+02 0. -1.
     200000    1    3    3    0    0  0.21963206665E+02 -0.50101367661E+03 -0.28287083580E+03  0.76256999439E+03  0.50000000000E+03 0. -1.
    -200001    1    1    2    0    0 -0.47146852006E+02  0.65858077555E+03 -0.55694409373E+03  0.11118175152E+04  0.70000000000E+03 0.  1.
<mgrwt>
<rscale>  0 0.19327013E+04</rscale>
<asrwt>0</asrwt>
<pdfrwt beam="1">  1        2 0.87422647E-01 0.19327013E+04</pdfrwt>
<pdfrwt beam="2">  1       -2 0.21799647E+00 0.19327013E+04</pdfrwt>
<totfact> 0.50521324E+00</totfact>
</mgrwt>
</event>
<event>
 8    1  0.6876290E-010  0.1945375E+04  0.7818608E-02  0.8632594E-01
         -2   -1    0    0    0  501 -0.00000000000E+00  0.00000000000E+00  0.29505981544E+03  0.29505981545E+03  0.25500000000E-02 0. -1.
          2   -1    0    0  501    0  0.00000000000E+00 -0.00000000000E+00 -0.32065407622E+04  0.32065407622E+04  0.25500000000E-02 0.  1.
     200001    2    1    2    0    0 -0.32045558785E+03  0.10917651765E+03 -0.39923876190E+03  0.87177699210E+03  0.69713143608E+03 0.  0.
    5000001    2    3    3    0    0 -0.30623714116E+02  0.56542034567E+02 -0.69749797738E+02  0.20444208267E+03  0.18109863981E+03 0.  0.
        -11    1    4    4    0    0 -0.87338598326E+02 -0.11990278588E+02 -0.11417873701E+01  0.88165192774E+02  0.51100000000E-03 0. -1.
     200002    1    4    4    0    0  0.56714884210E+02  0.68532313155E+02 -0.68608010368E+02  0.11627688990E+03  0.30000000000E+02 0. -1.
     200000    1    3    3    0    0 -0.28983187373E+03  0.52634483078E+02 -0.32948896417E+03  0.66733490943E+03  0.50000000000E+03 0. -1.
    -200001    1    1    2    0    0  0.32045558785E+03 -0.10917651765E+03 -0.25122421849E+04  0.26298235856E+04  0.70000000000E+03 0.  1.
<mgrwt>
<rscale>  0 0.19453754E+04</rscale>
<asrwt>0</asrwt>
<pdfrwt beam="1">  1        2 0.45807723E+00 0.19453754E+04</pdfrwt>
<pdfrwt beam="2">  1       -2 0.42151404E-01 0.19453754E+04</pdfrwt>
<totfact> 0.90010329E+00</totfact>
</mgrwt>
</event>
<event>
 8    1  0.6876290E-010  0.1425070E+04  0.7818608E-02  0.8935869E-01
          2   -1    0    0  501    0  0.00000000000E+00  0.00000000000E+00  0.19623522260E+04  0.19623522260E+04  0.25500000000E-02 0.  1.
         -2   -1    0    0    0  501 -0.00000000000E+00 -0.00000000000E+00 -0.25872328331E+03  0.25872328332E+03  0.25500000000E-02 0. -1.
     200001    2    1    2    0    0 -0.91064846047E+02  0.17265185813E+02  0.68240472219E+03  0.97950803175E+03  0.69654065679E+03 0.  0.
    5000001    2    3    3    0    0 -0.66342829406E+02 -0.23137141155E+02  0.18600861102E+03  0.27335463105E+03  0.18758158926E+03 0.  0.
        -11    1    4    4    0    0  0.50327294766E+02 -0.55481055112E+02  0.59127132209E+02  0.95430612690E+02  0.51100000000E-03 0. -1.
     200002    1    4    4    0    0 -0.11667012417E+03  0.32343913957E+02  0.12688147881E+03  0.17792401836E+03  0.30000000000E+02 0. -1.
     200000    1    3    3    0    0 -0.24722016641E+02  0.40402326968E+02  0.49639611117E+03  0.70615340070E+03  0.50000000000E+03 0. -1.
    -200001    1    1    2    0    0  0.91064846047E+02 -0.17265185813E+02  0.10212242205E+04  0.12415674775E+04  0.70000000000E+03 0.  1.
<mgrwt>
<rscale>  0 0.14250701E+04</rscale>
<asrwt>0</asrwt>
<pdfrwt beam="1">  1        2 0.28033604E+00 0.14250701E+04</pdfrwt>
<pdfrwt beam="2">  1       -2 0.36960468E-01 0.14250701E+04</pdfrwt>
<totfact> 0.56284119E+01</totfact>
</mgrwt>
</event>
<event>
 8    1  0.6876290E-010  0.2066436E+04  0.7818608E-02  0.8576175E-01
          2   -1    0    0  501    0  0.00000000000E+00  0.00000000000E+00  0.19539900295E+04  0.19539900295E+04  0.25500000000E-02 0.  1.
         -2   -1    0    0    0  501 -0.00000000000E+00 -0.00000000000E+00 -0.54633802099E+03  0.54633802099E+03  0.25500000000E-02 0. -1.
     200001    2    1    2    0    0 -0.21920933105E+03 -0.28791039685E+03 -0.11067750543E+03  0.78969377037E+03  0.69312452944E+03 0.  0.
    5000001    2    3    3    0    0 -0.10868098701E+02 -0.78359547238E+02 -0.55397138132E+02  0.20627835518E+03  0.18227337350E+03 0.  0.
        -11    1    4    4    0    0  0.70456384541E+02 -0.54168438890E+02 -0.72476115244E+02  0.11467828554E+03  0.51100000000E-03 0. -1.
     200002    1    4    4    0    0 -0.81324483241E+02 -0.24191108348E+02  0.17078977112E+02  0.91600069633E+02  0.30000000000E+02 0. -1.
     200000    1    3    3    0    0 -0.20834123235E+03 -0.20955084961E+03 -0.55280367299E+02  0.58341541519E+03  0.50000000000E+03 0. -1.
    -200001    1    1    2    0    0  0.21920933105E+03  0.28791039685E+03  0.15183295139E+04  0.17106342801E+04  0.70000000000E+03 0.  1.
<mgrwt>
<rscale>  0 0.20664356E+04</rscale>
<asrwt>0</asrwt>
<pdfrwt beam="1">  1        2 0.27914144E+00 0.20664356E+04</pdfrwt>
<pdfrwt beam="2">  1       -2 0.78048287E-01 0.20664356E+04</pdfrwt>
<totfact> 0.11487162E+01</totfact>
</mgrwt>
</event>
<event>
 8    1  0.6876290E-010  0.1637327E+04  0.7818608E-02  0.8797939E-01
         -2   -1    0    0    0  501 -0.00000000000E+00  0.00000000000E+00  0.81432893074E+03  0.81432893074E+03  0.25500000000E-02 0. -1.
          2   -1    0    0  501    0  0.00000000000E+00 -0.00000000000E+00 -0.82302089780E+03  0.82302089780E+03  0.25500000000E-02 0.  1.
     200001    2    1    2    0    0  0.23101928436E+03  0.10518801312E+03  0.33627049118E+03  0.81671987208E+03  0.69965640022E+03 0.  0.
    5000001    2    3    3    0    0  0.98430745056E+02 -0.25429843911E+02  0.14103086898E+03  0.24860082170E+03  0.17770023638E+03 0.  0.
        -11    1    4    4    0    0 -0.33507159205E+02  0.40465515876E+02  0.51046941294E+02  0.73252835500E+02  0.51100000000E-03 0. -1.
     200002    1    4    4    0    0  0.13193790426E+03 -0.65895359787E+02  0.89983927681E+02  0.17534798620E+03  0.30000000000E+02 0. -1.
     200000    1    3    3    0    0  0.13258853930E+03  0.13061785703E+03  0.19523962220E+03  0.56811905038E+03  0.50000000000E+03 0. -1.
    -200001    1    1    2    0    0 -0.23101928436E+03 -0.10518801312E+03 -0.34496245824E+03  0.82062995646E+03  0.70000000000E+03 0. -1.
<mgrwt>
<rscale>  0 0.16373268E+04</rscale>
<asrwt>0</asrwt>
<pdfrwt beam="1">  1        2 0.11757441E+00 0.16373268E+04</pdfrwt>
<pdfrwt beam="2">  1       -2 0.11633270E+00 0.16373268E+04</pdfrwt>
<totfact> 0.20130747E+01</totfact>
</mgrwt>
</event>
<event>
 8    1  0.6876290E-010  0.1703727E+04  0.7818608E-02  0.8759242E-01
          2   -1    0    0  501    0  0.00000000000E+00  0.00000000000E+00  0.88655892962E+03  0.88655892962E+03  0.25500000000E-02 0.  1.
         -2   -1    0    0    0  501 -0.00000000000E+00 -0.00000000000E+00 -0.81852549332E+03  0.81852549332E+03  0.25500000000E-02 0. -1.
     200001    2    1    2    0    0 -0.31345757359E+03  0.85453627533E+01 -0.33644229426E+03  0.83794585831E+03  0.70045069094E+03 0.  0.
    5000001    2    3    3    0    0 -0.92163021614E+01 -0.72628036713E+01 -0.11069017391E+03  0.21042958824E+03  0.17857941780E+03 0.  0.
        -11    1    4    4    0    0 -0.39062587811E+02  0.67135915581E+02 -0.96162286844E+02  0.12361352005E+03  0.51100000000E-03 0. -1.
     200002    1    4    4    0    0  0.29846285649E+02 -0.74398719252E+02 -0.14527887068E+02  0.86816068191E+02  0.30000000000E+02 0. -1.
     200000    1    3    3    0    0 -0.30424127143E+03  0.15808166425E+02 -0.22575212034E+03  0.62751627007E+03  0.50000000000E+03 0.  1.
    -200001    1    1    2    0    0  0.31345757359E+03 -0.85453627533E+01  0.40447573056E+03  0.86713856464E+03  0.70000000000E+03 0.  1.
<mgrwt>
<rscale>  0 0.17037266E+04</rscale>
<asrwt>0</asrwt>
<pdfrwt beam="1">  1        2 0.12665128E+00 0.17037266E+04</pdfrwt>
<pdfrwt beam="2">  1       -2 0.11693221E+00 0.17037266E+04</pdfrwt>
<totfact> 0.17921008E+01</totfact>
</mgrwt>
</event>
<event>
 8    1  0.6876290E-010  0.1768579E+04  0.7818608E-02  0.8723190E-01
          2   -1    0    0  501    0  0.00000000000E+00  0.00000000000E+00  0.26008290554E+04  0.26008290554E+04  0.25500000000E-02 0.  1.
         -2   -1    0    0    0  501 -0.00000000000E+00 -0.00000000000E+00 -0.30066104086E+03  0.30066104087E+03  0.25500000000E-02 0. -1.
     200001    2    1    2    0    0  0.50877312670E+03 -0.18258880642E+03  0.11671910048E+04  0.14641920509E+04  0.69952466253E+03 0.  0.
    5000001    2    3    3    0    0  0.16865031431E+03 -0.26222392127E+02  0.50862177066E+03  0.55653164127E+03  0.14798925561E+03 0.  0.
        -11    1    4    4    0    0  0.96134964033E+02 -0.29895539083E+01  0.96077912567E+02  0.13594790924E+03  0.51100000000E-03 0. -1.
     200002    1    4    4    0    0  0.72515350274E+02 -0.23232838219E+02  0.41254385809E+03  0.42058373203E+03  0.30000000000E+02 0. -1.
     200000    1    3    3    0    0  0.34012281239E+03 -0.15636641430E+03  0.65856923417E+03  0.90766040964E+03  0.50000000000E+03 0. -1.
    -200001    1    1    2    0    0 -0.50877312670E+03  0.18258880642E+03  0.11329770097E+04  0.14372980453E+04  0.70000000000E+03 0.  1.
<mgrwt>
<rscale>  0 0.17685791E+04</rscale>
<asrwt>0</asrwt>
<pdfrwt beam="1">  1        2 0.37154700E+00 0.17685791E+04</pdfrwt>
<pdfrwt beam="2">  1       -2 0.42951578E-01 0.17685791E+04</pdfrwt>
<totfact> 0.19019419E+01</totfact>
</mgrwt>
</event>
<event>
 8    1  0.6876290E-010  0.1813842E+04  0.7818608E-02  0.8698973E-01
         -2   -1    0    0    0  501 -0.00000000000E+00  0.00000000000E+00  0.54865638680E+03  0.54865638680E+03  0.25500000000E-02 0. -1.
          2   -1    0    0  501    0  0.00000000000E+00 -0.00000000000E+00 -0.14991266659E+04  0.14991266659E+04  0.25500000000E-02 0.  1.
     200001    2    1    2    0    0 -0.17925427422E+03  0.18046727459E+03 -0.10595485970E+04  0.12950556044E+04  0.69987517255E+03 0.  0.
    5000001    2    3    3    0    0 -0.85771725350E+02  0.17265228836E+03 -0.29600786427E+03  0.37756200147E+03  0.13329218919E+03 0.  0.
        -11    1    4    4    0    0 -0.22684678782E+02 -0.84603508332E+01 -0.95347158671E+02  0.98373029101E+02  0.51100000000E-03 0. -1.
     200002    1    4    4    0    0 -0.63087046568E+02  0.18111263919E+03 -0.20066070560E+03  0.27918897237E+03  0.30000000000E+02 0. -1.
     200000    1    3    3    0    0 -0.93482548870E+02  0.78149862291E+01 -0.76354073269E+03  0.91749360294E+03  0.50000000000E+03 0.  1.
    -200001    1    1    2    0    0  0.17925427422E+03 -0.18046727459E+03  0.10907831784E+03  0.75272744831E+03  0.70000000000E+03 0. -1.
<mgrwt>
<rscale>  0 0.18138417E+04</rscale>
<asrwt>0</asrwt>
<pdfrwt beam="1">  1        2 0.21416095E+00 0.18138417E+04</pdfrwt>
<pdfrwt beam="2">  1       -2 0.78379484E-01 0.18138417E+04</pdfrwt>
<totfact> 0.20036647E+01</totfact>
</mgrwt>
</event>
<event>
 8    1  0.6876290E-010  0.1555548E+04  0.7818608E-02  0.8848332E-01
         -2   -1    0    0    0  501 -0.00000000000E+00  0.00000000000E+00  0.14708140615E+03  0.14708140617E+03  0.25500000000E-02 0. -1.
          2   -1    0    0  501    0  0.00000000000E+00 -0.00000000000E+00 -0.41129062151E+04  0.41129062151E+04  0.25500000000E-02 0.  1.
     200001    2    1    2    0    0  0.11480911303E+03 -0.24833596625E+03 -0.25300418796E+04  0.26393937471E+04  0.70031104195E+03 0.  0.
    5000001    2    3    3    0    0  0.89601698895E+02 -0.18949102784E+03 -0.58834316473E+03  0.63332992968E+03  0.10499431539E+03 0.  0.
        -11    1    4    4    0    0  0.75541298621E+02 -0.71466388869E+02 -0.35265603342E+03  0.36766861498E+03  0.51100000000E-03 0. -1.
     200002    1    4    4    0    0  0.14060400274E+02 -0.11802463897E+03 -0.23568713131E+03  0.26566131469E+03  0.30000000000E+02 0. -1.
     200000    1    3    3    0    0  0.25207414138E+02 -0.58844938409E+02 -0.19416987148E+04  0.20060638175E+04  0.50000000000E+03 0.  1.
    -200001    1    1    2    0    0 -0.11480911303E+03  0.24833596625E+03 -0.14357829294E+04  0.16205938741E+04  0.70000000000E+03 0. -1.
<mgrwt>
<rscale>  0 0.15555475E+04</rscale>
<asrwt>0</asrwt>
<pdfrwt beam="1">  1        2 0.58755795E+00 0.15555475E+04</pdfrwt>
<pdfrwt beam="2">  1       -2 0.21011632E-01 0.15555475E+04</pdfrwt>
<totfact> 0.91302316E+00</totfact>
</mgrwt>
</event>
<event>
 8    1  0.6876290E-010  0.1531169E+04  0.7818608E-02  0.8863987E-01
         -2   -1    0    0    0  501 -0.00000000000E+00  0.00000000000E+00  0.99619048640E+03  0.99619048641E+03  0.25500000000E-02 0. -1.
          2   -1    0    0  501    0  0.00000000000E+00 -0.00000000000E+00 -0.58836061494E+03  0.58836061494E+03  0.25500000000E-02 0.  1.
     200001    2    1    2    0    0  0.12860713137E+03 -0.27856203184E+03  0.25088245386E+03  0.80431453997E+03  0.69988804371E+03 0.  0.
    5000001    2    3    3    0    0 -0.87550763344E+02 -0.49334688721E+02  0.13409818505E+03  0.20189610091E+03  0.11260845731E+03 0.  0.
        -11    1    4    4    0    0 -0.62113795958E+02  0.21618320716E+02  0.37342084446E+02  0.75630064855E+02  0.51100000000E-03 0. -1.
     200002    1    4    4    0    0 -0.25436967386E+02 -0.70953009437E+02  0.96756100599E+02  0.12626603606E+03  0.30000000000E+02 0. -1.
     200000    1    3    3    0    0  0.21615789471E+03 -0.22922734312E+03  0.11678426882E+03  0.60241843906E+03  0.50000000000E+03 0. -1.
    -200001    1    1    2    0    0 -0.12860713137E+03  0.27856203184E+03  0.15694741760E+03  0.78023656138E+03  0.70000000000E+03 0.  1.
<mgrwt>
<rscale>  0 0.15311685E+04</rscale>
<asrwt>0</asrwt>
<pdfrwt beam="1">  1        2 0.84051517E-01 0.15311685E+04</pdfrwt>
<pdfrwt beam="2">  1       -2 0.14231292E+00 0.15311685E+04</pdfrwt>
<totfact> 0.18452516E+01</totfact>
</mgrwt>
</event>
<event>
 8    1  0.6876290E-010  0.1497715E+04  0.7818608E-02  0.8885974E-01
          2   -1    0    0  501    0  0.00000000000E+00  0.00000000000E+00  0.21147139513E+04  0.21147139513E+04  0.25500000000E-02 0.  1.
         -2   -1    0    0    0  501 -0.00000000000E+00 -0.00000000000E+00 -0.26518380149E+03  0.26518380150E+03  0.25500000000E-02 0. -1.
     200001    2    1    2    0    0 -0.10595515383E+03  0.62567156117E+02  0.13002281078E+04  0.14816361667E+04  0.69965095193E+03 0.  0.
    5000001    2    3    3    0    0 -0.84159379134E+02  0.72244612906E+02  0.37215644747E+03  0.42717625013E+03  0.17798045424E+03 0.  0.
        -11    1    4    4    0    0  0.94659637392E+01 -0.50432976881E+02  0.11223128959E+03  0.12340564002E+03  0.51100000000E-03 0. -1.
     200002    1    4    4    0    0 -0.93625342873E+02  0.12267758979E+03  0.25992515788E+03  0.30377061011E+03  0.30000000000E+02 0. -1.
     200000    1    3    3    0    0 -0.21795774697E+02 -0.96774567891E+01  0.92807166036E+03  0.10544599166E+04  0.50000000000E+03 0.  1.
    -200001    1    1    2    0    0  0.10595515383E+03 -0.62567156117E+02  0.54930204195E+03  0.89826158603E+03  0.70000000000E+03 0. -1.
<mgrwt>
<rscale>  0 0.14977154E+04</rscale>
<asrwt>0</asrwt>
<pdfrwt beam="1">  1        2 0.30210201E+00 0.14977154E+04</pdfrwt>
<pdfrwt beam="2">  1       -2 0.37883399E-01 0.14977154E+04</pdfrwt>
<totfact> 0.44559944E+01</totfact>
</mgrwt>
</event>
<event>
 8    1  0.6876290E-010  0.2043056E+04  0.7818608E-02  0.8586751E-01
          2   -1    0    0  501    0  0.00000000000E+00  0.00000000000E+00  0.20117029553E+04  0.20117029553E+04  0.25500000000E-02 0.  1.
         -2   -1    0    0    0  501 -0.00000000000E+00 -0.00000000000E+00 -0.51872434181E+03  0.51872434182E+03  0.25500000000E-02 0. -1.
     200001    2    1    2    0    0  0.62483856417E+03 -0.10968029597E+03  0.12275198297E+04  0.15491417299E+04  0.70041571111E+03 0.  0.
    5000001    2    3    3    0    0  0.15835153438E+03 -0.40823181932E+02  0.27860263529E+03  0.37747825731E+03  0.19526562865E+03 0.  0.
        -11    1    4    4    0    0 -0.29085996208E+01  0.32105394853E+02 -0.13238430182E+02  0.34849280687E+02  0.51100000000E-03 0. -1.
     200002    1    4    4    0    0  0.16126013400E+03 -0.72928576785E+02  0.29184106547E+03  0.34262897663E+03  0.30000000000E+02 0. -1.
     200000    1    3    3    0    0  0.46648702979E+03 -0.68857114036E+02  0.94891719439E+03  0.11716634726E+04  0.50000000000E+03 0.  1.
    -200001    1    1    2    0    0 -0.62483856417E+03  0.10968029597E+03  0.26545878382E+03  0.98128556725E+03  0.70000000000E+03 0. -1.
<mgrwt>
<rscale>  0 0.20430558E+04</rscale>
<asrwt>0</asrwt>
<pdfrwt beam="1">  1        2 0.28738614E+00 0.20430558E+04</pdfrwt>
<pdfrwt beam="2">  1       -2 0.74103477E-01 0.20430558E+04</pdfrwt>
<totfact> 0.12060048E+01</totfact>
</mgrwt>
</event>
<event>
 8    1  0.6876290E-010  0.2147666E+04  0.7818608E-02  0.8540532E-01
          2   -1    0    0  501    0  0.00000000000E+00  0.00000000000E+00  0.21932577000E+04  0.21932577000E+04  0.25500000000E-02 0.  1.
         -2   -1    0    0    0  501 -0.00000000000E+00 -0.00000000000E+00 -0.52575541330E+03  0.52575541331E+03  0.25500000000E-02 0. -1.
     200001    2    1    2    0    0 -0.65989795364E+03 -0.43400712571E+03  0.10839879521E+04  0.15130626694E+04  0.70035795638E+03 0.  0.
    5000001    2    3    3    0    0 -0.11545355807E+03 -0.18560016395E+03  0.40180573335E+03  0.47696503986E+03  0.13516973390E+03 0.  0.
        -11    1    4    4    0    0 -0.93580178488E+02 -0.12773065370E+03  0.15814929451E+03  0.22379358582E+03  0.51100000000E-03 0. -1.
     200002    1    4    4    0    0 -0.21873379584E+02 -0.57869510257E+02  0.24365643884E+03  0.25317145403E+03  0.30000000000E+02 0. -1.
     200000    1    3    3    0    0 -0.54444439556E+03 -0.24840696176E+03  0.68218221872E+03  0.10360976296E+04  0.50000000000E+03 0.  1.
    -200001    1    1    2    0    0  0.65989795364E+03  0.43400712571E+03  0.58351433467E+03  0.12059504439E+04  0.70000000000E+03 0. -1.
<mgrwt>
<rscale>  0 0.21476658E+04</rscale>
<asrwt>0</asrwt>
<pdfrwt beam="1">  1        2 0.31332254E+00 0.21476658E+04</pdfrwt>
<pdfrwt beam="2">  1       -2 0.75107915E-01 0.21476658E+04</pdfrwt>
<totfact> 0.93551755E+00</totfact>
</mgrwt>
</event>
<event>
 8    1  0.6876290E-010  0.2037243E+04  0.7818608E-02  0.8589404E-01
          2   -1    0    0  501    0  0.00000000000E+00  0.00000000000E+00  0.21457352148E+04  0.21457352148E+04  0.25500000000E-02 0.  1.
         -2   -1    0    0    0  501 -0.00000000000E+00 -0.00000000000E+00 -0.48355897397E+03  0.48355897398E+03  0.25500000000E-02 0. -1.
     200001    2    1    2    0    0  0.10577455326E+03  0.59367297418E+03  0.27743830304E+03  0.96462154447E+03  0.69991917796E+03 0.  0.
    5000001    2    3    3    0    0  0.30073024391E+02  0.23131305559E+03  0.12305545571E+03  0.32363051831E+03  0.18757385404E+03 0.  0.
        -11    1    4    4    0    0  0.90322225564E+02  0.15090575305E+03  0.12975740759E+03  0.21855808281E+03  0.51100000000E-03 0. -1.
     200002    1    4    4    0    0 -0.60249201172E+02  0.80407302537E+02 -0.67019518826E+01  0.10507243550E+03  0.30000000000E+02 0. -1.
     200000    1    3    3    0    0  0.75701528871E+02  0.36235991859E+03  0.15438284733E+03  0.64099102616E+03  0.50000000000E+03 0. -1.
    -200001    1    1    2    0    0 -0.10577455326E+03 -0.59367297418E+03  0.13847379378E+04  0.16646726443E+04  0.70000000000E+03 0.  1.
<mgrwt>
<rscale>  0 0.20372428E+04</rscale>
<asrwt>0</asrwt>
<pdfrwt beam="1">  1        2 0.30653361E+00 0.20372428E+04</pdfrwt>
<pdfrwt beam="2">  1       -2 0.69079853E-01 0.20372428E+04</pdfrwt>
<totfact> 0.12003176E+01</totfact>
</mgrwt>
</event>
<event>
 8    1  0.6876290E-010  0.1947311E+04  0.7818608E-02  0.8631659E-01
          2   -1    0    0  501    0  0.00000000000E+00  0.00000000000E+00  0.88568420079E+03  0.88568420079E+03  0.25500000000E-02 0.  1.
         -2   -1    0    0    0  501 -0.00000000000E+00 -0.00000000000E+00 -0.10703641052E+04  0.10703641052E+04  0.25500000000E-02 0. -1.
     200001    2    1    2    0    0  0.23875784255E+03  0.43323707959E+03 -0.55615736634E+03  0.10218667502E+04  0.70014353130E+03 0.  0.
    5000001    2    3    3    0    0  0.11193383151E+03  0.16694770128E+03 -0.25865467673E+03  0.36956144349E+03  0.17109266823E+03 0.  0.
        -11    1    4    4    0    0  0.47724056716E+02  0.16816277188E+03 -0.11462361240E+03  0.20903319343E+03  0.51100000000E-03 0. -1.
     200002    1    4    4    0    0  0.64209774796E+02 -0.12150706031E+01 -0.14403106433E+03  0.16052825006E+03  0.30000000000E+02 0. -1.
     200000    1    3    3    0    0  0.12682401104E+03  0.26628937832E+03 -0.29750268962E+03  0.65230530667E+03  0.50000000000E+03 0. -1.
    -200001    1    1    2    0    0 -0.23875784255E+03 -0.43323707959E+03  0.37147746194E+03  0.93418155583E+03  0.70000000000E+03 0.  1.
<mgrwt>
<rscale>  0 0.19473105E+04</rscale>
<asrwt>0</asrwt>
<pdfrwt beam="1">  1        2 0.12652632E+00 0.19473105E+04</pdfrwt>
<pdfrwt beam="2">  1       -2 0.15290916E+00 0.19473105E+04</pdfrwt>
<totfact> 0.88564822E+00</totfact>
</mgrwt>
</event>
<event>
 8    1  0.6876290E-010  0.1563061E+04  0.7818608E-02  0.8843568E-01
         -2   -1    0    0    0  501 -0.00000000000E+00  0.00000000000E+00  0.26256927445E+03  0.26256927446E+03  0.25500000000E-02 0. -1.
          2   -1    0    0  501    0  0.00000000000E+00 -0.00000000000E+00 -0.23262042743E+04  0.23262042743E+04  0.25500000000E-02 0.  1.
     200001    2    1    2    0    0 -0.46187110379E+02 -0.20372714386E+03 -0.14920949032E+04  0.16612520771E+04  0.69983802788E+03 0.  0.
    5000001    2    3    3    0    0 -0.88995302322E+01 -0.10267031688E+03 -0.33570452788E+03  0.39679901510E+03  0.18474721308E+03 0.  0.
        -11    1    4    4    0    0 -0.76409015573E+02 -0.24382632107E+02 -0.58046348964E+02  0.99006207066E+02  0.51100000000E-03 0. -1.
     200002    1    4    4    0    0  0.67509485341E+02 -0.78287684773E+02 -0.27765817891E+03  0.29779280803E+03  0.30000000000E+02 0. -1.
     200000    1    3    3    0    0 -0.37287580147E+02 -0.10105682698E+03 -0.11563903753E+04  0.12644530620E+04  0.50000000000E+03 0.  1.
    -200001    1    1    2    0    0  0.46187110379E+02  0.20372714386E+03 -0.57154009668E+03  0.92752147168E+03  0.70000000000E+03 0. -1.
<mgrwt>
<rscale>  0 0.15630608E+04</rscale>
<asrwt>0</asrwt>
<pdfrwt beam="1">  1        2 0.33231488E+00 0.15630608E+04</pdfrwt>
<pdfrwt beam="2">  1       -2 0.37509898E-01 0.15630608E+04</pdfrwt>
<totfact> 0.35138574E+01</totfact>
</mgrwt>
</event>
<event>
 8    1  0.6876290E-010  0.2286808E+04  0.7818608E-02  0.8483141E-01
         -2   -1    0    0    0  501 -0.00000000000E+00  0.00000000000E+00  0.12974897173E+04  0.12974897173E+04  0.25500000000E-02 0. -1.
          2   -1    0    0  501    0  0.00000000000E+00 -0.00000000000E+00 -0.10076172418E+04  0.10076172418E+04  0.25500000000E-02 0.  1.
     200001    2    1    2    0    0  0.47685227626E+03  0.46662874311E+03  0.75973303177E+03  0.12299793296E+04  0.70037446731E+03 0.  0.
    5000001    2    3    3    0    0  0.15023615632E+03  0.10715964751E+03  0.37927800456E+03  0.43584952396E+03  0.10981306880E+03 0.  0.
        -11    1    4    4    0    0  0.63794200531E+02 -0.35503497370E+01  0.17361518980E+03  0.18499875441E+03  0.51100000000E-03 0. -1.
     200002    1    4    4    0    0  0.86441955785E+02  0.11070999725E+03  0.20566281476E+03  0.25085076955E+03  0.30000000000E+02 0. -1.
     200000    1    3    3    0    0  0.32661611994E+03  0.35946909560E+03  0.38045502721E+03  0.79412980566E+03  0.50000000000E+03 0. -1.
    -200001    1    1    2    0    0 -0.47685227626E+03 -0.46662874311E+03 -0.46986055630E+03  0.10751276295E+04  0.70000000000E+03 0.  1.
<mgrwt>
<rscale>  0 0.22868083E+04</rscale>
<asrwt>0</asrwt>
<pdfrwt beam="1">  1        2 0.14394532E+00 0.22868083E+04</pdfrwt>
<pdfrwt beam="2">  1       -2 0.18535567E+00 0.22868083E+04</pdfrwt>
<totfact> 0.42205952E+00</totfact>
</mgrwt>
</event>
<event>
 8    1  0.6876290E-010  0.1542896E+04  0.7818608E-02  0.8856418E-01
          2   -1    0    0  501    0  0.00000000000E+00  0.00000000000E+00  0.80143361333E+03  0.80143361334E+03  0.25500000000E-02 0.  1.
         -2   -1    0    0    0  501 -0.00000000000E+00 -0.00000000000E+00 -0.74258460684E+03  0.74258460684E+03  0.25500000000E-02 0. -1.
     200001    2    1    2    0    0 -0.72011567264E+02  0.31647247097E+03  0.45929738224E+02  0.77232696184E+03  0.69931316620E+03 0.  0.
    5000001    2    3    3    0    0 -0.12900265314E+02  0.13893034564E+03  0.58267781630E+02  0.23831611963E+03  0.18420472500E+03 0.  0.
        -11    1    4    4    0    0 -0.31147982430E+02  0.17178832124E+03  0.71150495264E+02  0.18853067947E+03  0.51100000000E-03 0. -1.
     200002    1    4    4    0    0  0.18247717115E+02 -0.32857975606E+02 -0.12882713634E+02  0.49785440155E+02  0.30000000000E+02 0. -1.
     200000    1    3    3    0    0 -0.59111301950E+02  0.17754212533E+03 -0.12338043406E+02  0.53401084221E+03  0.50000000000E+03 0. -1.
    -200001    1    1    2    0    0  0.72011567264E+02 -0.31647247097E+03  0.12919268272E+02  0.77169125834E+03  0.70000000000E+03 0.  1.
<mgrwt>
<rscale>  0 0.15428963E+04</rscale>
<asrwt>0</asrwt>
<pdfrwt beam="1">  1        2 0.11449052E+00 0.15428963E+04</pdfrwt>
<pdfrwt beam="2">  1       -2 0.10608351E+00 0.15428963E+04</pdfrwt>
<totfact> 0.26252679E+01</totfact>
</mgrwt>
</event>
<event>
 8    1  0.6876290E-010  0.1447295E+04  0.7818608E-02  0.8920278E-01
         -2   -1    0    0    0  501 -0.00000000000E+00  0.00000000000E+00  0.17187490133E+03  0.17187490135E+03  0.25500000000E-02 0. -1.
          2   -1    0    0  501    0  0.00000000000E+00 -0.00000000000E+00 -0.30467820261E+04  0.30467820261E+04  0.25500000000E-02 0.  1.
     200001    2    1    2    0    0 -0.17774451138E+03 -0.14278424894E+02 -0.15320802656E+04  0.16938681032E+04  0.70008729897E+03 0.  0.
    5000001    2    3    3    0    0 -0.56761529460E+02  0.37906051750E+02 -0.18613381849E+03  0.25201792378E+03  0.15559079514E+03 0.  0.
        -11    1    4    4    0    0  0.87647976182E+01 -0.51675772169E+02 -0.79401215296E+02  0.95140738368E+02  0.51100000000E-03 0. -1.
     200002    1    4    4    0    0 -0.65526327079E+02  0.89581823919E+02 -0.10673260319E+03  0.15687718541E+03  0.30000000000E+02 0. -1.
     200000    1    3    3    0    0 -0.12098298192E+03 -0.52184476644E+02 -0.13459464471E+04  0.14418501795E+04  0.50000000000E+03 0.  1.
    -200001    1    1    2    0    0  0.17774451138E+03  0.14278424894E+02 -0.13428268592E+04  0.15247888242E+04  0.70000000000E+03 0. -1.
<mgrwt>
<rscale>  0 0.14472945E+04</rscale>
<asrwt>0</asrwt>
<pdfrwt beam="1">  1        2 0.43525454E+00 0.14472945E+04</pdfrwt>
<pdfrwt beam="2">  1       -2 0.24553559E-01 0.14472945E+04</pdfrwt>
<totfact> 0.32153952E+01</totfact>
</mgrwt>
</event>
<event>
 8    1  0.6876290E-010  0.1888888E+04  0.7818608E-02  0.8660407E-01
         -2   -1    0    0    0  501 -0.00000000000E+00  0.00000000000E+00  0.35565128946E+03  0.35565128947E+03  0.25500000000E-02 0. -1.
          2   -1    0    0  501    0  0.00000000000E+00 -0.00000000000E+00 -0.25080036714E+04  0.25080036714E+04  0.25500000000E-02 0.  1.
     200001    2    1    2    0    0 -0.34252908624E+03  0.50892269639E+03 -0.13216691574E+04  0.16161121338E+04  0.69905692297E+03 0.  0.
    5000001    2    3    3    0    0 -0.12073852010E+03  0.79857816047E+02 -0.18000868703E+03  0.27944599883E+03  0.15726372065E+03 0.  0.
        -11    1    4    4    0    0 -0.45304468740E+02  0.11587501110E+03 -0.95388393965E+02  0.15677518550E+03  0.51100000000E-03 0. -1.
     200002    1    4    4    0    0 -0.75434051360E+02 -0.36017195049E+02 -0.84620293069E+02  0.12267081333E+03  0.30000000000E+02 0. -1.
     200000    1    3    3    0    0 -0.22179056614E+03  0.42906488035E+03 -0.11416604704E+04  0.13366661350E+04  0.50000000000E+03 0.  1.
    -200001    1    1    2    0    0  0.34252908624E+03 -0.50892269639E+03 -0.83068322451E+03  0.12475428270E+04  0.70000000000E+03 0.  1.
<mgrwt>
<rscale>  0 0.18888883E+04</rscale>
<asrwt>0</asrwt>
<pdfrwt beam="1">  1        2 0.35828623E+00 0.18888883E+04</pdfrwt>
<pdfrwt beam="2">  1       -2 0.50807329E-01 0.18888883E+04</pdfrwt>
<totfact> 0.15037695E+01</totfact>
</mgrwt>
</event>
<event>
 8    1  0.6876290E-010  0.1570524E+04  0.7818608E-02  0.8838863E-01
         -2   -1    0    0    0  501 -0.00000000000E+00  0.00000000000E+00  0.11315625135E+03  0.11315625138E+03  0.25500000000E-02 0. -1.
          2   -1    0    0  501    0  0.00000000000E+00 -0.00000000000E+00 -0.54494273808E+04  0.54494273808E+04  0.25500000000E-02 0.  1.
     200001    2    1    2    0    0 -0.24217452167E+03  0.71898308567E+02 -0.17802353311E+04  0.19295121403E+04  0.69997242795E+03 0.  0.
    5000001    2    3    3    0    0 -0.11349236121E+03  0.84471763765E+02 -0.20002947429E+03  0.26705379797E+03  0.10625415522E+03 0.  0.
        -11    1    4    4    0    0  0.17887066331E+02  0.10008265042E+02 -0.11020248196E+02  0.23271406954E+02  0.51100000000E-03 0. -1.
     200002    1    4    4    0    0 -0.13137942754E+03  0.74463498723E+02 -0.18900922609E+03  0.24378239102E+03  0.30000000000E+02 0. -1.
     200000    1    3    3    0    0 -0.12868216047E+03 -0.12573455199E+02 -0.15802058568E+04  0.16624583423E+04  0.50000000000E+03 0. -1.
    -200001    1    1    2    0    0  0.24217452167E+03 -0.71898308567E+02 -0.35560357984E+04  0.36330714919E+04  0.70000000000E+03 0.  1.
<mgrwt>
<rscale>  0 0.15705245E+04</rscale>
<asrwt>0</asrwt>
<pdfrwt beam="1">  1        2 0.77848946E+00 0.15705245E+04</pdfrwt>
<pdfrwt beam="2">  1       -2 0.16165182E-01 0.15705245E+04</pdfrwt>
<totfact> 0.89810459E-01</totfact>
</mgrwt>
</event>
<event>
 8    1  0.6876290E-010  0.1739115E+04  0.7818608E-02  0.8739365E-01
          2   -1    0    0  501    0  0.00000000000E+00  0.00000000000E+00  0.68770437401E+03  0.68770437402E+03  0.25500000000E-02 0.  1.
         -2   -1    0    0    0  501 -0.00000000000E+00 -0.00000000000E+00 -0.10994987226E+04  0.10994987226E+04  0.25500000000E-02 0. -1.
     200001    2    1    2    0    0  0.45019893219E+03 -0.20019842286E+03 -0.36388720494E+03  0.92985043785E+03  0.69960664075E+03 0.  0.
    5000001    2    3    3    0    0  0.88611686963E+02 -0.84980919897E+02 -0.19257099239E+02  0.21375664604E+03  0.17391745181E+03 0.  0.
        -11    1    4    4    0    0 -0.18465994419E+01 -0.80056212079E+02 -0.69389999096E+02  0.10595932709E+03  0.51100000000E-03 0. -1.
     200002    1    4    4    0    0  0.90458286405E+02 -0.49247078180E+01  0.50132899857E+02  0.10779731896E+03  0.30000000000E+02 0. -1.
     200000    1    3    3    0    0  0.36158724523E+03 -0.11521750297E+03 -0.34463010571E+03  0.71609379180E+03  0.50000000000E+03 0. -1.
    -200001    1    1    2    0    0 -0.45019893219E+03  0.20019842286E+03 -0.47907143623E+02  0.85735265875E+03  0.70000000000E+03 0.  1.
<mgrwt>
<rscale>  0 0.17391148E+04</rscale>
<asrwt>0</asrwt>
<pdfrwt beam="1">  1        2 0.98243483E-01 0.17391148E+04</pdfrwt>
<pdfrwt beam="2">  1       -2 0.15707124E+00 0.17391148E+04</pdfrwt>
<totfact> 0.11584902E+01</totfact>
</mgrwt>
</event>
<event>
 8    1  0.6876290E-010  0.2194591E+04  0.7818608E-02  0.8520683E-01
          2   -1    0    0  501    0  0.00000000000E+00  0.00000000000E+00  0.17576539822E+04  0.17576539822E+04  0.25500000000E-02 0.  1.
         -2   -1    0    0    0  501 -0.00000000000E+00 -0.00000000000E+00 -0.68503670317E+03  0.68503670317E+03  0.25500000000E-02 0. -1.
     200001    2    1    2    0    0  0.56970256619E+02  0.66080658089E+03 -0.47368871550E+02  0.96475972454E+03  0.69900398326E+03 0.  0.
    5000001    2    3    3    0    0 -0.20335810649E+02  0.27719180525E+03 -0.43673122803E+02  0.32981863854E+03  0.17211667724E+03 0.  0.
        -11    1    4    4    0    0  0.58972855425E+02  0.20309267382E+03 -0.77645550647E+01  0.21162400656E+03  0.51100000000E-03 0. -1.
     200002    1    4    4    0    0 -0.79308666074E+02  0.74099131421E+02 -0.35908567739E+02  0.11819463198E+03  0.30000000000E+02 0. -1.
     200000    1    3    3    0    0  0.77306067268E+02  0.38361477565E+03 -0.36957487467E+01  0.63494108600E+03  0.50000000000E+03 0.  1.
    -200001    1    1    2    0    0 -0.56970256619E+02 -0.66080658089E+03  0.11199861506E+04  0.14779309608E+04  0.70000000000E+03 0. -1.
<mgrwt>
<rscale>  0 0.21945911E+04</rscale>
<asrwt>0</asrwt>
<pdfrwt beam="1">  1        2 0.25109343E+00 0.21945911E+04</pdfrwt>
<pdfrwt beam="2">  1       -2 0.97862385E-01 0.21945911E+04</pdfrwt>
<totfact> 0.85509731E+00</totfact>
</mgrwt>
</event>
<event>
 8    1  0.6876290E-010  0.1516764E+04  0.7818608E-02  0.8873381E-01
          2   -1    0    0  501    0  0.00000000000E+00  0.00000000000E+00  0.23841831425E+04  0.23841831425E+04  0.25500000000E-02 0.  1.
         -2   -1    0    0    0  501 -0.00000000000E+00 -0.00000000000E+00 -0.24123271493E+03  0.24123271494E+03  0.25500000000E-02 0. -1.
     200001    2    1    2    0    0  0.87058866185E+02 -0.41403518788E+02  0.15516765126E+04  0.17040590644E+04  0.69772759568E+03 0.  0.
    5000001    2    3    3    0    0 -0.24722814073E+02 -0.44833794835E+02  0.11681817030E+03  0.18046943028E+03  0.12767710703E+03 0.  0.
        -11    1    4    4    0    0 -0.69765297026E+02 -0.68061456153E+01  0.47605356579E+02  0.84733643039E+02  0.51100000000E-03 0. -1.
     200002    1    4    4    0    0  0.45042482954E+02 -0.38027649220E+02  0.69212813717E+02  0.95735787240E+02  0.30000000000E+02 0. -1.
     200000    1    3    3    0    0  0.11178168026E+03  0.34302760472E+01  0.14348583423E+04  0.15235896341E+04  0.50000000000E+03 0.  1.
    -200001    1    1    2    0    0 -0.87058866185E+02  0.41403518788E+02  0.59127391505E+03  0.92135679309E+03  0.70000000000E+03 0. -1.
<mgrwt>
<rscale>  0 0.15167636E+04</rscale>
<asrwt>0</asrwt>
<pdfrwt beam="1">  1        2 0.34059761E+00 0.15167636E+04</pdfrwt>
<pdfrwt beam="2">  1       -2 0.34461815E-01 0.15167636E+04</pdfrwt>
<totfact> 0.38716647E+01</totfact>
</mgrwt>
</event>
<event>
 8    1  0.6876290E-010  0.2533700E+04  0.7818608E-02  0.8391077E-01
         -2   -1    0    0    0  501 -0.00000000000E+00  0.00000000000E+00  0.82874856544E+03  0.82874856545E+03  0.25500000000E-02 0. -1.
          2   -1    0    0  501    0  0.00000000000E+00 -0.00000000000E+00 -0.19365444237E+04  0.19365444237E+04  0.25500000000E-02 0.  1.
     200001    2    1    2    0    0 -0.88821287218E+03 -0.55604077870E+03 -0.69704900257E+03  0.14398434679E+04  0.69940578077E+03 0.  0.
    5000001    2    3    3    0    0 -0.29799551164E+03 -0.19425404087E+03 -0.25056471981E+03  0.47620744163E+03  0.19353266212E+03 0.  0.
        -11    1    4    4    0    0 -0.28678701826E+03 -0.11833920669E+03 -0.24181317305E+03  0.39335044470E+03  0.51100000000E-03 0. -1.
     200002    1    4    4    0    0 -0.11208493380E+02 -0.75914834171E+02 -0.87515467588E+01  0.82856996939E+02  0.30000000000E+02 0. -1.
     200000    1    3    3    0    0 -0.59021736054E+03 -0.36178673783E+03 -0.44648428276E+03  0.96363602626E+03  0.50000000000E+03 0.  1.
    -200001    1    1    2    0    0  0.88821287218E+03  0.55604077870E+03 -0.41074685567E+03  0.13254495212E+04  0.70000000000E+03 0.  1.
<mgrwt>
<rscale>  0 0.25336996E+04</rscale>
<asrwt>0</asrwt>
<pdfrwt beam="1">  1        2 0.27664920E+00 0.25336996E+04</pdfrwt>
<pdfrwt beam="2">  1       -2 0.11839265E+00 0.25336996E+04</pdfrwt>
<totfact> 0.42513700E+00</totfact>
</mgrwt>
</event>
<event>
 8    1  0.6876290E-010  0.1398812E+04  0.7818608E-02  0.8954679E-01
         -2   -1    0    0    0  501 -0.00000000000E+00  0.00000000000E+00  0.59817514460E+03  0.59817514460E+03  0.25500000000E-02 0. -1.
          2   -1    0    0  501    0  0.00000000000E+00 -0.00000000000E+00 -0.81776797923E+03  0.81776797924E+03  0.25500000000E-02 0.  1.
     200001    2    1    2    0    0  0.24758099697E+01 -0.31311551773E+01 -0.12268184109E+03  0.70925530419E+03  0.69855301776E+03 0.  0.
    5000001    2    3    3    0    0  0.79044139194E+02 -0.30271529164E+02 -0.11472815596E+03  0.20263654216E+03  0.14399540628E+03 0.  0.
        -11    1    4    4    0    0  0.30089429115E+02 -0.45165844255E+02 -0.13043592335E+03  0.14127582005E+03  0.51100000000E-03 0. -1.
     200002    1    4    4    0    0  0.48954710079E+02  0.14894315092E+02  0.15707767386E+02  0.61360722105E+02  0.30000000000E+02 0. -1.
     200000    1    3    3    0    0 -0.76568329224E+02  0.27140373986E+02 -0.79536851274E+01  0.50661876204E+03  0.50000000000E+03 0. -1.
    -200001    1    1    2    0    0 -0.24758099697E+01  0.31311551773E+01 -0.96910993547E+02  0.70668781965E+03  0.70000000000E+03 0. -1.
<mgrwt>
<rscale>  0 0.13988116E+04</rscale>
<asrwt>0</asrwt>
<pdfrwt beam="1">  1        2 0.11682400E+00 0.13988116E+04</pdfrwt>
<pdfrwt beam="2">  1       -2 0.85453593E-01 0.13988116E+04</pdfrwt>
<totfact> 0.42882951E+01</totfact>
</mgrwt>
</event>
<event>
 8    1  0.6876290E-010  0.2095269E+04  0.7818608E-02  0.8563330E-01
          2   -1    0    0  501    0  0.00000000000E+00  0.00000000000E+00  0.47202864941E+03  0.47202864942E+03  0.25500000000E-02 0.  1.
         -2   -1    0    0    0  501 -0.00000000000E+00 -0.00000000000E+00 -0.23251517119E+04  0.23251517119E+04  0.25500000000E-02 0. -1.
     200001    2    1    2    0    0 -0.74461892303E+02  0.32986688532E+03  0.10210722784E+02  0.77817824869E+03  0.70078555382E+03 0.  0.
    5000001    2    3    3    0    0 -0.18021914364E+03  0.10472148035E+03 -0.31853274927E+02  0.21813858091E+03  0.55895269709E+02 0.  0.
        -11    1    4    4    0    0 -0.30039925123E+02  0.23547601706E+02  0.10742678336E+02  0.39652134692E+02  0.51100000000E-03 0. -1.
     200002    1    4    4    0    0 -0.15017921852E+03  0.81173878645E+02 -0.42595953263E+02  0.17848644622E+03  0.30000000000E+02 0. -1.
     200000    1    3    3    0    0  0.10575725134E+03  0.22514540497E+03  0.42063997711E+02  0.56003966778E+03  0.50000000000E+03 0.  1.
    -200001    1    1    2    0    0  0.74461892303E+02 -0.32986688532E+03 -0.18633337853E+04  0.20190021126E+04  0.70000000000E+03 0. -1.
<mgrwt>
<rscale>  0 0.20952692E+04</rscale>
<asrwt>0</asrwt>
<pdfrwt beam="1">  1        2 0.67432666E-01 0.20952692E+04</pdfrwt>
<pdfrwt beam="2">  1       -2 0.33216452E+00 0.20952692E+04</pdfrwt>
<totfact> 0.13372672E+00</totfact>
</mgrwt>
</event>
<event>
 8    1  0.6876290E-010  0.1492732E+04  0.7818608E-02  0.8889300E-01
          2   -1    0    0  501    0  0.00000000000E+00  0.00000000000E+00  0.19160733108E+04  0.19160733108E+04  0.25500000000E-02 0. -1.
         -2   -1    0    0    0  501 -0.00000000000E+00 -0.00000000000E+00 -0.29073128036E+03  0.29073128038E+03  0.25500000000E-02 0.  1.
     200001    2    1    2    0    0 -0.17091544177E+03  0.89681507578E+02  0.10724658532E+04  0.12941562863E+04  0.69814226778E+03 0.  0.
    5000001    2    3    3    0    0 -0.52318087130E+02  0.23471365046E+02  0.23121656851E+03  0.30615351582E+03  0.19230389095E+03 0.  0.
        -11    1    4    4    0    0 -0.62077388922E+02  0.31668363644E+02  0.25593038566E+03  0.26524865650E+03  0.51100000000E-03 0. -1.
     200002    1    4    4    0    0  0.97593017917E+01 -0.81969985984E+01 -0.24713817149E+02  0.40904859315E+02  0.30000000000E+02 0. -1.
     200000    1    3    3    0    0 -0.11859735464E+03  0.66210142532E+02  0.84124928466E+03  0.98800277046E+03  0.50000000000E+03 0. -1.
    -200001    1    1    2    0    0  0.17091544177E+03 -0.89681507578E+02  0.55287617725E+03  0.91264830488E+03  0.70000000000E+03 0.  1.
<mgrwt>
<rscale>  0 0.14927323E+04</rscale>
<asrwt>0</asrwt>
<pdfrwt beam="1">  1        2 0.27372476E+00 0.14927323E+04</pdfrwt>
<pdfrwt beam="2">  1       -2 0.41533040E-01 0.14927323E+04</pdfrwt>
<totfact> 0.47124817E+01</totfact>
</mgrwt>
</event>
<event>
 8    1  0.6876290E-010  0.2175205E+04  0.7818608E-02  0.8528820E-01
          2   -1    0    0  501    0  0.00000000000E+00  0.00000000000E+00  0.94548925765E+03  0.94548925765E+03  0.25500000000E-02 0.  1.
         -2   -1    0    0    0  501 -0.00000000000E+00 -0.00000000000E+00 -0.12510760776E+04  0.12510760776E+04  0.25500000000E-02 0. -1.
     200001    2    1    2    0    0  0.40706245428E+02 -0.21646837137E+03  0.65677702273E+03  0.98633406813E+03  0.70212768223E+03 0.  0.
    5000001    2    3    3    0    0 -0.37950649772E+02 -0.64123968855E+02  0.25149500959E+03  0.32026407608E+03  0.18375854641E+03 0.  0.
        -11    1    4    4    0    0  0.23791137612E+02 -0.94124218286E+02  0.58759692248E+02  0.11348166429E+03  0.51100000000E-03 0. -1.
     200002    1    4    4    0    0 -0.61741787384E+02  0.30000249431E+02  0.19273531734E+03  0.20678241179E+03  0.30000000000E+02 0. -1.
     200000    1    3    3    0    0  0.78656895200E+02 -0.15234440251E+03  0.40528201314E+03  0.66606999205E+03  0.50000000000E+03 0.  1.
    -200001    1    1    2    0    0 -0.40706245428E+02  0.21646837137E+03 -0.96236384269E+03  0.12102312671E+04  0.70000000000E+03 0. -1.
<mgrwt>
<rscale>  0 0.21752048E+04</rscale>
<asrwt>0</asrwt>
<pdfrwt beam="1">  1        2 0.13506989E+00 0.21752048E+04</pdfrwt>
<pdfrwt beam="2">  1       -2 0.17872515E+00 0.21752048E+04</pdfrwt>
<totfact> 0.51720332E+00</totfact>
</mgrwt>
</event>
<event>
 8    1  0.6876290E-010  0.2046401E+04  0.7818608E-02  0.8585229E-01
         -2   -1    0    0    0  501 -0.00000000000E+00  0.00000000000E+00  0.64967381657E+03  0.64967381657E+03  0.25500000000E-02 0. -1.
          2   -1    0    0  501    0  0.00000000000E+00 -0.00000000000E+00 -0.16114843913E+04  0.16114843913E+04  0.25500000000E-02 0.  1.
     200001    2    1    2    0    0 -0.70602634458E+03 -0.21949899696E+03 -0.39653490335E+03  0.10966026731E+04  0.70614763622E+03 0.  0.
    5000001    2    3    3    0    0 -0.14723868664E+03 -0.91988411134E+02 -0.21617121700E+02  0.24862511492E+03  0.17665233989E+03 0.  0.
        -11    1    4    4    0    0  0.19529755273E+02 -0.47725337716E+02  0.37527555960E+02  0.63776458492E+02  0.51100000000E-03 0. -1.
     200002    1    4    4    0    0 -0.16676844191E+03 -0.44263073418E+02 -0.59144677660E+02  0.18484865643E+03  0.30000000000E+02 0. -1.
     200000    1    3    3    0    0 -0.55878765793E+03 -0.12751058582E+03 -0.37491778165E+03  0.84797755817E+03  0.50000000000E+03 0. -1.
    -200001    1    1    2    0    0  0.70602634458E+03  0.21949899696E+03 -0.56527567134E+03  0.11645555347E+04  0.70000000000E+03 0.  1.
<mgrwt>
<rscale>  0 0.20464010E+04</rscale>
<asrwt>0</asrwt>
<pdfrwt beam="1">  1        2 0.23021205E+00 0.20464010E+04</pdfrwt>
<pdfrwt beam="2">  1       -2 0.92810546E-01 0.20464010E+04</pdfrwt>
<totfact> 0.11673688E+01</totfact>
</mgrwt>
</event>
<event>
 8    1  0.6876290E-010  0.2214509E+04  0.7818608E-02  0.8512413E-01
          2   -1    0    0  501    0  0.00000000000E+00  0.00000000000E+00  0.26018070326E+04  0.26018070326E+04  0.25500000000E-02 0.  1.
         -2   -1    0    0    0  501 -0.00000000000E+00 -0.00000000000E+00 -0.47121563518E+03  0.47121563518E+03  0.25500000000E-02 0. -1.
     200001    2    1    2    0    0 -0.84917251223E+03 -0.12265747105E+03  0.10777225497E+04  0.15450594414E+04  0.69970277440E+03 0.  0.
    5000001    2    3    3    0    0 -0.26289797836E+03 -0.78743205161E+02  0.43278841866E+03  0.53928296263E+03  0.16794183240E+03 0.  0.
        -11    1    4    4    0    0  0.33277324608E+01  0.32644313469E+01 -0.12410363727E+02  0.13256977161E+02  0.51100000000E-03 0. -1.
     200002    1    4    4    0    0 -0.26622571082E+03 -0.82007636508E+02  0.44519878239E+03  0.52602598547E+03  0.30000000000E+02 0. -1.
     200000    1    3    3    0    0 -0.58627453387E+03 -0.43914265890E+02  0.64493413105E+03  0.10057764788E+04  0.50000000000E+03 0.  1.
    -200001    1    1    2    0    0  0.84917251223E+03  0.12265747105E+03  0.10528688477E+04  0.15279632264E+04  0.70000000000E+03 0. -1.
<mgrwt>
<rscale>  0 0.22145087E+04</rscale>
<asrwt>0</asrwt>
<pdfrwt beam="1">  1        2 0.37168672E+00 0.22145087E+04</pdfrwt>
<pdfrwt beam="2">  1       -2 0.67316519E-01 0.22145087E+04</pdfrwt>
<totfact> 0.72238497E+00</totfact>
</mgrwt>
</event>
<event>
 8    1  0.6876290E-010  0.1610834E+04  0.7818608E-02  0.8813920E-01
          2   -1    0    0  501    0  0.00000000000E+00  0.00000000000E+00  0.17468387721E+04  0.17468387721E+04  0.25500000000E-02 0.  1.
         -2   -1    0    0    0  501 -0.00000000000E+00 -0.00000000000E+00 -0.37135454155E+03  0.37135454156E+03  0.25500000000E-02 0. -1.
     200001    2    1    2    0    0  0.17295763120E+03  0.29403888028E+03  0.41576240550E+03  0.88229720688E+03  0.69944033207E+03 0.  0.
    5000001    2    3    3    0    0  0.14201640406E+02  0.20273932460E+03  0.97940269042E+02  0.26217626391E+03  0.13356338095E+03 0.  0.
        -11    1    4    4    0    0  0.57469005534E+02  0.99267027721E+02  0.73866915677E+01  0.11493995216E+03  0.51100000000E-03 0. -1.
     200002    1    4    4    0    0 -0.43267365128E+02  0.10347229687E+03  0.90553577474E+02  0.14723631175E+03  0.30000000000E+02 0. -1.
     200000    1    3    3    0    0  0.15875599080E+03  0.91299555688E+02  0.31782213646E+03  0.62012094297E+03  0.50000000000E+03 0. -1.
    -200001    1    1    2    0    0 -0.17295763120E+03 -0.29403888028E+03  0.95972182507E+03  0.12358961068E+04  0.70000000000E+03 0.  1.
<mgrwt>
<rscale>  0 0.16108340E+04</rscale>
<asrwt>0</asrwt>
<pdfrwt beam="1">  1        2 0.24954840E+00 0.16108340E+04</pdfrwt>
<pdfrwt beam="2">  1       -2 0.53050648E-01 0.16108340E+04</pdfrwt>
<totfact> 0.34878988E+01</totfact>
</mgrwt>
</event>
<event>
 8    1  0.6876290E-010  0.1483265E+04  0.7818608E-02  0.8895658E-01
         -2   -1    0    0    0  501 -0.00000000000E+00  0.00000000000E+00  0.26325806484E+03  0.26325806485E+03  0.25500000000E-02 0. -1.
          2   -1    0    0  501    0  0.00000000000E+00 -0.00000000000E+00 -0.20892771955E+04  0.20892771955E+04  0.25500000000E-02 0.  1.
     200001    2    1    2    0    0 -0.37860018229E+02  0.23310227288E+03 -0.82131669365E+03  0.11054598667E+04  0.70122061788E+03 0.  0.
    5000001    2    3    3    0    0  0.67188288689E+01  0.77942178169E+02 -0.19658326290E+03  0.28915490643E+03  0.19709250332E+03 0.  0.
        -11    1    4    4    0    0 -0.47144066401E+02  0.12326980234E+03 -0.98137132072E+02  0.16446550963E+03  0.51100000000E-03 0. -1.
     200002    1    4    4    0    0  0.53862895270E+02 -0.45327624175E+02 -0.98446130825E+02  0.12468939680E+03  0.30000000000E+02 0. -1.
     200000    1    3    3    0    0 -0.44578847098E+02  0.15516009471E+03 -0.62473343076E+03  0.81630496023E+03  0.50000000000E+03 0.  1.
    -200001    1    1    2    0    0  0.37860018229E+02 -0.23310227288E+03 -0.10047024370E+04  0.12470753937E+04  0.70000000000E+03 0.  1.
<mgrwt>
<rscale>  0 0.14832654E+04</rscale>
<asrwt>0</asrwt>
<pdfrwt beam="1">  1        2 0.29846816E+00 0.14832654E+04</pdfrwt>
<pdfrwt beam="2">  1       -2 0.37608296E-01 0.14832654E+04</pdfrwt>
<totfact> 0.46627940E+01</totfact>
</mgrwt>
</event>
<event>
 8    1  0.6876290E-010  0.1811634E+04  0.7818608E-02  0.8700137E-01
         -2   -1    0    0    0  501 -0.00000000000E+00  0.00000000000E+00  0.29184197333E+03  0.29184197334E+03  0.25500000000E-02 0. -1.
          2   -1    0    0  501    0  0.00000000000E+00 -0.00000000000E+00 -0.28114676684E+04  0.28114676684E+04  0.25500000000E-02 0.  1.
     200001    2    1    2    0    0 -0.46417863838E+03  0.88056172866E+02 -0.18206320360E+04  0.20070396780E+04  0.70020822679E+03 0.  0.
    5000001    2    3    3    0    0 -0.17878827679E+03  0.27356084192E+02 -0.48426611173E+03  0.55067226465E+03  0.18977005252E+03 0.  0.
        -11    1    4    4    0    0 -0.20295166013E+03  0.38036616584E+02 -0.31423261181E+03  0.37600305168E+03  0.51100000000E-03 0. -1.
     200002    1    4    4    0    0  0.24163383336E+02 -0.10680532392E+02 -0.17003349991E+03  0.17466921297E+03  0.30000000000E+02 0. -1.
     200000    1    3    3    0    0 -0.28539036159E+03  0.60700088674E+02 -0.13363659242E+04  0.14563674134E+04  0.50000000000E+03 0.  1.
    -200001    1    1    2    0    0  0.46417863838E+03 -0.88056172866E+02 -0.69899365915E+03  0.10962699638E+04  0.70000000000E+03 0. -1.
<mgrwt>
<rscale>  0 0.18116338E+04</rscale>
<asrwt>0</asrwt>
<pdfrwt beam="1">  1        2 0.40163822E+00 0.18116338E+04</pdfrwt>
<pdfrwt beam="2">  1       -2 0.41691712E-01 0.18116338E+04</pdfrwt>
<totfact> 0.15485105E+01</totfact>
</mgrwt>
</event>
<event>
 8    1  0.6876290E-010  0.1724818E+04  0.7818608E-02  0.8747335E-01
          2   -1    0    0  501    0  0.00000000000E+00  0.00000000000E+00  0.63740514358E+03  0.63740514359E+03  0.25500000000E-02 0.  1.
         -2   -1    0    0    0  501 -0.00000000000E+00 -0.00000000000E+00 -0.11668396446E+04  0.11668396446E+04  0.25500000000E-02 0. -1.
     200001    2    1    2    0    0  0.43126075223E+03 -0.21784258020E+03 -0.41259161823E+03  0.94570330086E+03  0.70048673339E+03 0.  0.
    5000001    2    3    3    0    0  0.16407124941E+03 -0.89930537351E+02 -0.11912783503E+03  0.29464822395E+03  0.19395684666E+03 0.  0.
        -11    1    4    4    0    0  0.89076770363E+02  0.51769374560E+02 -0.69059475934E+02  0.12403205383E+03  0.51100000000E-03 0. -1.
     200002    1    4    4    0    0  0.74994479045E+02 -0.14169991191E+03 -0.50068359101E+02  0.17061617012E+03  0.30000000000E+02 0. -1.
     200000    1    3    3    0    0  0.26718950282E+03 -0.12791204285E+03 -0.29346378320E+03  0.65105507691E+03  0.50000000000E+03 0. -1.
    -200001    1    1    2    0    0 -0.43126075223E+03  0.21784258020E+03 -0.11684288276E+03  0.85854148730E+03  0.70000000000E+03 0.  1.
<mgrwt>
<rscale>  0 0.17248184E+04</rscale>
<asrwt>0</asrwt>
<pdfrwt beam="1">  1        2 0.91057879E-01 0.17248184E+04</pdfrwt>
<pdfrwt beam="2">  1       -2 0.16669138E+00 0.17248184E+04</pdfrwt>
<totfact> 0.10810538E+01</totfact>
</mgrwt>
</event>
<event>
 8    1  0.6876290E-010  0.2324583E+04  0.7818608E-02  0.8468291E-01
          2   -1    0    0  501    0  0.00000000000E+00  0.00000000000E+00  0.20839841621E+04  0.20839841621E+04  0.25500000000E-02 0.  1.
         -2   -1    0    0    0  501 -0.00000000000E+00 -0.00000000000E+00 -0.64823996938E+03  0.64823996939E+03  0.25500000000E-02 0. -1.
     200001    2    1    2    0    0 -0.66087603336E+03  0.54657920888E+03  0.30169279775E+03  0.11474280785E+04  0.70004763277E+03 0.  0.
    5000001    2    3    3    0    0 -0.12459446326E+03  0.39944682460E+02  0.12719723493E+03  0.23928427537E+03  0.15478523809E+03 0.  0.
        -11    1    4    4    0    0 -0.78912067547E+02 -0.15523656301E+02  0.13893673929E+03  0.16053509222E+03  0.51100000000E-03 0. -1.
     200002    1    4    4    0    0 -0.45682395715E+02  0.55468338761E+02 -0.11739504361E+02  0.78749183143E+02  0.30000000000E+02 0. -1.
     200000    1    3    3    0    0 -0.53628157010E+03  0.50663452642E+03  0.17449556282E+03  0.90814380317E+03  0.50000000000E+03 0. -1.
    -200001    1    1    2    0    0  0.66087603336E+03 -0.54657920888E+03  0.11340513950E+04  0.15847960530E+04  0.70000000000E+03 0.  1.
<mgrwt>
<rscale>  0 0.23245833E+04</rscale>
<asrwt>0</asrwt>
<pdfrwt beam="1">  1        2 0.29771202E+00 0.23245833E+04</pdfrwt>
<pdfrwt beam="2">  1       -2 0.92605710E-01 0.23245833E+04</pdfrwt>
<totfact> 0.65322548E+00</totfact>
</mgrwt>
</event>
<event>
 8    1  0.6876290E-010  0.2320286E+04  0.7818608E-02  0.8469965E-01
         -2   -1    0    0    0  501 -0.00000000000E+00  0.00000000000E+00  0.56850869339E+03  0.56850869340E+03  0.25500000000E-02 0. -1.
          2   -1    0    0  501    0  0.00000000000E+00 -0.00000000000E+00 -0.23674788746E+04  0.23674788746E+04  0.25500000000E-02 0.  1.
     200001    2    1    2    0    0 -0.34922257599E+03 -0.83925064904E+03 -0.11181943045E+04  0.16019134119E+04  0.69962133853E+03 0.  0.
    5000001    2    3    3    0    0 -0.18790379749E+02 -0.18775339771E+03 -0.17098110360E+03  0.30543859433E+03  0.16868248396E+03 0.  0.
        -11    1    4    4    0    0  0.45703258375E+02 -0.70854204169E+01  0.70465069651E+00  0.46254594814E+02  0.51100000000E-03 0. -1.
     200002    1    4    4    0    0 -0.64493638124E+02 -0.18066797729E+03 -0.17168575429E+03  0.25918399952E+03  0.30000000000E+02 0. -1.
     200000    1    3    3    0    0 -0.33043219624E+03 -0.65149725133E+03 -0.94721320088E+03  0.12964748176E+04  0.50000000000E+03 0. -1.
    -200001    1    1    2    0    0  0.34922257599E+03  0.83925064904E+03 -0.68077587673E+03  0.13340741560E+04  0.70000000000E+03 0.  1.
<mgrwt>
<rscale>  0 0.23202865E+04</rscale>
<asrwt>0</asrwt>
<pdfrwt beam="1">  1        2 0.33821126E+00 0.23202865E+04</pdfrwt>
<pdfrwt beam="2">  1       -2 0.81215529E-01 0.23202865E+04</pdfrwt>
<totfact> 0.62882564E+00</totfact>
</mgrwt>
</event>
<event>
 8    1  0.6876290E-010  0.1438274E+04  0.7818608E-02  0.8926571E-01
          2   -1    0    0  501    0  0.00000000000E+00  0.00000000000E+00  0.63946012685E+03  0.63946012686E+03  0.25500000000E-02 0.  1.
         -2   -1    0    0    0  501 -0.00000000000E+00 -0.00000000000E+00 -0.80874109602E+03  0.80874109602E+03  0.25500000000E-02 0. -1.
     200001    2    1    2    0    0  0.12109329136E+03 -0.60337120185E+02 -0.17802228208E+03  0.73519311364E+03  0.70036621002E+03 0.  0.
    5000001    2    3    3    0    0  0.13257377130E+03 -0.99428552266E+02 -0.85822601926E+02  0.22513358525E+03  0.12592763939E+03 0.  0.
        -11    1    4    4    0    0 -0.50073614014E+00 -0.22270195098E+02  0.24774192691E+02  0.33316256544E+02  0.51100000000E-03 0. -1.
     200002    1    4    4    0    0  0.13307450744E+03 -0.77158357168E+02 -0.11059679462E+03  0.19181732871E+03  0.30000000000E+02 0. -1.
     200000    1    3    3    0    0 -0.11480479944E+02  0.39091432081E+02 -0.92199680157E+02  0.51005952839E+03  0.50000000000E+03 0. -1.
    -200001    1    1    2    0    0 -0.12109329136E+03  0.60337120185E+02  0.87413129176E+01  0.71300810924E+03  0.70000000000E+03 0. -1.
<mgrwt>
<rscale>  0 0.14382735E+04</rscale>
<asrwt>0</asrwt>
<pdfrwt beam="1">  1        2 0.91351446E-01 0.14382735E+04</pdfrwt>
<pdfrwt beam="2">  1       -2 0.11553444E+00 0.14382735E+04</pdfrwt>
<totfact> 0.28497810E+01</totfact>
</mgrwt>
</event>
<event>
 8    1  0.6876290E-010  0.1646490E+04  0.7818608E-02  0.8792486E-01
          2   -1    0    0  501    0  0.00000000000E+00  0.00000000000E+00  0.17982211313E+04  0.17982211313E+04  0.25500000000E-02 0.  1.
         -2   -1    0    0    0  501 -0.00000000000E+00 -0.00000000000E+00 -0.37689022745E+03  0.37689022746E+03  0.25500000000E-02 0. -1.
     200001    2    1    2    0    0 -0.60017479385E+02 -0.39264615610E+03  0.93977661678E+03  0.12372053757E+04  0.69980279392E+03 0.  0.
    5000001    2    3    3    0    0  0.28517410330E+00 -0.90261452361E+02  0.29255806271E+03  0.36315459005E+03  0.19530444213E+03 0.  0.
        -11    1    4    4    0    0  0.67536719499E+02 -0.56203355840E+02  0.37550840209E+02  0.95551511181E+02  0.51100000000E-03 0. -1.
     200002    1    4    4    0    0 -0.67251545395E+02 -0.34058096521E+02  0.25500722250E+03  0.26760307887E+03  0.30000000000E+02 0. -1.
     200000    1    3    3    0    0 -0.60302653488E+02 -0.30238470374E+03  0.64721855408E+03  0.87405078561E+03  0.50000000000E+03 0. -1.
    -200001    1    1    2    0    0  0.60017479385E+02  0.39264615610E+03  0.48155428705E+03  0.93790598309E+03  0.70000000000E+03 0. -1.
<mgrwt>
<rscale>  0 0.16464896E+04</rscale>
<asrwt>0</asrwt>
<pdfrwt beam="1">  1        2 0.25688873E+00 0.16464896E+04</pdfrwt>
<pdfrwt beam="2">  1       -2 0.53841462E-01 0.16464896E+04</pdfrwt>
<totfact> 0.31731737E+01</totfact>
</mgrwt>
</event>
<event>
 8    1  0.6876290E-010  0.1710858E+04  0.7818608E-02  0.8755196E-01
         -2   -1    0    0    0  501 -0.00000000000E+00  0.00000000000E+00  0.15118558341E+04  0.15118558341E+04  0.25500000000E-02 0. -1.
          2   -1    0    0  501    0  0.00000000000E+00 -0.00000000000E+00 -0.48401372768E+03  0.48401372769E+03  0.25500000000E-02 0.  1.
     200001    2    1    2    0    0 -0.29065005022E+03  0.28852498916E+03  0.19227136623E+03  0.83143726108E+03  0.69756398973E+03 0.  0.
    5000001    2    3    3    0    0 -0.66876433886E+02  0.15179061853E+03 -0.70984155824E+01  0.23267250812E+03  0.16301306465E+03 0.  0.
        -11    1    4    4    0    0 -0.55453675819E+01 -0.55397628329E+01  0.50995569996E+02  0.51594459328E+02  0.51100000000E-03 0. -1.
     200002    1    4    4    0    0 -0.61331066304E+02  0.15733038137E+03 -0.58093985578E+02  0.18107804879E+03  0.30000000000E+02 0. -1.
     200000    1    3    3    0    0 -0.22377361634E+03  0.13673437063E+03  0.19936978181E+03  0.59876475295E+03  0.50000000000E+03 0.  1.
    -200001    1    1    2    0    0  0.29065005022E+03 -0.28852498916E+03  0.83557074017E+03  0.11644323007E+04  0.70000000000E+03 0. -1.
<mgrwt>
<rscale>  0 0.17108582E+04</rscale>
<asrwt>0</asrwt>
<pdfrwt beam="1">  1        2 0.69144816E-01 0.17108582E+04</pdfrwt>
<pdfrwt beam="2">  1       -2 0.21597941E+00 0.17108582E+04</pdfrwt>
<totfact> 0.69588421E+00</totfact>
</mgrwt>
</event>
<event>
 8    1  0.6876290E-010  0.1491327E+04  0.7818608E-02  0.8890241E-01
          2   -1    0    0  501    0  0.00000000000E+00  0.00000000000E+00  0.14560434773E+04  0.14560434773E+04  0.25500000000E-02 0.  1.
         -2   -1    0    0    0  501 -0.00000000000E+00 -0.00000000000E+00 -0.38186620746E+03  0.38186620747E+03  0.25500000000E-02 0. -1.
     200001    2    1    2    0    0 -0.49481212798E+02 -0.10254568234E+03  0.82042265020E+03  0.10846796971E+04  0.70033757067E+03 0.  0.
    5000001    2    3    3    0    0  0.11916585922E+02  0.45695088724E+02  0.16290173203E+03  0.24320553007E+03  0.17430407169E+03 0.  0.
        -11    1    4    4    0    0 -0.78502857345E+02  0.28152443647E+02  0.82619675838E+02  0.11739365200E+03  0.51100000000E-03 0. -1.
     200002    1    4    4    0    0  0.90419443267E+02  0.17542645076E+02  0.80282056191E+02  0.12581187807E+03  0.30000000000E+02 0. -1.
     200000    1    3    3    0    0 -0.61397798720E+02 -0.14824077106E+03  0.65752091817E+03  0.84147416700E+03  0.50000000000E+03 0.  1.
    -200001    1    1    2    0    0  0.49481212798E+02  0.10254568234E+03  0.25375461964E+03  0.75322998770E+03  0.70000000000E+03 0. -1.
<mgrwt>
<rscale>  0 0.14913267E+04</rscale>
<asrwt>0</asrwt>
<pdfrwt beam="1">  1        2 0.20800621E+00 0.14913267E+04</pdfrwt>
<pdfrwt beam="2">  1       -2 0.54552315E-01 0.14913267E+04</pdfrwt>
<totfact> 0.47244529E+01</totfact>
</mgrwt>
</event>
<event>
 8    1  0.6876290E-010  0.2095787E+04  0.7818608E-02  0.8563101E-01
          2   -1    0    0  501    0  0.00000000000E+00  0.00000000000E+00  0.30265725923E+04  0.30265725923E+04  0.25500000000E-02 0.  1.
         -2   -1    0    0    0  501 -0.00000000000E+00 -0.00000000000E+00 -0.36281343713E+03  0.36281343714E+03  0.25500000000E-02 0. -1.
     200001    2    1    2    0    0  0.27743181114E+03 -0.20865029358E+03  0.20337179608E+03  0.80791177785E+03  0.70061258803E+03 0.  0.
    5000001    2    3    3    0    0  0.93037693501E+02 -0.54784011688E+02  0.12625012791E+03  0.24789055055E+03  0.18399274417E+03 0.  0.
        -11    1    4    4    0    0  0.12177234999E+03 -0.75261571024E+02  0.13933075345E+03  0.19976453176E+03  0.51100000000E-03 0. -1.
     200002    1    4    4    0    0 -0.28734656485E+02  0.20477559336E+02 -0.13080625542E+02  0.48126018787E+02  0.30000000000E+02 0. -1.
     200000    1    3    3    0    0  0.18439411764E+03 -0.15386628189E+03  0.77121668173E+02  0.56002122730E+03  0.50000000000E+03 0. -1.
    -200001    1    1    2    0    0 -0.27743181114E+03  0.20865029358E+03  0.24603873591E+04  0.25814742516E+04  0.70000000000E+03 0.  1.
<mgrwt>
<rscale>  0 0.20957874E+04</rscale>
<asrwt>0</asrwt>
<pdfrwt beam="1">  1        2 0.43236749E+00 0.20957874E+04</pdfrwt>
<pdfrwt beam="2">  1       -2 0.51830493E-01 0.20957874E+04</pdfrwt>
<totfact> 0.74197318E+00</totfact>
</mgrwt>
</event>
<event>
 8    1  0.6876290E-010  0.2157052E+04  0.7818608E-02  0.8536520E-01
         -2   -1    0    0    0  501 -0.00000000000E+00  0.00000000000E+00  0.44670322444E+03  0.44670322445E+03  0.25500000000E-02 0. -1.
          2   -1    0    0  501    0  0.00000000000E+00 -0.00000000000E+00 -0.26040073765E+04  0.26040073765E+04  0.25500000000E-02 0.  1.
     200001    2    1    2    0    0 -0.72388841199E+03 -0.33355774320E+03 -0.13543397967E+04  0.17202870003E+04  0.69991133555E+03 0.  0.
    5000001    2    3    3    0    0 -0.15915821791E+03 -0.14924285844E+03 -0.52405067222E+03  0.58350549142E+03  0.13507324804E+03 0.  0.
        -11    1    4    4    0    0 -0.11435457872E+03 -0.16251784854E+03 -0.43966963273E+03  0.48249187217E+03  0.51100000000E-03 0. -1.
     200002    1    4    4    0    0 -0.44803639196E+02  0.13274990101E+02 -0.84381039488E+02  0.10101361924E+03  0.30000000000E+02 0. -1.
     200000    1    3    3    0    0 -0.56473019408E+03 -0.18431488476E+03 -0.83028912444E+03  0.11367815089E+04  0.50000000000E+03 0.  1.
    -200001    1    1    2    0    0  0.72388841199E+03  0.33355774320E+03 -0.80296435541E+03  0.13304236006E+04  0.70000000000E+03 0. -1.
<mgrwt>
<rscale>  0 0.21570521E+04</rscale>
<asrwt>0</asrwt>
<pdfrwt beam="1">  1        2 0.37200105E+00 0.21570521E+04</pdfrwt>
<pdfrwt beam="2">  1       -2 0.63814748E-01 0.21570521E+04</pdfrwt>
<totfact> 0.81208733E+00</totfact>
</mgrwt>
</event>
<event>
 8    1  0.6876290E-010  0.1516657E+04  0.7818608E-02  0.8873451E-01
          2   -1    0    0  501    0  0.00000000000E+00  0.00000000000E+00  0.10448944862E+04  0.10448944862E+04  0.25500000000E-02 0.  1.
         -2   -1    0    0    0  501 -0.00000000000E+00 -0.00000000000E+00 -0.55035455935E+03  0.55035455936E+03  0.25500000000E-02 0. -1.
     200001    2    1    2    0    0 -0.20754682376E+03  0.81323188834E+02  0.49622400510E+02  0.73638889957E+03  0.70008362620E+03 0.  0.
    5000001    2    3    3    0    0 -0.31274390273E+02  0.37617364359E+02  0.87018042306E+02  0.20311542008E+03  0.17689143732E+03 0.  0.
        -11    1    4    4    0    0  0.23195928116E+02 -0.37868784932E+02 -0.27720771639E+02  0.52350139770E+02  0.51100000000E-03 0. -1.
     200002    1    4    4    0    0 -0.54470318388E+02  0.75486149291E+02  0.11473881395E+03  0.15076528031E+03  0.30000000000E+02 0. -1.
     200000    1    3    3    0    0 -0.17627243349E+03  0.43705824475E+02 -0.37395641796E+02  0.53327347949E+03  0.50000000000E+03 0. -1.
    -200001    1    1    2    0    0  0.20754682376E+03 -0.81323188834E+02  0.44491752629E+03  0.85886014595E+03  0.70000000000E+03 0.  1.
<mgrwt>
<rscale>  0 0.15166574E+04</rscale>
<asrwt>0</asrwt>
<pdfrwt beam="1">  1        2 0.14927064E+00 0.15166574E+04</pdfrwt>
<pdfrwt beam="2">  1       -2 0.78622081E-01 0.15166574E+04</pdfrwt>
<totfact> 0.36640304E+01</totfact>
</mgrwt>
</event>
<event>
 8    1  0.6876290E-010  0.1440382E+04  0.7818608E-02  0.8925096E-01
          2   -1    0    0  501    0  0.00000000000E+00  0.00000000000E+00  0.92548092856E+03  0.92548092856E+03  0.25500000000E-02 0.  1.
         -2   -1    0    0    0  501 -0.00000000000E+00 -0.00000000000E+00 -0.56043823268E+03  0.56043823268E+03  0.25500000000E-02 0. -1.
     200001    2    1    2    0    0 -0.20741749374E+02 -0.12197179914E+03  0.30227600144E+03  0.77230372007E+03  0.69983920655E+03 0.  0.
    5000001    2    3    3    0    0  0.53581534620E+02 -0.99761445750E+02  0.13384053793E+03  0.23902353507E+03  0.16246733153E+03 0.  0.
        -11    1    4    4    0    0  0.87547549292E+02 -0.11961399850E+03  0.10623596020E+03  0.18236820244E+03  0.51100000000E-03 0. -1.
     200002    1    4    4    0    0 -0.33966014672E+02  0.19852552747E+02  0.27604577729E+02  0.56655332625E+02  0.30000000000E+02 0. -1.
     200000    1    3    3    0    0 -0.74323283994E+02 -0.22210353395E+02  0.16843546352E+03  0.53328018500E+03  0.50000000000E+03 0.  1.
    -200001    1    1    2    0    0  0.20741749374E+02  0.12197179914E+03  0.62766694434E+02  0.71361544118E+03  0.70000000000E+03 0. -1.
<mgrwt>
<rscale>  0 0.14403817E+04</rscale>
<asrwt>0</asrwt>
<pdfrwt beam="1">  1        2 0.13221156E+00 0.14403817E+04</pdfrwt>
<pdfrwt beam="2">  1       -2 0.80062604E-01 0.14403817E+04</pdfrwt>
<totfact> 0.41995426E+01</totfact>
</mgrwt>
</event>
<event>
 8    1  0.6876290E-010  0.2966629E+04  0.7818608E-02  0.8253325E-01
         -2   -1    0    0    0  501 -0.00000000000E+00  0.00000000000E+00  0.64476123647E+03  0.64476123648E+03  0.25500000000E-02 0. -1.
          2   -1    0    0  501    0  0.00000000000E+00 -0.00000000000E+00 -0.34124588446E+04  0.34124588446E+04  0.25500000000E-02 0.  1.
     200001    2    1    2    0    0  0.23448924224E+03 -0.52330025064E+03 -0.29907719553E+04  0.31252380418E+04  0.70254364440E+03 0.  0.
    5000001    2    3    3    0    0  0.77478201762E+02 -0.10507305946E+03 -0.60798250664E+03  0.64990937536E+03  0.18893450778E+03 0.  0.
        -11    1    4    4    0    0  0.13966009685E+02  0.50304177467E+02 -0.21999843912E+03  0.22610810006E+03  0.51100000000E-03 0. -1.
     200002    1    4    4    0    0  0.63512192077E+02 -0.15537723692E+03 -0.38798406752E+03  0.42380127530E+03  0.30000000000E+02 0. -1.
     200000    1    3    3    0    0  0.15701104048E+03 -0.41822719119E+03 -0.23827894487E+04  0.24753286665E+04  0.50000000000E+03 0.  1.
    -200001    1    1    2    0    0 -0.23448924224E+03  0.52330025064E+03  0.22307434723E+03  0.93198203923E+03  0.70000000000E+03 0. -1.
<mgrwt>
<rscale>  0 0.29666285E+04</rscale>
<asrwt>0</asrwt>
<pdfrwt beam="1">  1        2 0.48749411E+00 0.29666285E+04</pdfrwt>
<pdfrwt beam="2">  1       -2 0.92108750E-01 0.29666285E+04</pdfrwt>
<totfact> 0.11752368E+00</totfact>
</mgrwt>
</event>
<event>
 8    1  0.6876290E-010  0.2005362E+04  0.7818608E-02  0.8604118E-01
         -2   -1    0    0    0  501 -0.00000000000E+00  0.00000000000E+00  0.48832554731E+03  0.48832554731E+03  0.25500000000E-02 0. -1.
          2   -1    0    0  501    0  0.00000000000E+00 -0.00000000000E+00 -0.20588088611E+04  0.20588088611E+04  0.25500000000E-02 0.  1.
     200001    2    1    2    0    0 -0.48394669756E+03 -0.52026454756E+03 -0.65211903082E+03  0.11913053035E+04  0.69933503434E+03 0.  0.
    5000001    2    3    3    0    0  0.11967054726E+02 -0.60835215301E+02 -0.19350182041E+02  0.13897352262E+03  0.12286202272E+03 0.  0.
        -11    1    4    4    0    0 -0.34834567924E+02 -0.47040343101E+02  0.27786287088E+02  0.64794434576E+02  0.51100000000E-03 0. -1.
     200002    1    4    4    0    0  0.46801622651E+02 -0.13794872200E+02 -0.47136469130E+02  0.74179088049E+02  0.30000000000E+02 0. -1.
     200000    1    3    3    0    0 -0.49591375228E+03 -0.45942933226E+03 -0.63276884878E+03  0.10523317809E+04  0.50000000000E+03 0.  1.
    -200001    1    1    2    0    0  0.48394669756E+03  0.52026454756E+03 -0.91836428300E+03  0.13558291049E+04  0.70000000000E+03 0.  1.
<mgrwt>
<rscale>  0 0.20053618E+04</rscale>
<asrwt>0</asrwt>
<pdfrwt beam="1">  1        2 0.29411555E+00 0.20053618E+04</pdfrwt>
<pdfrwt beam="2">  1       -2 0.69760793E-01 0.20053618E+04</pdfrwt>
<totfact> 0.13060744E+01</totfact>
</mgrwt>
</event>
<event>
 8    1  0.6876290E-010  0.1588559E+04  0.7818608E-02  0.8827607E-01
          2   -1    0    0  501    0  0.00000000000E+00  0.00000000000E+00  0.80570517642E+03  0.80570517642E+03  0.25500000000E-02 0.  1.
         -2   -1    0    0    0  501 -0.00000000000E+00 -0.00000000000E+00 -0.78301618603E+03  0.78301618603E+03  0.25500000000E-02 0. -1.
     200001    2    1    2    0    0  0.87037664178E+02 -0.93567919091E+02  0.36437760546E+03  0.79936616982E+03  0.69991765489E+03 0.  0.
    5000001    2    3    3    0    0  0.85334741827E+02 -0.42159165386E+02  0.17822265732E+03  0.26336297523E+03  0.16892994924E+03 0.  0.
        -11    1    4    4    0    0  0.47379531209E+02 -0.10407142453E+03  0.92495991607E+02  0.14707545629E+03  0.51100000000E-03 0. -1.
     200002    1    4    4    0    0  0.37955210618E+02  0.61912259141E+02  0.85726665713E+02  0.11628751893E+03  0.30000000000E+02 0. -1.
     200000    1    3    3    0    0  0.17029223507E+01 -0.51408753705E+02  0.18615494814E+03  0.53600319460E+03  0.50000000000E+03 0.  1.
    -200001    1    1    2    0    0 -0.87037664178E+02  0.93567919091E+02 -0.34168861507E+03  0.78935519263E+03  0.70000000000E+03 0. -1.
<mgrwt>
<rscale>  0 0.15885593E+04</rscale>
<asrwt>0</asrwt>
<pdfrwt beam="1">  1        2 0.11510074E+00 0.15885593E+04</pdfrwt>
<pdfrwt beam="2">  1       -2 0.11185945E+00 0.15885593E+04</pdfrwt>
<totfact> 0.22856804E+01</totfact>
</mgrwt>
</event>
<event>
 8    1  0.6876290E-010  0.2140779E+04  0.7818608E-02  0.8543490E-01
         -2   -1    0    0    0  501 -0.00000000000E+00  0.00000000000E+00  0.10873319851E+04  0.10873319851E+04  0.25500000000E-02 0. -1.
          2   -1    0    0  501    0  0.00000000000E+00 -0.00000000000E+00 -0.10537107623E+04  0.10537107623E+04  0.25500000000E-02 0.  1.
     200001    2    1    2    0    0  0.78948192183E+02  0.24245138865E+03 -0.75187714637E+03  0.10584425531E+04  0.69997564385E+03 0.  0.
    5000001    2    3    3    0    0  0.22710520816E+01  0.14897234585E+03 -0.21364221280E+03  0.31391951180E+03  0.17522713057E+03 0.  0.
        -11    1    4    4    0    0 -0.71272289557E+02  0.68552662200E+02 -0.39878237735E+02  0.10662776655E+03  0.51100000000E-03 0. -1.
     200002    1    4    4    0    0  0.73543341638E+02  0.80419683652E+02 -0.17376397507E+03  0.20729174525E+03  0.30000000000E+02 0. -1.
     200000    1    3    3    0    0  0.76677140101E+02  0.93479042799E+02 -0.53823493357E+03  0.74452304126E+03  0.50000000000E+03 0.  1.
    -200001    1    1    2    0    0 -0.78948192183E+02 -0.24245138865E+03  0.78549836912E+03  0.10826001943E+04  0.70000000000E+03 0. -1.
<mgrwt>
<rscale>  0 0.21407788E+04</rscale>
<asrwt>0</asrwt>
<pdfrwt beam="1">  1        2 0.15053011E+00 0.21407788E+04</pdfrwt>
<pdfrwt beam="2">  1       -2 0.15533314E+00 0.21407788E+04</pdfrwt>
<totfact> 0.65562271E+00</totfact>
</mgrwt>
</event>
<event>
 8    1  0.6876290E-010  0.1454659E+04  0.7818608E-02  0.8915177E-01
          2   -1    0    0  501    0  0.00000000000E+00  0.00000000000E+00  0.42207420259E+04  0.42207420259E+04  0.25500000000E-02 0.  1.
         -2   -1    0    0    0  501 -0.00000000000E+00 -0.00000000000E+00 -0.12533539063E+03  0.12533539065E+03  0.25500000000E-02 0. -1.
     200001    2    1    2    0    0  0.69291750791E+02 -0.51139019917E+02  0.25793694195E+04  0.26740171946E+04  0.69986056392E+03 0.  0.
    5000001    2    3    3    0    0 -0.44338868858E+02 -0.87718616153E+02  0.90892005650E+03  0.92626118795E+03  0.14887453877E+03 0.  0.
        -11    1    4    4    0    0  0.32535050418E+01 -0.10760608989E+02  0.65405094763E+03  0.65414755071E+03  0.51100000000E-03 0. -1.
     200002    1    4    4    0    0 -0.47592373900E+02 -0.76958007164E+02  0.25486910887E+03  0.27211363725E+03  0.30000000000E+02 0. -1.
     200000    1    3    3    0    0  0.11363061965E+03  0.36579596235E+02  0.16704493630E+04  0.17477560067E+04  0.50000000000E+03 0. -1.
    -200001    1    1    2    0    0 -0.69291750791E+02  0.51139019917E+02  0.15160372158E+04  0.16720602220E+04  0.70000000000E+03 0. -1.
<mgrwt>
<rscale>  0 0.14546592E+04</rscale>
<asrwt>0</asrwt>
<pdfrwt beam="1">  1        2 0.60296302E+00 0.14546592E+04</pdfrwt>
<pdfrwt beam="2">  1       -2 0.17905059E-01 0.14546592E+04</pdfrwt>
<totfact> 0.10235956E+01</totfact>
</mgrwt>
</event>
<event>
 8    1  0.6876290E-010  0.1599861E+04  0.7818608E-02  0.8820634E-01
          2   -1    0    0  501    0  0.00000000000E+00  0.00000000000E+00  0.24296970544E+04  0.24296970544E+04  0.25500000000E-02 0.  1.
         -2   -1    0    0    0  501 -0.00000000000E+00 -0.00000000000E+00 -0.26336150580E+03  0.26336150581E+03  0.25500000000E-02 0. -1.
     200001    2    1    2    0    0 -0.28175447015E+02 -0.35809258204E+03  0.13286986078E+04  0.15438589267E+04  0.69931126256E+03 0.  0.
    5000001    2    3    3    0    0 -0.11615270505E+00 -0.19087683123E+03  0.60666314256E+03  0.64938497825E+03  0.13125053619E+03 0.  0.
        -11    1    4    4    0    0 -0.15413341681E+02 -0.10722414004E+03  0.49054764341E+03  0.50236597990E+03  0.51100000000E-03 0. -1.
     200002    1    4    4    0    0  0.15297188976E+02 -0.83652691185E+02  0.11611549915E+03  0.14701899835E+03  0.30000000000E+02 0. -1.
     200000    1    3    3    0    0 -0.28059294310E+02 -0.16721575081E+03  0.72203546524E+03  0.89447394841E+03  0.50000000000E+03 0.  1.
    -200001    1    1    2    0    0  0.28175447015E+02  0.35809258204E+03  0.83763694075E+03  0.11491996335E+04  0.70000000000E+03 0. -1.
<mgrwt>
<rscale>  0 0.15998608E+04</rscale>
<asrwt>0</asrwt>
<pdfrwt beam="1">  1        2 0.34709956E+00 0.15998608E+04</pdfrwt>
<pdfrwt beam="2">  1       -2 0.37623074E-01 0.15998608E+04</pdfrwt>
<totfact> 0.30764169E+01</totfact>
</mgrwt>
</event>
<event>
 8    1  0.6876290E-010  0.1952960E+04  0.7818608E-02  0.8628935E-01
          2   -1    0    0  501    0  0.00000000000E+00  0.00000000000E+00  0.19680650566E+04  0.19680650566E+04  0.25500000000E-02 0.  1.
         -2   -1    0    0    0  501 -0.00000000000E+00 -0.00000000000E+00 -0.48449263586E+03  0.48449263587E+03  0.25500000000E-02 0. -1.
     200001    2    1    2    0    0 -0.43113449877E+03  0.74242466121E+01  0.14046193681E+04  0.16266244869E+04  0.69786787924E+03 0.  0.
    5000001    2    3    3    0    0 -0.79421779356E+02 -0.49086032913E+02  0.32034758477E+03  0.38061463595E+03  0.18310562080E+03 0.  0.
        -11    1    4    4    0    0 -0.10944812942E+03 -0.47399237990E+02  0.31618486547E+03  0.33793261155E+03  0.51100000000E-03 0. -1.
     200002    1    4    4    0    0  0.30026350061E+02 -0.16867949230E+01  0.41627192971E+01  0.42682024402E+02  0.30000000000E+02 0. -1.
     200000    1    3    3    0    0 -0.35171271942E+03  0.56510279525E+02  0.10842717833E+04  0.12460098510E+04  0.50000000000E+03 0.  1.
    -200001    1    1    2    0    0  0.43113449877E+03 -0.74242466121E+01  0.78953052666E+02  0.82593320553E+03  0.70000000000E+03 0. -1.
<mgrwt>
<rscale>  0 0.19529598E+04</rscale>
<asrwt>0</asrwt>
<pdfrwt beam="1">  1        2 0.28115216E+00 0.19529598E+04</pdfrwt>
<pdfrwt beam="2">  1       -2 0.69213232E-01 0.19529598E+04</pdfrwt>
<totfact> 0.14859225E+01</totfact>
</mgrwt>
</event>
<event>
 8    1  0.6876290E-010  0.2357785E+04  0.7818608E-02  0.8455480E-01
         -2   -1    0    0    0  501 -0.00000000000E+00  0.00000000000E+00  0.12367994104E+04  0.12367994104E+04  0.25500000000E-02 0. -1.
          2   -1    0    0  501    0  0.00000000000E+00 -0.00000000000E+00 -0.11236964059E+04  0.11236964059E+04  0.25500000000E-02 0.  1.
     200001    2    1    2    0    0  0.44259362105E+03 -0.82610472510E+03 -0.89546110015E+02  0.11733122611E+04  0.70021784174E+03 0.  0.
    5000001    2    3    3    0    0 -0.23900609614E+02 -0.10531358038E+03  0.86061435998E+02  0.16435500142E+03  0.89128033603E+02 0.  0.
        -11    1    4    4    0    0  0.45428948372E+01 -0.10263068276E+02  0.55023009889E+02  0.56156033348E+02  0.51100000000E-03 0. -1.
     200002    1    4    4    0    0 -0.28443504451E+02 -0.95050512108E+02  0.31038426110E+02  0.10819896808E+03  0.30000000000E+02 0. -1.
     200000    1    3    3    0    0  0.46649423067E+03 -0.72079114471E+03 -0.17560754601E+03  0.10089572596E+04  0.50000000000E+03 0.  1.
    -200001    1    1    2    0    0 -0.44259362105E+03  0.82610472510E+03  0.20264911453E+03  0.11871835552E+04  0.70000000000E+03 0.  1.
<mgrwt>
<rscale>  0 0.23577846E+04</rscale>
<asrwt>0</asrwt>
<pdfrwt beam="1">  1        2 0.16052806E+00 0.23577846E+04</pdfrwt>
<pdfrwt beam="2">  1       -2 0.17668563E+00 0.23577846E+04</pdfrwt>
<totfact> 0.41026873E+00</totfact>
</mgrwt>
</event>
<event>
 8    1  0.6876290E-010  0.1509789E+04  0.7818608E-02  0.8877970E-01
          2   -1    0    0  501    0  0.00000000000E+00  0.00000000000E+00  0.15234040803E+04  0.15234040803E+04  0.25500000000E-02 0.  1.
         -2   -1    0    0    0  501 -0.00000000000E+00 -0.00000000000E+00 -0.37407366856E+03  0.37407366857E+03  0.25500000000E-02 0. -1.
     200001    2    1    2    0    0  0.57464496653E+02  0.10336342502E+03  0.24981794491E+03  0.75156813464E+03  0.69889876907E+03 0.  0.
    5000001    2    3    3    0    0 -0.88214241661E+01 -0.35889870556E+01  0.79690053629E+02  0.20863522798E+03  0.19258103581E+03 0.  0.
        -11    1    4    4    0    0 -0.92877813760E+02 -0.18545906124E+02  0.69694693695E+02  0.11759077027E+03  0.51100000000E-03 0. -1.
     200002    1    4    4    0    0  0.84056389594E+02  0.14956919068E+02  0.99953599340E+01  0.91044457711E+02  0.30000000000E+02 0. -1.
     200000    1    3    3    0    0  0.66285920819E+02  0.10695241207E+03  0.17012789128E+03  0.54293290666E+03  0.50000000000E+03 0.  1.
    -200001    1    1    2    0    0 -0.57464496653E+02 -0.10336342502E+03  0.89951246687E+03  0.11459096143E+04  0.70000000000E+03 0.  1.
<mgrwt>
<rscale>  0 0.15097885E+04</rscale>
<asrwt>0</asrwt>
<pdfrwt beam="1">  1        2 0.21762915E+00 0.15097885E+04</pdfrwt>
<pdfrwt beam="2">  1       -2 0.53439096E-01 0.15097885E+04</pdfrwt>
<totfact> 0.45327643E+01</totfact>
</mgrwt>
</event>
<event>
 8    1  0.6876290E-010  0.1490796E+04  0.7818608E-02  0.8890597E-01
         -2   -1    0    0    0  501 -0.00000000000E+00  0.00000000000E+00  0.36608235043E+03  0.36608235044E+03  0.25500000000E-02 0. -1.
          2   -1    0    0  501    0  0.00000000000E+00 -0.00000000000E+00 -0.15177410197E+04  0.15177410197E+04  0.25500000000E-02 0.  1.
     200001    2    1    2    0    0  0.25188426202E+03 -0.43479106524E+02 -0.57799767762E+03  0.94338568083E+03  0.70039925279E+03 0.  0.
    5000001    2    3    3    0    0  0.44423809784E+02  0.10891319388E+02 -0.21364866681E+03  0.28859855196E+03  0.18855045917E+03 0.  0.
        -11    1    4    4    0    0  0.50680122316E+01 -0.47540875252E+02 -0.20619476686E+03  0.21166506903E+03  0.51100000000E-03 0. -1.
     200002    1    4    4    0    0  0.39355797553E+02  0.58432194640E+02 -0.74538999480E+01  0.76933482931E+02  0.30000000000E+02 0. -1.
     200000    1    3    3    0    0  0.20746045223E+03 -0.54370425912E+02 -0.36434901081E+03  0.65478712887E+03  0.50000000000E+03 0.  1.
    -200001    1    1    2    0    0 -0.25188426202E+03  0.43479106524E+02 -0.57366099170E+03  0.94043768935E+03  0.70000000000E+03 0.  1.
<mgrwt>
<rscale>  0 0.14907960E+04</rscale>
<asrwt>0</asrwt>
<pdfrwt beam="1">  1        2 0.21682014E+00 0.14907960E+04</pdfrwt>
<pdfrwt beam="2">  1       -2 0.52297479E-01 0.14907960E+04</pdfrwt>
<totfact> 0.47787101E+01</totfact>
</mgrwt>
</event>
<event>
 8    1  0.6876290E-010  0.1968335E+04  0.7818608E-02  0.8621570E-01
         -2   -1    0    0    0  501 -0.00000000000E+00  0.00000000000E+00  0.13482906522E+04  0.13482906522E+04  0.25500000000E-02 0. -1.
          2   -1    0    0  501    0  0.00000000000E+00 -0.00000000000E+00 -0.71838044461E+03  0.71838044462E+03  0.25500000000E-02 0.  1.
     200001    2    1    2    0    0 -0.47115707073E+03  0.44827574087E+03  0.56074165664E+03  0.11086917580E+04  0.70130313252E+03 0.  0.
    5000001    2    3    3    0    0 -0.92462503786E+01  0.16541979723E+03  0.14770199675E+03  0.26372379920E+03  0.14242598064E+03 0.  0.
        -11    1    4    4    0    0  0.13722146397E+02 -0.22318904755E+02  0.10899218205E+02  0.28376465054E+02  0.51100000000E-03 0. -1.
     200002    1    4    4    0    0 -0.22968396776E+02  0.18773870198E+03  0.13680277854E+03  0.23534733414E+03  0.30000000000E+02 0. -1.
     200000    1    3    3    0    0 -0.46191082035E+03  0.28285594365E+03  0.41303965989E+03  0.84496795883E+03  0.50000000000E+03 0.  1.
    -200001    1    1    2    0    0  0.47115707073E+03 -0.44827574087E+03  0.69168550980E+02  0.95797933882E+03  0.70000000000E+03 0. -1.
<mgrwt>
<rscale>  0 0.19683350E+04</rscale>
<asrwt>0</asrwt>
<pdfrwt beam="1">  1        2 0.10262578E+00 0.19683350E+04</pdfrwt>
<pdfrwt beam="2">  1       -2 0.19261295E+00 0.19683350E+04</pdfrwt>
<totfact> 0.60610096E+00</totfact>
</mgrwt>
</event>
<event>
 8    1  0.6876290E-010  0.1729565E+04  0.7818608E-02  0.8744679E-01
         -2   -1    0    0    0  501 -0.00000000000E+00  0.00000000000E+00  0.59475120875E+03  0.59475120875E+03  0.25500000000E-02 0. -1.
          2   -1    0    0  501    0  0.00000000000E+00 -0.00000000000E+00 -0.12574151026E+04  0.12574151026E+04  0.25500000000E-02 0.  1.
     200001    2    1    2    0    0 -0.43432073397E+03  0.22800758728E+03 -0.47258583941E+03  0.97652276137E+03  0.69974092923E+03 0.  0.
    5000001    2    3    3    0    0 -0.12615211718E+03  0.66710675213E+02 -0.14971168181E+03  0.28715180763E+03  0.19919312763E+03 0.  0.
        -11    1    4    4    0    0 -0.67417529905E+02  0.11339980458E+02 -0.18259444817E+03  0.19497294940E+03  0.51100000000E-03 0. -1.
     200002    1    4    4    0    0 -0.58734587273E+02  0.55370694755E+02  0.32882766361E+02  0.92178858223E+02  0.30000000000E+02 0. -1.
     200000    1    3    3    0    0 -0.30816861679E+03  0.16129691207E+03 -0.32287415760E+03  0.68937095374E+03  0.50000000000E+03 0.  1.
    -200001    1    1    2    0    0  0.43432073397E+03 -0.22800758728E+03 -0.19007805441E+03  0.87564354996E+03  0.70000000000E+03 0. -1.
<mgrwt>
<rscale>  0 0.17295654E+04</rscale>
<asrwt>0</asrwt>
<pdfrwt beam="1">  1        2 0.17963073E+00 0.17295654E+04</pdfrwt>
<pdfrwt beam="2">  1       -2 0.84964459E-01 0.17295654E+04</pdfrwt>
<totfact> 0.22770852E+01</totfact>
</mgrwt>
</event>
<event>
 8    1  0.6876290E-010  0.1529474E+04  0.7818608E-02  0.8865086E-01
         -2   -1    0    0    0  501 -0.00000000000E+00  0.00000000000E+00  0.34692797656E+03  0.34692797657E+03  0.25500000000E-02 0. -1.
          2   -1    0    0  501    0  0.00000000000E+00 -0.00000000000E+00 -0.16857181287E+04  0.16857181287E+04  0.25500000000E-02 0.  1.
     200001    2    1    2    0    0  0.27131211358E+03  0.11196721423E+03 -0.79017248082E+03  0.10960948417E+04  0.70064572539E+03 0.  0.
    5000001    2    3    3    0    0  0.39512469048E+02 -0.30605278270E+02 -0.26783556813E+03  0.32350579104E+03  0.17441957177E+03 0.  0.
        -11    1    4    4    0    0  0.28253810243E+02  0.12193318302E+02 -0.26828011879E+03  0.27003921371E+03  0.51100000000E-03 0. -1.
     200002    1    4    4    0    0  0.11258658805E+02 -0.42798596572E+02  0.44455065825E+00  0.53466577335E+02  0.30000000000E+02 0. -1.
     200000    1    3    3    0    0  0.23179964453E+03  0.14257249250E+03 -0.52233691269E+03  0.77258905065E+03  0.50000000000E+03 0. -1.
    -200001    1    1    2    0    0 -0.27131211358E+03 -0.11196721423E+03 -0.54861767131E+03  0.93655126358E+03  0.70000000000E+03 0. -1.
<mgrwt>
<rscale>  0 0.15294741E+04</rscale>
<asrwt>0</asrwt>
<pdfrwt beam="1">  1        2 0.24081687E+00 0.15294741E+04</pdfrwt>
<pdfrwt beam="2">  1       -2 0.49561141E-01 0.15294741E+04</pdfrwt>
<totfact> 0.43404946E+01</totfact>
</mgrwt>
</event>
<event>
 8    1  0.6876290E-010  0.1680705E+04  0.7818608E-02  0.8772446E-01
         -2   -1    0    0    0  501 -0.00000000000E+00  0.00000000000E+00  0.32450720452E+03  0.32450720453E+03  0.25500000000E-02 0. -1.
          2   -1    0    0  501    0  0.00000000000E+00 -0.00000000000E+00 -0.21761992862E+04  0.21761992862E+04  0.25500000000E-02 0.  1.
     200001    2    1    2    0    0  0.20897226226E+03 -0.41042159701E+03 -0.82948472168E+03  0.11789564461E+04  0.69984148531E+03 0.  0.
    5000001    2    3    3    0    0  0.49618785380E+02 -0.36644683410E+02 -0.15805347568E+03  0.24840680751E+03  0.18143920237E+03 0.  0.
        -11    1    4    4    0    0  0.57154681712E+02  0.47494795368E+02 -0.95233555762E+01  0.74920674919E+02  0.51100000000E-03 0. -1.
     200002    1    4    4    0    0 -0.75358963319E+01 -0.84139478778E+02 -0.14853012011E+03  0.17348613259E+03  0.30000000000E+02 0. -1.
     200000    1    3    3    0    0  0.15935347688E+03 -0.37377691360E+03 -0.67143124599E+03  0.93054963856E+03  0.50000000000E+03 0.  1.
    -200001    1    1    2    0    0 -0.20897226226E+03  0.41042159701E+03 -0.10222073600E+04  0.13217500446E+04  0.70000000000E+03 0.  1.
<mgrwt>
<rscale>  0 0.16807050E+04</rscale>
<asrwt>0</asrwt>
<pdfrwt beam="1">  1        2 0.31088560E+00 0.16807050E+04</pdfrwt>
<pdfrwt beam="2">  1       -2 0.46358173E-01 0.16807050E+04</pdfrwt>
<totfact> 0.27420066E+01</totfact>
</mgrwt>
</event>
<event>
 8    1  0.6876290E-010  0.1459002E+04  0.7818608E-02  0.8912183E-01
         -2   -1    0    0    0  501 -0.00000000000E+00  0.00000000000E+00  0.24851197411E+03  0.24851197412E+03  0.25500000000E-02 0. -1.
          2   -1    0    0  501    0  0.00000000000E+00 -0.00000000000E+00 -0.21414340705E+04  0.21414340705E+04  0.25500000000E-02 0.  1.
     200001    2    1    2    0    0  0.14836505846E+03 -0.11342814312E+03 -0.10673444734E+04  0.12915578866E+04  0.70286514722E+03 0.  0.
    5000001    2    3    3    0    0  0.14626281167E+03 -0.85777362062E+01 -0.37509798036E+03  0.43120724036E+03  0.15419079620E+03 0.  0.
        -11    1    4    4    0    0  0.14568942295E+03 -0.14574408493E+02 -0.37280058227E+03  0.40052227839E+03  0.51100000000E-03 0. -1.
     200002    1    4    4    0    0  0.57338871940E+00  0.59966722873E+01 -0.22973980863E+01  0.30684961970E+02  0.30000000000E+02 0.  1.
     200000    1    3    3    0    0  0.21022467917E+01 -0.10485040692E+03 -0.69224649308E+03  0.86035064622E+03  0.50000000000E+03 0.  1.
    -200001    1    1    2    0    0 -0.14836505846E+03  0.11342814312E+03 -0.82557762297E+03  0.10983881581E+04  0.70000000000E+03 0.  1.
<mgrwt>
<rscale>  0 0.14590024E+04</rscale>
<asrwt>0</asrwt>
<pdfrwt beam="1">  1        2 0.30591914E+00 0.14590024E+04</pdfrwt>
<pdfrwt beam="2">  1       -2 0.35501712E-01 0.14590024E+04</pdfrwt>
<totfact> 0.49070345E+01</totfact>
</mgrwt>
</event>
<event>
 8    1  0.6876290E-010  0.1599399E+04  0.7818608E-02  0.8820917E-01
         -2   -1    0    0    0  501 -0.00000000000E+00  0.00000000000E+00  0.61433433959E+03  0.61433433959E+03  0.25500000000E-02 0. -1.
          2   -1    0    0  501    0  0.00000000000E+00 -0.00000000000E+00 -0.10409952244E+04  0.10409952244E+04  0.25500000000E-02 0.  1.
     200001    2    1    2    0    0 -0.24579352167E+02  0.16371673729E+03 -0.57480789175E+03  0.92092174110E+03  0.70020384618E+03 0.  0.
    5000001    2    3    3    0    0  0.31324590804E+02  0.32853570756E+02 -0.16971086105E+03  0.26186633868E+03  0.19419478848E+03 0.  0.
        -11    1    4    4    0    0  0.11404622452E+02  0.11048101076E+03 -0.73913171278E+02  0.13341392746E+03  0.51100000000E-03 0. -1.
     200002    1    4    4    0    0  0.19919968352E+02 -0.77627440003E+02 -0.95797689775E+02  0.12845241121E+03  0.30000000000E+02 0. -1.
     200000    1    3    3    0    0 -0.55903942971E+02  0.13086316654E+03 -0.40509703069E+03  0.65905540243E+03  0.50000000000E+03 0.  1.
    -200001    1    1    2    0    0  0.24579352167E+02 -0.16371673729E+03  0.14814700695E+03  0.73440782287E+03  0.70000000000E+03 0. -1.
<mgrwt>
<rscale>  0 0.15993988E+04</rscale>
<asrwt>0</asrwt>
<pdfrwt beam="1">  1        2 0.14871360E+00 0.15993988E+04</pdfrwt>
<pdfrwt beam="2">  1       -2 0.87762049E-01 0.15993988E+04</pdfrwt>
<totfact> 0.28536661E+01</totfact>
</mgrwt>
</event>
<event>
 8    1  0.6876290E-010  0.1821523E+04  0.7818608E-02  0.8694937E-01
         -2   -1    0    0    0  501 -0.00000000000E+00  0.00000000000E+00  0.47104432882E+03  0.47104432883E+03  0.25500000000E-02 0. -1.
          2   -1    0    0  501    0  0.00000000000E+00 -0.00000000000E+00 -0.17609523567E+04  0.17609523567E+04  0.25500000000E-02 0.  1.
     200001    2    1    2    0    0 -0.76248479967E+01  0.57352783798E+03 -0.51965501181E+03  0.10436019582E+04  0.70005099568E+03 0.  0.
    5000001    2    3    3    0    0 -0.23501378288E+02  0.14780040466E+03 -0.17067403441E+03  0.29977157812E+03  0.19579606388E+03 0.  0.
        -11    1    4    4    0    0  0.67154569466E+02  0.15793374066E+02 -0.78487496128E+01  0.69431763159E+02  0.51100000000E-03 0. -1.
     200002    1    4    4    0    0 -0.90655947753E+02  0.13200703059E+03 -0.16282528480E+03  0.23033981496E+03  0.30000000000E+02 0. -1.
     200000    1    3    3    0    0  0.15876530291E+02  0.42572743333E+03 -0.34898097740E+03  0.74383038005E+03  0.50000000000E+03 0.  1.
    -200001    1    1    2    0    0  0.76248479967E+01 -0.57352783798E+03 -0.77025301605E+03  0.11883947273E+04  0.70000000000E+03 0. -1.
<mgrwt>
<rscale>  0 0.18215231E+04</rscale>
<asrwt>0</asrwt>
<pdfrwt beam="1">  1        2 0.25156462E+00 0.18215231E+04</pdfrwt>
<pdfrwt beam="2">  1       -2 0.67292048E-01 0.18215231E+04</pdfrwt>
<totfact> 0.20416960E+01</totfact>
</mgrwt>
</event>
<event>
 8    1  0.6876290E-010  0.1702158E+04  0.7818608E-02  0.8760135E-01
         -2   -1    0    0    0  501 -0.00000000000E+00  0.00000000000E+00  0.57768228764E+03  0.57768228765E+03  0.25500000000E-02 0.  1.
          2   -1    0    0  501    0  0.00000000000E+00 -0.00000000000E+00 -0.12538643989E+04  0.12538643989E+04  0.25500000000E-02 0. -1.
     200001    2    1    2    0    0  0.27257867435E+03 -0.69727817929E+02 -0.76294109827E+03  0.10721467760E+04  0.69875495528E+03 0.  0.
    5000001    2    3    3    0    0  0.42288635308E+02 -0.82976907421E+02 -0.24507292931E+03  0.31623905618E+03  0.17684146609E+03 0.  0.
        -11    1    4    4    0    0 -0.13240719007E+02 -0.10065931418E+03 -0.55610116888E+02  0.11575879782E+03  0.51100000000E-03 0. -1.
     200002    1    4    4    0    0  0.55529354315E+02  0.17682406764E+02 -0.18946281243E+03  0.20048025836E+03  0.30000000000E+02 0. -1.
     200000    1    3    3    0    0  0.23029003904E+03  0.13249089491E+02 -0.51786816895E+03  0.75590771981E+03  0.50000000000E+03 0.  1.
    -200001    1    1    2    0    0 -0.27257867435E+03  0.69727817929E+02  0.86758987033E+02  0.75939991054E+03  0.70000000000E+03 0.  1.
<mgrwt>
<rscale>  0 0.17021578E+04</rscale>
<asrwt>0</asrwt>
<pdfrwt beam="1">  1        2 0.17912348E+00 0.17021578E+04</pdfrwt>
<pdfrwt beam="2">  1       -2 0.82526042E-01 0.17021578E+04</pdfrwt>
<totfact> 0.24489747E+01</totfact>
</mgrwt>
</event>
<event>
 8    1  0.6876290E-010  0.1865474E+04  0.7818608E-02  0.8672236E-01
         -2   -1    0    0    0  501 -0.00000000000E+00  0.00000000000E+00  0.12218729728E+04  0.12218729728E+04  0.25500000000E-02 0. -1.
          2   -1    0    0  501    0  0.00000000000E+00 -0.00000000000E+00 -0.71201996594E+03  0.71201996594E+03  0.25500000000E-02 0.  1.
     200001    2    1    2    0    0 -0.11167582227E+03  0.60314919231E+03  0.32137520022E+03  0.98426968654E+03  0.69946004822E+03 0.  0.
    5000001    2    3    3    0    0 -0.10761007164E+03  0.20988221773E+03  0.50596711254E+02  0.29289682497E+03  0.16612660850E+03 0.  0.
        -11    1    4    4    0    0 -0.42556745470E+00  0.16000049784E+03  0.59252350764E+02  0.17061999147E+03  0.51100000000E-03 0. -1.
     200002    1    4    4    0    0 -0.10718450419E+03  0.49881719884E+02 -0.86556395096E+01  0.12227683350E+03  0.30000000000E+02 0. -1.
     200000    1    3    3    0    0 -0.40657506313E+01  0.39326697458E+03  0.27077848896E+03  0.69137286157E+03  0.50000000000E+03 0. -1.
    -200001    1    1    2    0    0  0.11167582227E+03 -0.60314919231E+03  0.18847780660E+03  0.94962325216E+03  0.70000000000E+03 0. -1.
<mgrwt>
<rscale>  0 0.18654736E+04</rscale>
<asrwt>0</asrwt>
<pdfrwt beam="1">  1        2 0.10171714E+00 0.18654736E+04</pdfrwt>
<pdfrwt beam="2">  1       -2 0.17455328E+00 0.18654736E+04</pdfrwt>
<totfact> 0.82118189E+00</totfact>
</mgrwt>
</event>
<event>
 8    1  0.6876290E-010  0.2283327E+04  0.7818608E-02  0.8484524E-01
          2   -1    0    0  501    0  0.00000000000E+00  0.00000000000E+00  0.82873285959E+03  0.82873285960E+03  0.25500000000E-02 0.  1.
         -2   -1    0    0    0  501 -0.00000000000E+00 -0.00000000000E+00 -0.15727576598E+04  0.15727576598E+04  0.25500000000E-02 0. -1.
     200001    2    1    2    0    0 -0.69010395761E+03  0.21674613849E+03 -0.93818604299E+03  0.13763461641E+04  0.70065209014E+03 0.  0.
    5000001    2    3    3    0    0 -0.14307520152E+03 -0.93438400256E+02 -0.22482548634E+03  0.30194484627E+03  0.10687816870E+03 0.  0.
        -11    1    4    4    0    0 -0.64388753008E+02 -0.56721424745E+02 -0.18067901256E+03  0.20002034176E+03  0.51100000000E-03 0. -1.
     200002    1    4    4    0    0 -0.78686448514E+02 -0.36716975511E+02 -0.44146473781E+02  0.10192450450E+03  0.30000000000E+02 0. -1.
     200000    1    3    3    0    0 -0.54702875609E+03  0.31018453874E+03 -0.71336055665E+03  0.10744013179E+04  0.50000000000E+03 0. -1.
    -200001    1    1    2    0    0  0.69010395761E+03 -0.21674613849E+03  0.19416124281E+03  0.10251443552E+04  0.70000000000E+03 0.  1.
<mgrwt>
<rscale>  0 0.22833274E+04</rscale>
<asrwt>0</asrwt>
<pdfrwt beam="1">  1        2 0.11839041E+00 0.22833274E+04</pdfrwt>
<pdfrwt beam="2">  1       -2 0.22467966E+00 0.22833274E+04</pdfrwt>
<totfact> 0.30556337E+00</totfact>
</mgrwt>
</event>
<event>
 8    1  0.6876290E-010  0.1643097E+04  0.7818608E-02  0.8794501E-01
         -2   -1    0    0    0  501 -0.00000000000E+00  0.00000000000E+00  0.71645442528E+03  0.71645442528E+03  0.25500000000E-02 0. -1.
          2   -1    0    0  501    0  0.00000000000E+00 -0.00000000000E+00 -0.94205811468E+03  0.94205811468E+03  0.25500000000E-02 0.  1.
     200001    2    1    2    0    0 -0.53790553402E+02  0.40797437672E+03  0.11876420109E+02  0.81250230474E+03  0.70048728051E+03 0.  0.
    5000001    2    3    3    0    0  0.17695896297E+01  0.16636203849E+02 -0.98711004918E+01  0.17476768149E+03  0.17368479825E+03 0.  0.
        -11    1    4    4    0    0 -0.55026484838E+02 -0.38541696558E+02  0.38314655868E+02  0.77339441825E+02  0.51100000000E-03 0. -1.
     200002    1    4    4    0    0  0.56796074468E+02  0.55177900408E+02 -0.48185756359E+02  0.97428239665E+02  0.30000000000E+02 0. -1.
     200000    1    3    3    0    0 -0.55560143031E+02  0.39133817287E+03  0.21747520601E+02  0.63773462325E+03  0.50000000000E+03 0. -1.
    -200001    1    1    2    0    0  0.53790553402E+02 -0.40797437672E+03 -0.23748010951E+03  0.84601023523E+03  0.70000000000E+03 0. -1.
<mgrwt>
<rscale>  0 0.16430967E+04</rscale>
<asrwt>0</asrwt>
<pdfrwt beam="1">  1        2 0.13457973E+00 0.16430967E+04</pdfrwt>
<pdfrwt beam="2">  1       -2 0.10235063E+00 0.16430967E+04</pdfrwt>
<totfact> 0.22875178E+01</totfact>
</mgrwt>
</event>
<event>
 8    1  0.6876290E-010  0.1634631E+04  0.7818608E-02  0.8799551E-01
         -2   -1    0    0    0  501 -0.00000000000E+00  0.00000000000E+00  0.15131505449E+04  0.15131505449E+04  0.25500000000E-02 0. -1.
          2   -1    0    0  501    0  0.00000000000E+00 -0.00000000000E+00 -0.44146613380E+03  0.44146613381E+03  0.25500000000E-02 0.  1.
     200001    2    1    2    0    0 -0.34938519639E+02 -0.34659269671E+03  0.25108401278E+03  0.82115639653E+03  0.69993388868E+03 0.  0.
    5000001    2    3    3    0    0  0.38761678104E+02 -0.95270902480E+02  0.18082188969E+03  0.25235842770E+03  0.14286079830E+03 0.  0.
        -11    1    4    4    0    0  0.64958564760E+02  0.78824650682E+01  0.65201539011E+02  0.92374179731E+02  0.51100000000E-03 0. -1.
     200002    1    4    4    0    0 -0.26196886656E+02 -0.10315336755E+03  0.11562035068E+03  0.15998424797E+03  0.30000000000E+02 0. -1.
     200000    1    3    3    0    0 -0.73700197743E+02 -0.25132179423E+03  0.70262123085E+02  0.56879796883E+03  0.50000000000E+03 0.  1.
    -200001    1    1    2    0    0  0.34938519639E+02  0.34659269671E+03  0.82060039835E+03  0.11334602822E+04  0.70000000000E+03 0.  1.
<mgrwt>
<rscale>  0 0.16346311E+04</rscale>
<asrwt>0</asrwt>
<pdfrwt beam="1">  1        2 0.63066590E-01 0.16346311E+04</pdfrwt>
<pdfrwt beam="2">  1       -2 0.21616437E+00 0.16346311E+04</pdfrwt>
<totfact> 0.77498710E+00</totfact>
</mgrwt>
</event>
<event>
 8    1  0.6876290E-010  0.1510426E+04  0.7818608E-02  0.8877549E-01
         -2   -1    0    0    0  501 -0.00000000000E+00  0.00000000000E+00  0.32469848538E+03  0.32469848539E+03  0.25500000000E-02 0. -1.
          2   -1    0    0  501    0  0.00000000000E+00 -0.00000000000E+00 -0.17565427773E+04  0.17565427773E+04  0.25500000000E-02 0.  1.
     200001    2    1    2    0    0  0.15072607542E+03 -0.18630599366E+03 -0.50917516730E+03  0.89855508850E+03  0.70050954525E+03 0.  0.
    5000001    2    3    3    0    0 -0.93382352919E+01 -0.53078291964E+02 -0.19459742126E+03  0.27219308266E+03  0.18252783395E+03 0.  0.
        -11    1    4    4    0    0 -0.84302029193E+02  0.11455446113E+02 -0.69063471519E+02  0.10958021021E+03  0.51100000000E-03 0. -1.
     200002    1    4    4    0    0  0.74963793901E+02 -0.64533738077E+02 -0.12553394975E+03  0.16261287245E+03  0.30000000000E+02 0. -1.
     200000    1    3    3    0    0  0.16006431071E+03 -0.13322770169E+03 -0.31457774603E+03  0.62636200584E+03  0.50000000000E+03 0.  1.
    -200001    1    1    2    0    0 -0.15072607542E+03  0.18630599366E+03 -0.92266912459E+03  0.11826861742E+04  0.70000000000E+03 0. -1.
<mgrwt>
<rscale>  0 0.15104261E+04</rscale>
<asrwt>0</asrwt>
<pdfrwt beam="1">  1        2 0.25093468E+00 0.15104261E+04</pdfrwt>
<pdfrwt beam="2">  1       -2 0.46385499E-01 0.15104261E+04</pdfrwt>
<totfact> 0.45659943E+01</totfact>
</mgrwt>
</event>
<event>
 8    1  0.6876290E-010  0.1494966E+04  0.7818608E-02  0.8887807E-01
         -2   -1    0    0    0  501 -0.00000000000E+00  0.00000000000E+00  0.23952342135E+03  0.23952342137E+03  0.25500000000E-02 0. -1.
          2   -1    0    0  501    0  0.00000000000E+00 -0.00000000000E+00 -0.23326776352E+04  0.23326776352E+04  0.25500000000E-02 0.  1.
     200001    2    1    2    0    0  0.73675028057E+02  0.24093325062E+03 -0.11658676297E+04  0.13833624426E+04  0.70069071387E+03 0.  0.
    5000001    2    3    3    0    0 -0.60416371322E+01  0.77397638660E+02 -0.37360323061E+03  0.42901370067E+03  0.19607775395E+03 0.  0.
        -11    1    4    4    0    0 -0.18013502752E+02 -0.57005078782E+01 -0.32860265860E+03  0.32914539236E+03  0.51100000000E-03 0. -1.
     200002    1    4    4    0    0  0.11971865619E+02  0.83098146538E+02 -0.45000572006E+02  0.99868308313E+02  0.30000000000E+02 0. -1.
     200000    1    3    3    0    0  0.79716665189E+02  0.16353561196E+03 -0.79226439914E+03  0.95434874194E+03  0.50000000000E+03 0.  1.
    -200001    1    1    2    0    0 -0.73675028057E+02 -0.24093325062E+03 -0.92728658413E+03  0.11888386140E+04  0.70000000000E+03 0.  1.
<mgrwt>
<rscale>  0 0.14949661E+04</rscale>
<asrwt>0</asrwt>
<pdfrwt beam="1">  1        2 0.33323965E+00 0.14949661E+04</pdfrwt>
<pdfrwt beam="2">  1       -2 0.34217633E-01 0.14949661E+04</pdfrwt>
<totfact> 0.41814736E+01</totfact>
</mgrwt>
</event>
<event>
 8    1  0.6876290E-010  0.1594001E+04  0.7818608E-02  0.8824242E-01
          2   -1    0    0  501    0  0.00000000000E+00  0.00000000000E+00  0.11805294092E+04  0.11805294092E+04  0.25500000000E-02 0.  1.
         -2   -1    0    0    0  501 -0.00000000000E+00 -0.00000000000E+00 -0.53807176686E+03  0.53807176686E+03  0.25500000000E-02 0. -1.
     200001    2    1    2    0    0  0.24105455432E+03 -0.28139571303E+02  0.48752840956E+01  0.74115020689E+03  0.70027189515E+03 0.  0.
    5000001    2    3    3    0    0  0.15384776879E+02 -0.17231198484E+02 -0.34803706654E+02  0.19104088743E+03  0.18641812442E+03 0.  0.
        -11    1    4    4    0    0 -0.24991633434E+01 -0.74169904559E+01  0.74995826867E+02  0.75403127339E+02  0.51100000000E-03 0. -1.
     200002    1    4    4    0    0  0.17883940222E+02 -0.98142080283E+01 -0.10979953352E+03  0.11563776009E+03  0.30000000000E+02 0. -1.
     200000    1    3    3    0    0  0.22566977744E+03 -0.10908372819E+02  0.39678990749E+02  0.55010931946E+03  0.50000000000E+03 0. -1.
    -200001    1    1    2    0    0 -0.24105455432E+03  0.28139571303E+02  0.63758235829E+03  0.97745096923E+03  0.70000000000E+03 0.  1.
<mgrwt>
<rscale>  0 0.15940007E+04</rscale>
<asrwt>0</asrwt>
<pdfrwt beam="1">  1        2 0.16864706E+00 0.15940007E+04</pdfrwt>
<pdfrwt beam="2">  1       -2 0.76867396E-01 0.15940007E+04</pdfrwt>
<totfact> 0.31875691E+01</totfact>
</mgrwt>
</event>
<event>
 8    1  0.6876290E-010  0.1924895E+04  0.7818608E-02  0.8642563E-01
          2   -1    0    0  501    0  0.00000000000E+00  0.00000000000E+00  0.67638025567E+03  0.67638025567E+03  0.25500000000E-02 0.  1.
         -2   -1    0    0    0  501 -0.00000000000E+00 -0.00000000000E+00 -0.13695041631E+04  0.13695041631E+04  0.25500000000E-02 0. -1.
     200001    2    1    2    0    0  0.56308014393E+03  0.27338399622E+03 -0.12257580826E+03  0.94710182366E+03  0.70012782956E+03 0.  0.
    5000001    2    3    3    0    0  0.16505587255E+03  0.65783914477E+02 -0.49444906865E+02  0.27118079034E+03  0.19880457179E+03 0.  0.
        -11    1    4    4    0    0  0.47265037827E+02  0.37369283532E+02 -0.11526443314E+03  0.13006281829E+03  0.51100000000E-03 0. -1.
     200002    1    4    4    0    0  0.11779083472E+03  0.28414630945E+02  0.65819526277E+02  0.14111797205E+03  0.30000000000E+02 0. -1.
     200000    1    3    3    0    0  0.39802427138E+03  0.20760008174E+03 -0.73130901395E+02  0.67592103332E+03  0.50000000000E+03 0.  1.
    -200001    1    1    2    0    0 -0.56308014393E+03 -0.27338399622E+03 -0.57054809917E+03  0.10987825951E+04  0.70000000000E+03 0. -1.
<mgrwt>
<rscale>  0 0.19248954E+04</rscale>
<asrwt>0</asrwt>
<pdfrwt beam="1">  1        2 0.96625751E-01 0.19248954E+04</pdfrwt>
<pdfrwt beam="2">  1       -2 0.19564345E+00 0.19248954E+04</pdfrwt>
<totfact> 0.62536799E+00</totfact>
</mgrwt>
</event>
<event>
 8    1  0.6876290E-010  0.1988407E+04  0.7818608E-02  0.8612060E-01
          2   -1    0    0  501    0  0.00000000000E+00  0.00000000000E+00  0.18829489398E+04  0.18829489398E+04  0.25500000000E-02 0.  1.
         -2   -1    0    0    0  501 -0.00000000000E+00 -0.00000000000E+00 -0.52494301159E+03  0.52494301159E+03  0.25500000000E-02 0. -1.
     200001    2    1    2    0    0  0.45641657811E+03  0.52361887725E+03  0.53026903343E+03  0.11203978006E+04  0.70115131204E+03 0.  0.
    5000001    2    3    3    0    0  0.97463612278E+02  0.80978010328E+02  0.10085110997E+03  0.24908963368E+03  0.18925671811E+03 0.  0.
        -11    1    4    4    0    0  0.13250626074E+03  0.85868993224E+02  0.12058702244E+03  0.19867718317E+03  0.51100000000E-03 0. -1.
     200002    1    4    4    0    0 -0.35042648465E+02 -0.48909828965E+01 -0.19735912464E+02  0.50412450505E+02  0.30000000000E+02 0. -1.
     200000    1    3    3    0    0  0.35895296583E+03  0.44264086692E+03  0.42941792346E+03  0.87130816691E+03  0.50000000000E+03 0. -1.
    -200001    1    1    2    0    0 -0.45641657811E+03 -0.52361887725E+03  0.82773689480E+03  0.12874941508E+04  0.70000000000E+03 0.  1.
<mgrwt>
<rscale>  0 0.19884073E+04</rscale>
<asrwt>0</asrwt>
<pdfrwt beam="1">  1        2 0.26899271E+00 0.19884073E+04</pdfrwt>
<pdfrwt beam="2">  1       -2 0.74991859E-01 0.19884073E+04</pdfrwt>
<totfact> 0.13745362E+01</totfact>
</mgrwt>
</event>
<event>
 8    1  0.6876290E-010  0.1985089E+04  0.7818608E-02  0.8613624E-01
         -2   -1    0    0    0  501 -0.00000000000E+00  0.00000000000E+00  0.28145049614E+03  0.28145049616E+03  0.25500000000E-02 0. -1.
          2   -1    0    0  501    0  0.00000000000E+00 -0.00000000000E+00 -0.35002396459E+04  0.35002396459E+04  0.25500000000E-02 0.  1.
     200001    2    1    2    0    0  0.20077626930E+03 -0.64388104973E+03 -0.19904971641E+04  0.22152945603E+04  0.70039782418E+03 0.  0.
    5000001    2    3    3    0    0  0.11477650230E+03 -0.31312680562E+03 -0.67252127103E+03  0.76482746842E+03  0.14647236800E+03 0.  0.
        -11    1    4    4    0    0  0.25655956207E+02 -0.24032029514E+03 -0.49920335896E+03  0.55463146858E+03  0.51100000000E-03 0. -1.
     200002    1    4    4    0    0  0.89120546096E+02 -0.72806510485E+02 -0.17331791207E+03  0.21019599984E+03  0.30000000000E+02 0. -1.
     200000    1    3    3    0    0  0.85999766992E+02 -0.33075424410E+03 -0.13179758931E+04  0.14504670919E+04  0.50000000000E+03 0.  1.
    -200001    1    1    2    0    0 -0.20077626930E+03  0.64388104973E+03 -0.12282919856E+04  0.15663955817E+04  0.70000000000E+03 0. -1.
<mgrwt>
<rscale>  0 0.19850886E+04</rscale>
<asrwt>0</asrwt>
<pdfrwt beam="1">  1        2 0.50003421E+00 0.19850886E+04</pdfrwt>
<pdfrwt beam="2">  1       -2 0.40207216E-01 0.19850886E+04</pdfrwt>
<totfact> 0.65895050E+00</totfact>
</mgrwt>
</event>
<event>
 8    1  0.6876290E-010  0.1715021E+04  0.7818608E-02  0.8752843E-01
          2   -1    0    0  501    0  0.00000000000E+00  0.00000000000E+00  0.23023026455E+04  0.23023026455E+04  0.25500000000E-02 0.  1.
         -2   -1    0    0    0  501 -0.00000000000E+00 -0.00000000000E+00 -0.31938662726E+03  0.31938662727E+03  0.25500000000E-02 0. -1.
     200001    2    1    2    0    0 -0.28968752547E+03 -0.96925778150E+02  0.15879735420E+04  0.17618677632E+04  0.69943160915E+03 0.  0.
    5000001    2    3    3    0    0 -0.28518525508E+02 -0.25883390285E+02  0.51513002992E+03  0.54768101112E+03  0.18196781590E+03 0.  0.
        -11    1    4    4    0    0 -0.31037909455E+02 -0.72447096783E+02  0.46893125463E+03  0.47550862792E+03  0.51100000000E-03 0. -1.
     200002    1    4    4    0    0  0.25193839467E+01  0.46563706499E+02  0.46198775290E+02  0.72172383199E+02  0.30000000000E+02 0. -1.
     200000    1    3    3    0    0 -0.26116899996E+03 -0.71042387865E+02  0.10728435121E+04  0.12141867520E+04  0.50000000000E+03 0.  1.
    -200001    1    1    2    0    0  0.28968752547E+03  0.96925778150E+02  0.39494247628E+03  0.85982150965E+03  0.70000000000E+03 0. -1.
<mgrwt>
<rscale>  0 0.17150215E+04</rscale>
<asrwt>0</asrwt>
<pdfrwt beam="1">  1        2 0.32890037E+00 0.17150215E+04</pdfrwt>
<pdfrwt beam="2">  1       -2 0.45626662E-01 0.17150215E+04</pdfrwt>
<totfact> 0.24292649E+01</totfact>
</mgrwt>
</event>
<event>
 8    1  0.6876290E-010  0.1503080E+04  0.7818608E-02  0.8882407E-01
         -2   -1    0    0    0  501 -0.00000000000E+00  0.00000000000E+00  0.29781988874E+03  0.29781988875E+03  0.25500000000E-02 0. -1.
          2   -1    0    0  501    0  0.00000000000E+00 -0.00000000000E+00 -0.18964899721E+04  0.18964899721E+04  0.25500000000E-02 0.  1.
     200001    2    1    2    0    0  0.26787378632E+03 -0.46700322694E+02 -0.75515016764E+03  0.10649458213E+04  0.69994324137E+03 0.  0.
    5000001    2    3    3    0    0  0.50932547144E+02 -0.73703996165E+02 -0.11244254445E+03  0.22181724956E+03  0.16891762190E+03 0.  0.
        -11    1    4    4    0    0 -0.28231383066E+02 -0.98376003031E+02 -0.51057293611E+02  0.11437524292E+03  0.51100000000E-03 0. -1.
     200002    1    4    4    0    0  0.79163930210E+02  0.24672006866E+02 -0.61385250840E+02  0.10744200664E+03  0.30000000000E+02 0. -1.
     200000    1    3    3    0    0  0.21694123917E+03  0.27003673471E+02 -0.64270762319E+03  0.84312857177E+03  0.50000000000E+03 0.  1.
    -200001    1    1    2    0    0 -0.26787378632E+03  0.46700322694E+02 -0.84351991568E+03  0.11293640395E+04  0.70000000000E+03 0. -1.
<mgrwt>
<rscale>  0 0.15030801E+04</rscale>
<asrwt>0</asrwt>
<pdfrwt beam="1">  1        2 0.27092713E+00 0.15030801E+04</pdfrwt>
<pdfrwt beam="2">  1       -2 0.42545700E-01 0.15030801E+04</pdfrwt>
<totfact> 0.45955900E+01</totfact>
</mgrwt>
</event>
<event>
 8    1  0.6876290E-010  0.1505847E+04  0.7818608E-02  0.8880574E-01
          2   -1    0    0  501    0  0.00000000000E+00  0.00000000000E+00  0.23640635513E+04  0.23640635513E+04  0.25500000000E-02 0.  1.
         -2   -1    0    0    0  501 -0.00000000000E+00 -0.00000000000E+00 -0.23979639868E+03  0.23979639869E+03  0.25500000000E-02 0. -1.
     200001    2    1    2    0    0  0.15077374608E+03  0.32449624777E+02  0.66258647930E+03  0.97588694917E+03  0.69967763602E+03 0.  0.
    5000001    2    3    3    0    0 -0.13269534323E+02  0.24749590509E+02  0.21151596749E+03  0.28275341586E+03  0.18553130976E+03 0.  0.
        -11    1    4    4    0    0  0.38292397375E+02 -0.73534282481E+01  0.21144430240E+03  0.21500947333E+03  0.51100000000E-03 0. -1.
     200002    1    4    4    0    0 -0.51561931699E+02  0.32103018757E+02  0.71665097263E-01  0.67743942531E+02  0.30000000000E+02 0. -1.
     200000    1    3    3    0    0  0.16404328040E+03  0.77000342685E+01  0.45107051181E+03  0.69313353331E+03  0.50000000000E+03 0. -1.
    -200001    1    1    2    0    0 -0.15077374608E+03 -0.32449624777E+02  0.14616806733E+04  0.16279730008E+04  0.70000000000E+03 0.  1.
<mgrwt>
<rscale>  0 0.15058472E+04</rscale>
<asrwt>0</asrwt>
<pdfrwt beam="1">  1        2 0.33772336E+00 0.15058472E+04</pdfrwt>
<pdfrwt beam="2">  1       -2 0.34256629E-01 0.15058472E+04</pdfrwt>
<totfact> 0.40150981E+01</totfact>
</mgrwt>
</event>
<event>
 8    1  0.6876290E-010  0.2396298E+04  0.7818608E-02  0.8440891E-01
          2   -1    0    0  501    0  0.00000000000E+00  0.00000000000E+00  0.26744971817E+04  0.26744971817E+04  0.25500000000E-02 0.  1.
         -2   -1    0    0    0  501 -0.00000000000E+00 -0.00000000000E+00 -0.53675937875E+03  0.53675937876E+03  0.25500000000E-02 0. -1.
     200001    2    1    2    0    0  0.13563547544E+03 -0.85272148985E+03  0.46924816742E+03  0.12064152736E+04  0.69979500454E+03 0.  0.
    5000001    2    3    3    0    0  0.54634219333E+02 -0.75441846025E+02  0.26937238253E+00  0.16686442909E+03  0.13844600060E+03 0.  0.
        -11    1    4    4    0    0 -0.35573060924E+02  0.81525966992E+01 -0.14794294192E+02  0.39379926833E+02  0.51100000000E-03 0. -1.
     200002    1    4    4    0    0  0.90207280256E+02 -0.83594442724E+02  0.15063666575E+02  0.12748450226E+03  0.30000000000E+02 0. -1.
     200000    1    3    3    0    0  0.81001256110E+02 -0.77727964383E+03  0.46897879504E+03  0.10395508445E+04  0.50000000000E+03 0. -1.
    -200001    1    1    2    0    0 -0.13563547544E+03  0.85272148985E+03  0.16684896355E+04  0.20048412868E+04  0.70000000000E+03 0. -1.
<mgrwt>
<rscale>  0 0.23962984E+04</rscale>
<asrwt>0</asrwt>
<pdfrwt beam="1">  1        2 0.38207103E+00 0.23962984E+04</pdfrwt>
<pdfrwt beam="2">  1       -2 0.76679911E-01 0.23962984E+04</pdfrwt>
<totfact> 0.48894896E+00</totfact>
</mgrwt>
</event>
<event>
 8    1  0.6876290E-010  0.1637678E+04  0.7818608E-02  0.8797730E-01
         -2   -1    0    0    0  501 -0.00000000000E+00  0.00000000000E+00  0.40795045270E+03  0.40795045271E+03  0.25500000000E-02 0. -1.
          2   -1    0    0  501    0  0.00000000000E+00 -0.00000000000E+00 -0.16435745130E+04  0.16435745130E+04  0.25500000000E-02 0.  1.
     200001    2    1    2    0    0  0.18777282912E+03  0.25332885335E+03 -0.26184109970E+03  0.81148972521E+03  0.70037180793E+03 0.  0.
    5000001    2    3    3    0    0 -0.47357006639E+02  0.10233774516E+03 -0.13677586837E+03  0.22520850728E+03  0.13890836339E+03 0.  0.
        -11    1    4    4    0    0  0.18745696919E+02  0.99696511663E+02 -0.53442544646E+02  0.11465993707E+03  0.51100000000E-03 0. -1.
     200002    1    4    4    0    0 -0.66102703558E+02  0.26412334992E+01 -0.83333323719E+02  0.11054857020E+03  0.30000000000E+02 0. -1.
     200000    1    3    3    0    0  0.23512983576E+03  0.15099110818E+03 -0.12506523133E+03  0.58628121793E+03  0.50000000000E+03 0. -1.
    -200001    1    1    2    0    0 -0.18777282912E+03 -0.25332885335E+03 -0.97378296056E+03  0.12400352405E+04  0.70000000000E+03 0.  1.
<mgrwt>
<rscale>  0 0.16376776E+04</rscale>
<asrwt>0</asrwt>
<pdfrwt beam="1">  1        2 0.23479636E+00 0.16376776E+04</pdfrwt>
<pdfrwt beam="2">  1       -2 0.58278637E-01 0.16376776E+04</pdfrwt>
<totfact> 0.32394256E+01</totfact>
</mgrwt>
</event>
<event>
 8    1  0.6876290E-010  0.1440067E+04  0.7818608E-02  0.8925316E-01
         -2   -1    0    0    0  501 -0.00000000000E+00  0.00000000000E+00  0.63129613050E+03  0.63129613051E+03  0.25500000000E-02 0. -1.
          2   -1    0    0  501    0  0.00000000000E+00 -0.00000000000E+00 -0.82124356941E+03  0.82124356941E+03  0.25500000000E-02 0.  1.
     200001    2    1    2    0    0 -0.35019944692E+02 -0.26554975273E+02 -0.26117373702E+03  0.74755406263E+03  0.69906637196E+03 0.  0.
    5000001    2    3    3    0    0  0.12676358477E+02 -0.19426481612E+01 -0.47728844598E+02  0.20125796518E+03  0.19509552019E+03 0.  0.
        -11    1    4    4    0    0  0.51121019926E+02  0.81884725964E+02 -0.38184199992E+02  0.10380992319E+03  0.51100000000E-03 0. -1.
     200002    1    4    4    0    0 -0.38444661449E+02 -0.83827374125E+02 -0.95446446051E+01  0.97448041988E+02  0.30000000000E+02 0. -1.
     200000    1    3    3    0    0 -0.47696303170E+02 -0.24612327112E+02 -0.21344489243E+03  0.54629609745E+03  0.50000000000E+03 0.  1.
    -200001    1    1    2    0    0  0.35019944692E+02  0.26554975273E+02  0.71226298120E+02  0.70498563729E+03  0.70000000000E+03 0. -1.
<mgrwt>
<rscale>  0 0.14400665E+04</rscale>
<asrwt>0</asrwt>
<pdfrwt beam="1">  1        2 0.11732051E+00 0.14400665E+04</pdfrwt>
<pdfrwt beam="2">  1       -2 0.90185162E-01 0.14400665E+04</pdfrwt>
<totfact> 0.37574530E+01</totfact>
</mgrwt>
</event>
<event>
 8    1  0.6876290E-010  0.3053894E+04  0.7818608E-02  0.8228506E-01
         -2   -1    0    0    0  501 -0.00000000000E+00  0.00000000000E+00  0.71386970400E+03  0.71386970401E+03  0.25500000000E-02 0. -1.
          2   -1    0    0  501    0  0.00000000000E+00 -0.00000000000E+00 -0.32660966028E+04  0.32660966028E+04  0.25500000000E-02 0.  1.
     200001    2    1    2    0    0  0.49443721440E+03  0.97622435245E+03 -0.23224373218E+04  0.26607675367E+04  0.69891818218E+03 0.  0.
    5000001    2    3    3    0    0  0.53689529645E+02  0.24330194723E+03 -0.64441109416E+03  0.71212549817E+03  0.17256495515E+03 0.  0.
        -11    1    4    4    0    0  0.10394350138E+03  0.12653656990E+03 -0.44067479295E+03  0.47011703665E+03  0.51100000000E-03 0. -1.
     200002    1    4    4    0    0 -0.50253971739E+02  0.11676537733E+03 -0.20373630121E+03  0.24200846152E+03  0.30000000000E+02 0. -1.
     200000    1    3    3    0    0  0.44074768476E+03  0.73292240522E+03 -0.16780262277E+04  0.19486420386E+04  0.50000000000E+03 0.  1.
    -200001    1    1    2    0    0 -0.49443721440E+03 -0.97622435245E+03 -0.22978957697E+03  0.13191987701E+04  0.70000000000E+03 0. -1.
<mgrwt>
<rscale>  0 0.30538942E+04</rscale>
<asrwt>0</asrwt>
<pdfrwt beam="1">  1        2 0.46658522E+00 0.30538942E+04</pdfrwt>
<pdfrwt beam="2">  1       -2 0.10198139E+00 0.30538942E+04</pdfrwt>
<totfact> 0.11224456E+00</totfact>
</mgrwt>
</event>
<event>
 8    1  0.6876290E-010  0.1628624E+04  0.7818608E-02  0.8803154E-01
         -2   -1    0    0    0  501 -0.00000000000E+00  0.00000000000E+00  0.35811897123E+03  0.35811897124E+03  0.25500000000E-02 0. -1.
          2   -1    0    0  501    0  0.00000000000E+00 -0.00000000000E+00 -0.18516302021E+04  0.18516302021E+04  0.25500000000E-02 0.  1.
     200001    2    1    2    0    0  0.33877107433E+03  0.23475115448E+03 -0.67114405376E+03  0.10538245567E+04  0.70016991517E+03 0.  0.
    5000001    2    3    3    0    0  0.44497918747E+02  0.98447509668E+00 -0.12659544763E+03  0.22450149848E+03  0.17998189213E+03 0.  0.
        -11    1    4    4    0    0 -0.25867711292E+02  0.64065435635E+02 -0.74400602080E+01  0.69490093011E+02  0.51100000000E-03 0. -1.
     200002    1    4    4    0    0  0.70365630039E+02 -0.63080960538E+02 -0.11915538742E+03  0.15501140547E+03  0.30000000000E+02 0. -1.
     200000    1    3    3    0    0  0.29427315559E+03  0.23376667938E+03 -0.54454860613E+03  0.82932305824E+03  0.50000000000E+03 0.  1.
    -200001    1    1    2    0    0 -0.33877107433E+03 -0.23475115448E+03 -0.82236717709E+03  0.11559246166E+04  0.70000000000E+03 0.  1.
<mgrwt>
<rscale>  0 0.16286238E+04</rscale>
<asrwt>0</asrwt>
<pdfrwt beam="1">  1        2 0.26451859E+00 0.16286238E+04</pdfrwt>
<pdfrwt beam="2">  1       -2 0.51159854E-01 0.16286238E+04</pdfrwt>
<totfact> 0.33126260E+01</totfact>
</mgrwt>
</event>
<event>
 8    1  0.6876290E-010  0.1455243E+04  0.7818608E-02  0.8914774E-01
          2   -1    0    0  501    0  0.00000000000E+00  0.00000000000E+00  0.20257317157E+04  0.20257317157E+04  0.25500000000E-02 0.  1.
         -2   -1    0    0    0  501 -0.00000000000E+00 -0.00000000000E+00 -0.26135383595E+03  0.26135383596E+03  0.25500000000E-02 0. -1.
     200001    2    1    2    0    0  0.14729318126E+03  0.79600981048E+02  0.72076624561E+03  0.10193486545E+04  0.70109635662E+03 0.  0.
    5000001    2    3    3    0    0  0.32929934147E+02  0.65575645267E+01  0.12569744864E+03  0.23034854927E+03  0.19008740974E+03 0.  0.
        -11    1    4    4    0    0  0.32918016801E+02  0.43871668719E+02  0.16150300849E+03  0.17056242522E+03  0.51100000000E-03 0. -1.
     200002    1    4    4    0    0  0.11917346019E-01 -0.37314104193E+02 -0.35805559842E+02  0.59786124053E+02  0.30000000000E+02 0. -1.
     200000    1    3    3    0    0  0.11436324712E+03  0.73043416521E+02  0.59506879696E+03  0.78900010527E+03  0.50000000000E+03 0. -1.
    -200001    1    1    2    0    0 -0.14729318126E+03 -0.79600981048E+02  0.10436116342E+04  0.12677368971E+04  0.70000000000E+03 0.  1.
<mgrwt>
<rscale>  0 0.14552426E+04</rscale>
<asrwt>0</asrwt>
<pdfrwt beam="1">  1        2 0.28939025E+00 0.14552426E+04</pdfrwt>
<pdfrwt beam="2">  1       -2 0.37336261E-01 0.14552426E+04</pdfrwt>
<totfact> 0.51090980E+01</totfact>
</mgrwt>
</event>
<event>
 8    1  0.6876290E-010  0.1653520E+04  0.7818608E-02  0.8788327E-01
         -2   -1    0    0    0  501 -0.00000000000E+00  0.00000000000E+00  0.69121241555E+03  0.69121241555E+03  0.25500000000E-02 0. -1.
          2   -1    0    0  501    0  0.00000000000E+00 -0.00000000000E+00 -0.98888866565E+03  0.98888866565E+03  0.25500000000E-02 0.  1.
     200001    2    1    2    0    0 -0.35599591118E+03 -0.19850182117E+03 -0.71975621358E+01  0.81956989064E+03  0.71099011172E+03 0.  0.
    5000001    2    3    3    0    0 -0.32541796833E+02 -0.56945211118E+02  0.13947339951E+03  0.19014697326E+03  0.11136119907E+03 0.  0.
        -11    1    4    4    0    0 -0.29155809208E+02 -0.83650951794E+02  0.10217414693E+03  0.13522980163E+03  0.51100000000E-03 0. -1.
     200002    1    4    4    0    0 -0.33859876250E+01  0.26705740676E+02  0.37299252577E+02  0.54917171632E+02  0.30000000000E+02 0. -1.
     200000    1    3    3    0    0 -0.32345411434E+03 -0.14155661005E+03 -0.14667096164E+03  0.62942291738E+03  0.50000000000E+03 0.  1.
    -200001    1    1    2    0    0  0.35599591118E+03  0.19850182117E+03 -0.29047868797E+03  0.86053119057E+03  0.70000000000E+03 0. -1.
<mgrwt>
<rscale>  0 0.16535200E+04</rscale>
<asrwt>0</asrwt>
<pdfrwt beam="1">  1        2 0.14126981E+00 0.16535200E+04</pdfrwt>
<pdfrwt beam="2">  1       -2 0.98744631E-01 0.16535200E+04</pdfrwt>
<totfact> 0.23255512E+01</totfact>
</mgrwt>
</event>
<event>
 8    1  0.6876290E-010  0.1401075E+04  0.7818608E-02  0.8953041E-01
         -2   -1    0    0    0  501 -0.00000000000E+00  0.00000000000E+00  0.23315804529E+03  0.23315804531E+03  0.25500000000E-02 0. -1.
          2   -1    0    0  501    0  0.00000000000E+00 -0.00000000000E+00 -0.21048060496E+04  0.21048060496E+04  0.25500000000E-02 0.  1.
     200001    2    1    2    0    0 -0.59615765770E+02 -0.15019937554E+02 -0.10138746812E+04  0.12291112138E+04  0.69209310698E+03 0.  0.
    5000001    2    3    3    0    0 -0.15548085866E+02 -0.11232320201E+03 -0.25594332177E+03  0.31485204308E+03  0.14410614280E+03 0.  0.
        -11    1    4    4    0    0  0.15859929491E+02 -0.62086527854E+02 -0.16221269251E+02  0.66101466556E+02  0.51100000000E-03 0. -1.
     200002    1    4    4    0    0 -0.31408015357E+02 -0.50236674151E+02 -0.23972205252E+03  0.24875057653E+03  0.30000000000E+02 0. -1.
     200000    1    3    3    0    0 -0.44067679904E+02  0.97303264451E+02 -0.75793135940E+03  0.91425917072E+03  0.50000000000E+03 0.  1.
    -200001    1    1    2    0    0  0.59615765770E+02  0.15019937554E+02 -0.85777332315E+03  0.11088528811E+04  0.70000000000E+03 0. -1.
<mgrwt>
<rscale>  0 0.14010745E+04</rscale>
<asrwt>0</asrwt>
<pdfrwt beam="1">  1        2 0.30068657E+00 0.14010745E+04</pdfrwt>
<pdfrwt beam="2">  1       -2 0.33308293E-01 0.14010745E+04</pdfrwt>
<totfact> 0.58125536E+01</totfact>
</mgrwt>
</event>
<event>
 8    1  0.6876290E-010  0.2645817E+04  0.7818608E-02  0.8352803E-01
         -2   -1    0    0    0  501 -0.00000000000E+00  0.00000000000E+00  0.98735085172E+03  0.98735085172E+03  0.25500000000E-02 0. -1.
          2   -1    0    0  501    0  0.00000000000E+00 -0.00000000000E+00 -0.17725074154E+04  0.17725074154E+04  0.25500000000E-02 0.  1.
     200001    2    1    2    0    0  0.10017003070E+04  0.40497212672E+03 -0.76162738315E+02  0.12901378268E+04  0.70089151858E+03 0.  0.
    5000001    2    3    3    0    0  0.40812107256E+03  0.95709434700E+02  0.19237139637E+02  0.44925682627E+03  0.16043229928E+03 0.  0.
        -11    1    4    4    0    0  0.11307176719E+01 -0.75930631850E+01  0.27151824884E+02  0.28216213881E+02  0.51100000000E-03 0. -1.
     200002    1    4    4    0    0  0.40699035489E+03  0.10330249788E+03 -0.79146852469E+01  0.42104061239E+03  0.30000000000E+02 0. -1.
     200000    1    3    3    0    0  0.59357923445E+03  0.30926269202E+03 -0.95399877952E+02  0.84088100048E+03  0.50000000000E+03 0. -1.
    -200001    1    1    2    0    0 -0.10017003070E+04 -0.40497212672E+03 -0.70899382539E+03  0.14697204404E+04  0.70000000000E+03 0.  1.
<mgrwt>
<rscale>  0 0.26458169E+04</rscale>
<asrwt>0</asrwt>
<pdfrwt beam="1">  1        2 0.25321534E+00 0.26458169E+04</pdfrwt>
<pdfrwt beam="2">  1       -2 0.14105012E+00 0.26458169E+04</pdfrwt>
<totfact> 0.32867284E+00</totfact>
</mgrwt>
</event>
<event>
 8    1  0.6876290E-010  0.2022690E+04  0.7818608E-02  0.8596085E-01
          2   -1    0    0  501    0  0.00000000000E+00  0.00000000000E+00  0.19919461077E+04  0.19919461077E+04  0.25500000000E-02 0.  1.
         -2   -1    0    0    0  501 -0.00000000000E+00 -0.00000000000E+00 -0.51347712154E+03  0.51347712154E+03  0.25500000000E-02 0. -1.
     200001    2    1    2    0    0  0.46846896748E+03  0.68363834005E+02  0.50899152087E+02  0.84648006612E+03  0.69985783653E+03 0.  0.
    5000001    2    3    3    0    0  0.18724588719E+03  0.10379431710E+03  0.85383567884E+02  0.27069285286E+03  0.14195064068E+03 0.  0.
        -11    1    4    4    0    0  0.39396487504E+02  0.87362053599E+02  0.68929823890E+02  0.11804885539E+03  0.51100000000E-03 0. -1.
     200002    1    4    4    0    0  0.14784939969E+03  0.16432263505E+02  0.16453743994E+02  0.15264399747E+03  0.30000000000E+02 0. -1.
     200000    1    3    3    0    0  0.28122308029E+03 -0.35430483099E+02 -0.34484415796E+02  0.57578721326E+03  0.50000000000E+03 0. -1.
    -200001    1    1    2    0    0 -0.46846896748E+03 -0.68363834005E+02  0.14275698340E+04  0.16589431631E+04  0.70000000000E+03 0. -1.
<mgrwt>
<rscale>  0 0.20226900E+04</rscale>
<asrwt>0</asrwt>
<pdfrwt beam="1">  1        2 0.28456373E+00 0.20226900E+04</pdfrwt>
<pdfrwt beam="2">  1       -2 0.73353874E-01 0.20226900E+04</pdfrwt>
<totfact> 0.12646882E+01</totfact>
</mgrwt>
</event>
<event>
 8    1  0.6876290E-010  0.1574297E+04  0.7818608E-02  0.8836496E-01
         -2   -1    0    0    0  501 -0.00000000000E+00  0.00000000000E+00  0.18522147805E+03  0.18522147806E+03  0.25500000000E-02 0. -1.
          2   -1    0    0  501    0  0.00000000000E+00 -0.00000000000E+00 -0.33451997829E+04  0.33451997829E+04  0.25500000000E-02 0.  1.
     200001    2    1    2    0    0 -0.17504013193E+03 -0.84829825566E+01 -0.87598715183E+03  0.11351495445E+04  0.70035704419E+03 0.  0.
    5000001    2    3    3    0    0  0.57009138464E+01 -0.23537307689E+02 -0.35853044449E+03  0.39308795517E+03  0.15933472818E+03 0.  0.
        -11    1    4    4    0    0 -0.55092791520E+02 -0.62124779562E+02 -0.19258353678E+03  0.20972153574E+03  0.51100000000E-03 0. -1.
     200002    1    4    4    0    0  0.60793705366E+02  0.38587471873E+02 -0.16594690771E+03  0.18336641944E+03  0.30000000000E+02 0. -1.
     200000    1    3    3    0    0 -0.18074104577E+03  0.15054325133E+02 -0.51745670734E+03  0.74206158929E+03  0.50000000000E+03 0. -1.
    -200001    1    1    2    0    0  0.17504013193E+03  0.84829825566E+01 -0.22839911530E+04  0.23952717165E+04  0.70000000000E+03 0.  1.
<mgrwt>
<rscale>  0 0.15742971E+04</rscale>
<asrwt>0</asrwt>
<pdfrwt beam="1">  1        2 0.47788565E+00 0.15742971E+04</pdfrwt>
<pdfrwt beam="2">  1       -2 0.26460213E-01 0.15742971E+04</pdfrwt>
<totfact> 0.18694749E+01</totfact>
</mgrwt>
</event>
<event>
 8    1  0.6876290E-010  0.1627363E+04  0.7818608E-02  0.8803912E-01
         -2   -1    0    0    0  501 -0.00000000000E+00  0.00000000000E+00  0.44023174187E+03  0.44023174188E+03  0.25500000000E-02 0. -1.
          2   -1    0    0  501    0  0.00000000000E+00 -0.00000000000E+00 -0.15039298081E+04  0.15039298081E+04  0.25500000000E-02 0.  1.
     200001    2    1    2    0    0  0.31580593452E+03  0.27158251949E+02 -0.21182032540E+03  0.79691848758E+03  0.69981445160E+03 0.  0.
    5000001    2    3    3    0    0  0.85750668396E+02  0.34344074915E+01 -0.82767467784E+02  0.23110678187E+03  0.19797706588E+03 0.  0.
        -11    1    4    4    0    0  0.13500376067E+03  0.20605089261E+02 -0.99126681801E+02  0.16875036043E+03  0.51100000000E-03 0. -1.
     200002    1    4    4    0    0 -0.49253092277E+02 -0.17170681770E+02  0.16359214016E+02  0.62356421438E+02  0.30000000000E+02 0. -1.
     200000    1    3    3    0    0  0.23005526612E+03  0.23723844457E+02 -0.12905285762E+03  0.56581170572E+03  0.50000000000E+03 0. -1.
    -200001    1    1    2    0    0 -0.31580593452E+03 -0.27158251949E+02 -0.85187774087E+03  0.11472430624E+04  0.70000000000E+03 0.  1.
<mgrwt>
<rscale>  0 0.16273631E+04</rscale>
<asrwt>0</asrwt>
<pdfrwt beam="1">  1        2 0.21484711E+00 0.16273631E+04</pdfrwt>
<pdfrwt beam="2">  1       -2 0.62890250E-01 0.16273631E+04</pdfrwt>
<totfact> 0.32690830E+01</totfact>
</mgrwt>
</event>
<event>
 8    1  0.6876290E-010  0.1560025E+04  0.7818608E-02  0.8845490E-01
          2   -1    0    0  501    0  0.00000000000E+00  0.00000000000E+00  0.35046568088E+03  0.35046568088E+03  0.25500000000E-02 0.  1.
         -2   -1    0    0    0  501 -0.00000000000E+00 -0.00000000000E+00 -0.17360310721E+04  0.17360310721E+04  0.25500000000E-02 0. -1.
     200001    2    1    2    0    0 -0.31650884989E+03  0.86373680524E+02 -0.83292664553E+03  0.11362084557E+04  0.69968892603E+03 0.  0.
    5000001    2    3    3    0    0  0.32560073075E+02 -0.21941315314E+02 -0.21343904984E+03  0.26022550351E+03  0.14359493377E+03 0.  0.
        -11    1    4    4    0    0 -0.49064749824E+00  0.65990506478E+01 -0.20671433086E+03  0.20682021852E+03  0.51100000000E-03 0. -1.
     200002    1    4    4    0    0  0.33050720573E+02 -0.28540365962E+02 -0.67247189805E+01  0.53405284991E+02  0.30000000000E+02 0. -1.
     200000    1    3    3    0    0 -0.34906892297E+03  0.10831499584E+03 -0.61948759569E+03  0.87598295219E+03  0.50000000000E+03 0.  1.
    -200001    1    1    2    0    0  0.31650884989E+03 -0.86373680524E+02 -0.55263874572E+03  0.95028829731E+03  0.70000000000E+03 0.  1.
<mgrwt>
<rscale>  0 0.15600248E+04</rscale>
<asrwt>0</asrwt>
<pdfrwt beam="1">  1        2 0.50066527E-01 0.15600248E+04</pdfrwt>
<pdfrwt beam="2">  1       -2 0.24800443E+00 0.15600248E+04</pdfrwt>
<totfact> 0.63919518E+00</totfact>
</mgrwt>
</event>
<event>
 8    1  0.6876290E-010  0.1542265E+04  0.7818608E-02  0.8856823E-01
         -2   -1    0    0    0  501 -0.00000000000E+00  0.00000000000E+00  0.41626744561E+03  0.41626744562E+03  0.25500000000E-02 0. -1.
          2   -1    0    0  501    0  0.00000000000E+00 -0.00000000000E+00 -0.14285181370E+04  0.14285181370E+04  0.25500000000E-02 0.  1.
     200001    2    1    2    0    0 -0.16963049362E+03  0.20430767602E+03 -0.29866182851E+03  0.81051037938E+03  0.70513265165E+03 0.  0.
    5000001    2    3    3    0    0  0.23925151792E+01  0.96562509795E+02 -0.14064853186E+03  0.24822118481E+03  0.18028229156E+03 0.  0.
        -11    1    4    4    0    0  0.72853046976E+02  0.10417789320E+03 -0.79604535494E+02  0.14999160629E+03  0.51100000000E-03 0. -1.
     200002    1    4    4    0    0 -0.70460531796E+02 -0.76153834058E+01 -0.61043996362E+02  0.98229578525E+02  0.30000000000E+02 0. -1.
     200000    1    3    3    0    0 -0.17202300880E+03  0.10774516623E+03 -0.15801329666E+03  0.56228919456E+03  0.50000000000E+03 0.  1.
    -200001    1    1    2    0    0  0.16963049362E+03 -0.20430767602E+03 -0.71358886289E+03  0.10342752033E+04  0.70000000000E+03 0.  1.
<mgrwt>
<rscale>  0 0.15422653E+04</rscale>
<asrwt>0</asrwt>
<pdfrwt beam="1">  1        2 0.20407402E+00 0.15422653E+04</pdfrwt>
<pdfrwt beam="2">  1       -2 0.59466779E-01 0.15422653E+04</pdfrwt>
<totfact> 0.40659003E+01</totfact>
</mgrwt>
</event>
<event>
 8    1  0.6876290E-010  0.1614209E+04  0.7818608E-02  0.8811866E-01
          2   -1    0    0  501    0  0.00000000000E+00  0.00000000000E+00  0.27652745015E+03  0.27652745017E+03  0.25500000000E-02 0.  1.
         -2   -1    0    0    0  501 -0.00000000000E+00 -0.00000000000E+00 -0.23557061640E+04  0.23557061640E+04  0.25500000000E-02 0. -1.
     200001    2    1    2    0    0  0.28557319649E+03  0.19120849015E+03 -0.13765407771E+04  0.15825608998E+04  0.70108612386E+03 0.  0.
    5000001    2    3    3    0    0  0.51407778084E+02  0.11527247917E+03 -0.45548849119E+03  0.50602152083E+03  0.18071388943E+03 0.  0.
        -11    1    4    4    0    0  0.14079346245E+00  0.67055834902E+02 -0.29569970616E+02  0.73286342382E+02  0.51100000000E-03 0. -1.
     200002    1    4    4    0    0  0.51266984621E+02  0.48216644271E+02 -0.42591852057E+03  0.43273517845E+03  0.30000000000E+02 0. -1.
     200000    1    3    3    0    0  0.23416541841E+03  0.75936010979E+02 -0.92105228595E+03  0.10765393789E+04  0.50000000000E+03 0. -1.
    -200001    1    1    2    0    0 -0.28557319649E+03 -0.19120849015E+03 -0.70263793669E+03  0.10496727144E+04  0.70000000000E+03 0.  1.
<mgrwt>
<rscale>  0 0.16142087E+04</rscale>
<asrwt>0</asrwt>
<pdfrwt beam="1">  1        2 0.39503923E-01 0.16142087E+04</pdfrwt>
<pdfrwt beam="2">  1       -2 0.33652944E+00 0.16142087E+04</pdfrwt>
<totfact> 0.23820458E+00</totfact>
</mgrwt>
</event>
<event>
 8    1  0.6876290E-010  0.1564659E+04  0.7818608E-02  0.8842558E-01
          2   -1    0    0  501    0  0.00000000000E+00  0.00000000000E+00  0.34997499631E+03  0.34997499632E+03  0.25500000000E-02 0.  1.
         -2   -1    0    0    0  501 -0.00000000000E+00 -0.00000000000E+00 -0.17488087499E+04  0.17488087499E+04  0.25500000000E-02 0. -1.
     200001    2    1    2    0    0  0.30490042828E+03  0.48377427711E+02 -0.45377767986E+03  0.88287436261E+03  0.69155499473E+03 0.  0.
    5000001    2    3    3    0    0 -0.23379281239E+00  0.53406949153E+02 -0.54061887141E+02  0.17371647898E+03  0.15621258128E+03 0.  0.
        -11    1    4    4    0    0 -0.61811933937E+02  0.26186976308E+02  0.19170345207E+02  0.69813859948E+02  0.51100000000E-03 0. -1.
     200002    1    4    4    0    0  0.61578141124E+02  0.27219972845E+02 -0.73232232349E+02  0.10390261903E+03  0.30000000000E+02 0. -1.
     200000    1    3    3    0    0  0.30513422109E+03 -0.50295214416E+01 -0.39971579272E+03  0.70915788363E+03  0.50000000000E+03 0.  1.
    -200001    1    1    2    0    0 -0.30490042828E+03 -0.48377427711E+02 -0.94505607370E+03  0.12159093836E+04  0.70000000000E+03 0. -1.
<mgrwt>
<rscale>  0 0.15646589E+04</rscale>
<asrwt>0</asrwt>
<pdfrwt beam="1">  1        2 0.49996429E-01 0.15646589E+04</pdfrwt>
<pdfrwt beam="2">  1       -2 0.24982982E+00 0.15646589E+04</pdfrwt>
<totfact> 0.62366330E+00</totfact>
</mgrwt>
</event>
<event>
 8    1  0.6876290E-010  0.1792941E+04  0.7818608E-02  0.8710062E-01
          2   -1    0    0  501    0  0.00000000000E+00  0.00000000000E+00  0.27177357124E+04  0.27177357124E+04  0.25500000000E-02 0.  1.
         -2   -1    0    0    0  501 -0.00000000000E+00 -0.00000000000E+00 -0.29570910070E+03  0.29570910071E+03  0.25500000000E-02 0. -1.
     200001    2    1    2    0    0 -0.29925434717E+03  0.47208714706E+03  0.12967670585E+04  0.15751720641E+04  0.69795615088E+03 0.  0.
    5000001    2    3    3    0    0 -0.10568832674E+03  0.44405996833E+02  0.19493719825E+03  0.27732461094E+03  0.16051951162E+03 0.  0.
        -11    1    4    4    0    0 -0.85982892766E+02  0.84492164667E+02  0.18763800611E+03  0.22302467369E+03  0.51100000000E-03 0. -1.
     200002    1    4    4    0    0 -0.19705433977E+02 -0.40086167834E+02  0.72991921421E+01  0.54299937254E+02  0.30000000000E+02 0. -1.
     200000    1    3    3    0    0 -0.19356602043E+03  0.42768115023E+03  0.11018298603E+04  0.12978474531E+04  0.50000000000E+03 0.  1.
    -200001    1    1    2    0    0  0.29925434717E+03 -0.47208714706E+03  0.11252595532E+04  0.14382727491E+04  0.70000000000E+03 0.  1.
<mgrwt>
<rscale>  0 0.17929408E+04</rscale>
<asrwt>0</asrwt>
<pdfrwt beam="1">  1        2 0.38824796E+00 0.17929408E+04</pdfrwt>
<pdfrwt beam="2">  1       -2 0.42244157E-01 0.17929408E+04</pdfrwt>
<totfact> 0.16984650E+01</totfact>
</mgrwt>
</event>
<event>
 8    1  0.6876290E-010  0.1665608E+04  0.7818608E-02  0.8781226E-01
          2   -1    0    0  501    0  0.00000000000E+00  0.00000000000E+00  0.18796587945E+04  0.18796587945E+04  0.25500000000E-02 0.  1.
         -2   -1    0    0    0  501 -0.00000000000E+00 -0.00000000000E+00 -0.36898323477E+03  0.36898323478E+03  0.25500000000E-02 0. -1.
     200001    2    1    2    0    0 -0.22032328436E+03  0.23142350185E+03  0.32647476556E+03  0.83639888174E+03  0.70062695495E+03 0.  0.
    5000001    2    3    3    0    0 -0.12164733100E+03  0.88250058284E+02  0.13764189557E+03  0.27435490526E+03  0.18368227105E+03 0.  0.
        -11    1    4    4    0    0 -0.87706034860E+02  0.13511237851E+03  0.57460412311E+02  0.17102456655E+03  0.51100000000E-03 0. -1.
     200002    1    4    4    0    0 -0.33941296141E+02 -0.46862320231E+02  0.80181483261E+02  0.10333033872E+03  0.30000000000E+02 0. -1.
     200000    1    3    3    0    0 -0.98675953359E+02  0.14317344357E+03  0.18883286998E+03  0.56204397648E+03  0.50000000000E+03 0. -1.
    -200001    1    1    2    0    0  0.22032328436E+03 -0.23142350185E+03  0.11842007942E+04  0.14122431476E+04  0.70000000000E+03 0.  1.
<mgrwt>
<rscale>  0 0.16656081E+04</rscale>
<asrwt>0</asrwt>
<pdfrwt beam="1">  1        2 0.26852269E+00 0.16656081E+04</pdfrwt>
<pdfrwt beam="2">  1       -2 0.52711890E-01 0.16656081E+04</pdfrwt>
<totfact> 0.30048111E+01</totfact>
</mgrwt>
</event>
<event>
 8    1  0.6876290E-010  0.2188617E+04  0.7818608E-02  0.8523181E-01
         -2   -1    0    0    0  501 -0.00000000000E+00  0.00000000000E+00  0.84940859841E+03  0.84940859841E+03  0.25500000000E-02 0. -1.
          2   -1    0    0  501    0  0.00000000000E+00 -0.00000000000E+00 -0.14098174247E+04  0.14098174247E+04  0.25500000000E-02 0.  1.
     200001    2    1    2    0    0 -0.62167726167E+03 -0.10154534522E+03 -0.85612825992E+03  0.12721880005E+04  0.69907984969E+03 0.  0.
    5000001    2    3    3    0    0 -0.23809975275E+03 -0.63502958840E+01 -0.20887791511E+03  0.36382308941E+03  0.17890063847E+03 0.  0.
        -11    1    4    4    0    0 -0.19857725447E+03 -0.71413609463E+02 -0.17898178827E+03  0.27670798713E+03  0.51100000000E-03 0. -1.
     200002    1    4    4    0    0 -0.39522498279E+02  0.65063313579E+02 -0.29896126844E+02  0.87115102275E+02  0.30000000000E+02 0. -1.
     200000    1    3    3    0    0 -0.38357750892E+03 -0.95195049340E+02 -0.64725034480E+03  0.90836491105E+03  0.50000000000E+03 0.  1.
    -200001    1    1    2    0    0  0.62167726167E+03  0.10154534522E+03  0.29571943360E+03  0.98703802269E+03  0.70000000000E+03 0. -1.
<mgrwt>
<rscale>  0 0.21886170E+04</rscale>
<asrwt>0</asrwt>
<pdfrwt beam="1">  1        2 0.20140249E+00 0.21886170E+04</pdfrwt>
<pdfrwt beam="2">  1       -2 0.12134409E+00 0.21886170E+04</pdfrwt>
<totfact> 0.77612435E+00</totfact>
</mgrwt>
</event>
<event>
 8    1  0.6876290E-010  0.2081178E+04  0.7818608E-02  0.8569580E-01
         -2   -1    0    0    0  501 -0.00000000000E+00  0.00000000000E+00  0.55620434719E+03  0.55620434719E+03  0.25500000000E-02 0. -1.
          2   -1    0    0  501    0  0.00000000000E+00 -0.00000000000E+00 -0.19468115323E+04  0.19468115323E+04  0.25500000000E-02 0.  1.
     200001    2    1    2    0    0  0.37319560803E+03 -0.19416354412E+03 -0.14709296797E+04  0.16823904187E+04  0.69987781408E+03 0.  0.
    5000001    2    3    3    0    0  0.77546755570E+01 -0.15297580487E+02 -0.22656348917E+03  0.28096709787E+03  0.16527959492E+03 0.  0.
        -11    1    4    4    0    0  0.41200824109E+02  0.63305754297E+02 -0.10783234258E+03  0.13165462598E+03  0.51100000000E-03 0. -1.
     200002    1    4    4    0    0 -0.33446148552E+02 -0.78603334784E+02 -0.11873114658E+03  0.14931247189E+03  0.30000000000E+02 0. -1.
     200000    1    3    3    0    0  0.36544093248E+03 -0.17886596363E+03 -0.12443661906E+04  0.14014233209E+04  0.50000000000E+03 0.  1.
    -200001    1    1    2    0    0 -0.37319560803E+03  0.19416354412E+03  0.80322494599E+02  0.82062546077E+03  0.70000000000E+03 0.  1.
<mgrwt>
<rscale>  0 0.20811776E+04</rscale>
<asrwt>0</asrwt>
<pdfrwt beam="1">  1        2 0.27811593E+00 0.20811776E+04</pdfrwt>
<pdfrwt beam="2">  1       -2 0.79457765E-01 0.20811776E+04</pdfrwt>
<totfact> 0.11117095E+01</totfact>
</mgrwt>
</event>
<event>
 8    1  0.6876290E-010  0.1664962E+04  0.7818608E-02  0.8781604E-01
          2   -1    0    0  501    0  0.00000000000E+00  0.00000000000E+00  0.24996609428E+04  0.24996609428E+04  0.25500000000E-02 0.  1.
         -2   -1    0    0    0  501 -0.00000000000E+00 -0.00000000000E+00 -0.27724761032E+03  0.27724761033E+03  0.25500000000E-02 0. -1.
     200001    2    1    2    0    0 -0.95391922165E+01  0.32270264346E+03  0.58686862587E+03  0.96880610038E+03  0.69995891581E+03 0.  0.
    5000001    2    3    3    0    0 -0.86497862840E+02  0.12906450828E+03  0.67357520846E+02  0.21826619297E+03  0.13770827065E+03 0.  0.
        -11    1    4    4    0    0  0.78399224156E+01 -0.23776241465E+02  0.13102954585E+02  0.28257060371E+02  0.51100000000E-03 0. -1.
     200002    1    4    4    0    0 -0.94337785255E+02  0.15284074975E+03  0.54254566261E+02  0.19000913260E+03  0.30000000000E+02 0. -1.
     200000    1    3    3    0    0  0.76958670623E+02  0.19363813518E+03  0.51951110502E+03  0.75053990741E+03  0.50000000000E+03 0. -1.
    -200001    1    1    2    0    0  0.95391922165E+01 -0.32270264346E+03  0.16355447066E+04  0.18081024527E+04  0.70000000000E+03 0.  1.
<mgrwt>
<rscale>  0 0.16649625E+04</rscale>
<asrwt>0</asrwt>
<pdfrwt beam="1">  1        2 0.35709440E+00 0.16649625E+04</pdfrwt>
<pdfrwt beam="2">  1       -2 0.39606804E-01 0.16649625E+04</pdfrwt>
<totfact> 0.25448980E+01</totfact>
</mgrwt>
</event>
<event>
 8    1  0.6876290E-010  0.2829103E+04  0.7818608E-02  0.8294290E-01
         -2   -1    0    0    0  501 -0.00000000000E+00  0.00000000000E+00  0.95722586032E+03  0.95722586032E+03  0.25500000000E-02 0. -1.
          2   -1    0    0  501    0  0.00000000000E+00 -0.00000000000E+00 -0.20903700019E+04  0.20903700019E+04  0.25500000000E-02 0.  1.
     200001    2    1    2    0    0 -0.60971731199E+03  0.44923731520E+03 -0.16093412119E+04  0.19116676005E+04  0.70066005481E+03 0.  0.
    5000001    2    3    3    0    0 -0.24084401052E+03  0.20057625162E+03 -0.60698592361E+03  0.70642241335E+03  0.17990009591E+03 0.  0.
        -11    1    4    4    0    0 -0.20806377193E+03  0.99068930742E+02 -0.28867198066E+03  0.36937338649E+03  0.51100000000E-03 0. -1.
     200002    1    4    4    0    0 -0.32780238592E+02  0.10150732088E+03 -0.31831394295E+03  0.33704902686E+03  0.30000000000E+02 0. -1.
     200000    1    3    3    0    0 -0.36887330146E+03  0.24866106358E+03 -0.10023552883E+04  0.12052451871E+04  0.50000000000E+03 0.  1.
    -200001    1    1    2    0    0  0.60971731199E+03 -0.44923731520E+03  0.47619707038E+03  0.11359282617E+04  0.70000000000E+03 0. -1.
<mgrwt>
<rscale>  0 0.28291032E+04</rscale>
<asrwt>0</asrwt>
<pdfrwt beam="1">  1        2 0.29862428E+00 0.28291032E+04</pdfrwt>
<pdfrwt beam="2">  1       -2 0.13674655E+00 0.28291032E+04</pdfrwt>
<totfact> 0.24056745E+00</totfact>
</mgrwt>
</event>
<event>
 8    1  0.6876290E-010  0.1794180E+04  0.7818608E-02  0.8709401E-01
         -2   -1    0    0    0  501 -0.00000000000E+00  0.00000000000E+00  0.58148002978E+03  0.58148002978E+03  0.25500000000E-02 0. -1.
          2   -1    0    0  501    0  0.00000000000E+00 -0.00000000000E+00 -0.13840030813E+04  0.13840030813E+04  0.25500000000E-02 0.  1.
     200001    2    1    2    0    0  0.11563911386E+03  0.34670744212E+03  0.65378713641E+02  0.79209829398E+03  0.69969055736E+03 0.  0.
    5000001    2    3    3    0    0  0.64382605197E+02  0.78233453046E+02  0.25891327030E+02  0.22090238521E+03  0.19458137103E+03 0.  0.
        -11    1    4    4    0    0  0.38009721873E+02 -0.62402033254E+02  0.12003721074E+02  0.74046215507E+02  0.51100000000E-03 0. -1.
     200002    1    4    4    0    0  0.26372883324E+02  0.14063548630E+03  0.13887605955E+02  0.14685616971E+03  0.30000000000E+02 0. -1.
     200000    1    3    3    0    0  0.51256508665E+02  0.26847398907E+03  0.39487386611E+02  0.57119590876E+03  0.50000000000E+03 0. -1.
    -200001    1    1    2    0    0 -0.11563911386E+03 -0.34670744212E+03 -0.86790176521E+03  0.11733848172E+04  0.70000000000E+03 0. -1.
<mgrwt>
<rscale>  0 0.17941796E+04</rscale>
<asrwt>0</asrwt>
<pdfrwt beam="1">  1        2 0.19771472E+00 0.17941796E+04</pdfrwt>
<pdfrwt beam="2">  1       -2 0.83068576E-01 0.17941796E+04</pdfrwt>
<totfact> 0.20304766E+01</totfact>
</mgrwt>
</event>
<event>
 8    1  0.6876290E-010  0.1635230E+04  0.7818608E-02  0.8799192E-01
         -2   -1    0    0    0  501 -0.00000000000E+00  0.00000000000E+00  0.57643193341E+03  0.57643193342E+03  0.25500000000E-02 0. -1.
          2   -1    0    0  501    0  0.00000000000E+00 -0.00000000000E+00 -0.11597107744E+04  0.11597107744E+04  0.25500000000E-02 0.  1.
     200001    2    1    2    0    0  0.31635755876E+03  0.16137823460E+03 -0.40455430775E+02  0.78179356088E+03  0.69529813056E+03 0.  0.
    5000001    2    3    3    0    0 -0.55051116066E+02  0.69729021175E+02  0.73124559018E+02  0.14207143672E+03  0.83332648015E+02 0.  0.
        -11    1    4    4    0    0 -0.24857631440E+02 -0.48609644042E+01 -0.51793764571E+01  0.25852596707E+02  0.51100000000E-03 0. -1.
     200002    1    4    4    0    0 -0.30193484626E+02  0.74589985579E+02  0.78303935476E+02  0.11621884001E+03  0.30000000000E+02 0. -1.
     200000    1    3    3    0    0  0.37140867483E+03  0.91649213427E+02 -0.11357998979E+03  0.63972212416E+03  0.50000000000E+03 0. -1.
    -200001    1    1    2    0    0 -0.31635755876E+03 -0.16137823460E+03 -0.54282341020E+03  0.95434914693E+03  0.70000000000E+03 0.  1.
<mgrwt>
<rscale>  0 0.16352300E+04</rscale>
<asrwt>0</asrwt>
<pdfrwt beam="1">  1        2 0.16567297E+00 0.16352300E+04</pdfrwt>
<pdfrwt beam="2">  1       -2 0.82347419E-01 0.16352300E+04</pdfrwt>
<totfact> 0.27986864E+01</totfact>
</mgrwt>
</event>
<event>
 8    1  0.6876290E-010  0.1705639E+04  0.7818608E-02  0.8758155E-01
          2   -1    0    0  501    0  0.00000000000E+00  0.00000000000E+00  0.13691863428E+04  0.13691863428E+04  0.25500000000E-02 0.  1.
         -2   -1    0    0    0  501 -0.00000000000E+00 -0.00000000000E+00 -0.53119206672E+03  0.53119206672E+03  0.25500000000E-02 0. -1.
     200001    2    1    2    0    0  0.97480748448E+02  0.20608974110E+03  0.89897688930E+03  0.11616671284E+04  0.69952526190E+03 0.  0.
    5000001    2    3    3    0    0  0.91643252093E+02 -0.91492129323E+01  0.30413281143E+03  0.35531648467E+03  0.15896805822E+03 0.  0.
        -11    1    4    4    0    0  0.79506009753E+02 -0.24507356124E+01  0.39835722198E+02  0.88961207586E+02  0.51100000000E-03 0. -1.
     200002    1    4    4    0    0  0.12137242341E+02 -0.66984773198E+01  0.26429708924E+03  0.26635527708E+03  0.30000000000E+02 0. -1.
     200000    1    3    3    0    0  0.58374963546E+01  0.21523895404E+03  0.59484407787E+03  0.80635064375E+03  0.50000000000E+03 0.  1.
    -200001    1    1    2    0    0 -0.97480748448E+02 -0.20608974110E+03 -0.60982613228E+02  0.73871128110E+03  0.70000000000E+03 0. -1.
<mgrwt>
<rscale>  0 0.17056388E+04</rscale>
<asrwt>0</asrwt>
<pdfrwt beam="1">  1        2 0.19559805E+00 0.17056388E+04</pdfrwt>
<pdfrwt beam="2">  1       -2 0.75884580E-01 0.17056388E+04</pdfrwt>
<totfact> 0.25515237E+01</totfact>
</mgrwt>
</event>
<event>
 8    1  0.6876290E-010  0.1648975E+04  0.7818608E-02  0.8791013E-01
         -2   -1    0    0    0  501 -0.00000000000E+00  0.00000000000E+00  0.40993329184E+03  0.40993329185E+03  0.25500000000E-02 0. -1.
          2   -1    0    0  501    0  0.00000000000E+00 -0.00000000000E+00 -0.16582690182E+04  0.16582690182E+04  0.25500000000E-02 0.  1.
     200001    2    1    2    0    0 -0.11505918119E+03 -0.41679363003E+03 -0.57179972390E+03  0.10029997435E+04  0.70149698216E+03 0.  0.
    5000001    2    3    3    0    0  0.23487989999E+02 -0.20682764570E+03 -0.13799476540E+03  0.29485584904E+03  0.15674200375E+03 0.  0.
        -11    1    4    4    0    0  0.13080996987E+02 -0.15787241169E+02  0.31441951272E+02  0.37535926337E+02  0.51100000000E-03 0. -1.
     200002    1    4    4    0    0  0.10406993012E+02 -0.19104040453E+03 -0.16943671667E+03  0.25731992271E+03  0.30000000000E+02 0. -1.
     200000    1    3    3    0    0 -0.13854717119E+03 -0.20996598433E+03 -0.43380495850E+03  0.70814389445E+03  0.50000000000E+03 0.  1.
    -200001    1    1    2    0    0  0.11505918119E+03  0.41679363003E+03 -0.67653600248E+03  0.10652025666E+04  0.70000000000E+03 0. -1.
<mgrwt>
<rscale>  0 0.16489750E+04</rscale>
<asrwt>0</asrwt>
<pdfrwt beam="1">  1        2 0.23689557E+00 0.16489750E+04</pdfrwt>
<pdfrwt beam="2">  1       -2 0.58561900E-01 0.16489750E+04</pdfrwt>
<totfact> 0.31476464E+01</totfact>
</mgrwt>
</event>
<event>
 8    1  0.6876290E-010  0.1778370E+04  0.7818608E-02  0.8717887E-01
         -2   -1    0    0    0  501 -0.00000000000E+00  0.00000000000E+00  0.30721050141E+03  0.30721050142E+03  0.25500000000E-02 0.  1.
          2   -1    0    0  501    0  0.00000000000E+00 -0.00000000000E+00 -0.25736417715E+04  0.25736417715E+04  0.25500000000E-02 0. -1.
     200001    2    1    2    0    0  0.32306591942E+03  0.40833105675E+03 -0.13958301351E+04  0.16483539255E+04  0.70542402667E+03 0.  0.
    5000001    2    3    3    0    0  0.12453512390E+03  0.10666457952E+03 -0.49645410554E+03  0.55780618109E+03  0.19440866017E+03 0.  0.
        -11    1    4    4    0    0  0.11159683878E+03  0.12296517609E+03 -0.49405625974E+03  0.52121576794E+03  0.51100000000E-03 0. -1.
     200002    1    4    4    0    0  0.12938285123E+02 -0.16300596565E+02 -0.23978457956E+01  0.36590413154E+02  0.30000000000E+02 0. -1.
     200000    1    3    3    0    0  0.19853079551E+03  0.30166647722E+03 -0.89937602956E+03  0.10905477444E+04  0.50000000000E+03 0. -1.
    -200001    1    1    2    0    0 -0.32306591942E+03 -0.40833105675E+03 -0.87060113499E+03  0.12324983474E+04  0.70000000000E+03 0.  1.
<mgrwt>
<rscale>  0 0.17783698E+04</rscale>
<asrwt>0</asrwt>
<pdfrwt beam="1">  1        2 0.36766310E+00 0.17783698E+04</pdfrwt>
<pdfrwt beam="2">  1       -2 0.43887216E-01 0.17783698E+04</pdfrwt>
<totfact> 0.18823243E+01</totfact>
</mgrwt>
</event>
<event>
 8    1  0.6876290E-010  0.1736401E+04  0.7818608E-02  0.8740872E-01
         -2   -1    0    0    0  501 -0.00000000000E+00  0.00000000000E+00  0.24399329434E+03  0.24399329435E+03  0.25500000000E-02 0.  1.
          2   -1    0    0  501    0  0.00000000000E+00 -0.00000000000E+00 -0.30893145377E+04  0.30893145377E+04  0.25500000000E-02 0. -1.
     200001    2    1    2    0    0 -0.47986140873E+03 -0.16514943998E+03 -0.15717087868E+04  0.17939475758E+04  0.70031284793E+03 0.  0.
    5000001    2    3    3    0    0 -0.72148394658E+02 -0.14535907262E+03 -0.39501672446E+03  0.45185004948E+03  0.14763334234E+03 0.  0.
        -11    1    4    4    0    0 -0.22153943527E+02 -0.33711856989E+02 -0.34071189398E+01  0.40483267842E+02  0.51100000000E-03 0. -1.
     200002    1    4    4    0    0 -0.49994451131E+02 -0.11164721563E+03 -0.39160960552E+03  0.41136678164E+03  0.30000000000E+02 0. -1.
     200000    1    3    3    0    0 -0.40771301407E+03 -0.19790367362E+02 -0.11766920624E+04  0.13420975263E+04  0.50000000000E+03 0.  1.
    -200001    1    1    2    0    0  0.47986140873E+03  0.16514943998E+03 -0.12736124565E+04  0.15393602562E+04  0.70000000000E+03 0. -1.
<mgrwt>
<rscale>  0 0.17364009E+04</rscale>
<asrwt>0</asrwt>
<pdfrwt beam="1">  1        2 0.44133063E+00 0.17364009E+04</pdfrwt>
<pdfrwt beam="2">  1       -2 0.34856187E-01 0.17364009E+04</pdfrwt>
<totfact> 0.15471281E+01</totfact>
</mgrwt>
</event>
<event>
 8    1  0.6876290E-010  0.1632958E+04  0.7818608E-02  0.8800552E-01
         -2   -1    0    0    0  501 -0.00000000000E+00  0.00000000000E+00  0.31895725177E+03  0.31895725178E+03  0.25500000000E-02 0. -1.
          2   -1    0    0  501    0  0.00000000000E+00 -0.00000000000E+00 -0.20900552154E+04  0.20900552154E+04  0.25500000000E-02 0.  1.
     200001    2    1    2    0    0  0.28581097079E+03 -0.25152696617E+03 -0.63453561251E+03  0.10209462931E+04  0.70337910407E+03 0.  0.
    5000001    2    3    3    0    0  0.77992446567E+02 -0.11463679495E+03 -0.22657598860E+03  0.32931162596E+03  0.19464082796E+03 0.  0.
        -11    1    4    4    0    0 -0.27033980979E+02 -0.77983644373E+02 -0.19205330146E+03  0.20903768923E+03  0.51100000000E-03 0. -1.
     200002    1    4    4    0    0  0.10502642755E+03 -0.36653150579E+02 -0.34522687139E+02  0.12027393673E+03  0.30000000000E+02 0. -1.
     200000    1    3    3    0    0  0.20781852422E+03 -0.13689017122E+03 -0.40795962391E+03  0.69163466710E+03  0.50000000000E+03 0.  1.
    -200001    1    1    2    0    0 -0.28581097079E+03  0.25152696617E+03 -0.11365623511E+04  0.13880661741E+04  0.70000000000E+03 0.  1.
<mgrwt>
<rscale>  0 0.16329584E+04</rscale>
<asrwt>0</asrwt>
<pdfrwt beam="1">  1        2 0.29857931E+00 0.16329584E+04</pdfrwt>
<pdfrwt beam="2">  1       -2 0.45565323E-01 0.16329584E+04</pdfrwt>
<totfact> 0.31560063E+01</totfact>
</mgrwt>
</event>
<event>
 8    1  0.6876290E-010  0.1871406E+04  0.7818608E-02  0.8669222E-01
          2   -1    0    0  501    0  0.00000000000E+00  0.00000000000E+00  0.85863516700E+03  0.85863516700E+03  0.25500000000E-02 0. -1.
         -2   -1    0    0    0  501 -0.00000000000E+00 -0.00000000000E+00 -0.10196882758E+04  0.10196882758E+04  0.25500000000E-02 0.  1.
     200001    2    1    2    0    0 -0.25058730110E+03 -0.10812525313E+03 -0.64052878560E+03  0.98704234767E+03  0.69963590893E+03 0.  0.
    5000001    2    3    3    0    0 -0.48440986297E+02 -0.45909223387E+02 -0.23086642363E+03  0.30692675620E+03  0.19092025080E+03 0.  0.
        -11    1    4    4    0    0 -0.16266009410E+02 -0.11726377956E+03 -0.13225565800E+03  0.17750193276E+03  0.51100000000E-03 0. -1.
     200002    1    4    4    0    0 -0.32174976888E+02  0.71354556175E+02 -0.98610765628E+02  0.12942482344E+03  0.30000000000E+02 0. -1.
     200000    1    3    3    0    0 -0.20214631480E+03 -0.62216029746E+02 -0.40966236197E+03  0.68011559147E+03  0.50000000000E+03 0.  1.
    -200001    1    1    2    0    0  0.25058730110E+03  0.10812525313E+03  0.47947567682E+03  0.89128109511E+03  0.70000000000E+03 0. -1.
<mgrwt>
<rscale>  0 0.18714061E+04</rscale>
<asrwt>0</asrwt>
<pdfrwt beam="1">  1        2 0.12266217E+00 0.18714061E+04</pdfrwt>
<pdfrwt beam="2">  1       -2 0.14566975E+00 0.18714061E+04</pdfrwt>
<totfact> 0.10559885E+01</totfact>
</mgrwt>
</event>
<event>
 8    1  0.6876290E-010  0.1502172E+04  0.7818608E-02  0.8883010E-01
          2   -1    0    0  501    0  0.00000000000E+00  0.00000000000E+00  0.19311923679E+04  0.19311923679E+04  0.25500000000E-02 0.  1.
         -2   -1    0    0    0  501 -0.00000000000E+00 -0.00000000000E+00 -0.29211496078E+03  0.29211496079E+03  0.25500000000E-02 0. -1.
     200001    2    1    2    0    0  0.15885846608E+03 -0.22102729859E+03  0.78655340885E+03  0.10871355782E+04  0.69936286825E+03 0.  0.
    5000001    2    3    3    0    0  0.81402174071E+02 -0.82467475088E+02  0.27116280029E+03  0.35172699705E+03  0.19171702533E+03 0.  0.
        -11    1    4    4    0    0 -0.29641865191E+02 -0.10692099366E+02 -0.15127887855E+02  0.34954458257E+02  0.51100000000E-03 0. -1.
     200002    1    4    4    0    0  0.11104403926E+03 -0.71775375722E+02  0.28629068815E+03  0.31677253880E+03  0.30000000000E+02 0. -1.
     200000    1    3    3    0    0  0.77456292004E+02 -0.13855982350E+03  0.51539060856E+03  0.73540858116E+03  0.50000000000E+03 0.  1.
    -200001    1    1    2    0    0 -0.15885846608E+03  0.22102729859E+03  0.85252399828E+03  0.11361717505E+04  0.70000000000E+03 0. -1.
<mgrwt>
<rscale>  0 0.15021720E+04</rscale>
<asrwt>0</asrwt>
<pdfrwt beam="1">  1        2 0.27588463E+00 0.15021720E+04</pdfrwt>
<pdfrwt beam="2">  1       -2 0.41730707E-01 0.15021720E+04</pdfrwt>
<totfact> 0.45824312E+01</totfact>
</mgrwt>
</event>
<event>
 8    1  0.6876290E-010  0.1861854E+04  0.7818608E-02  0.8674080E-01
         -2   -1    0    0    0  501 -0.00000000000E+00  0.00000000000E+00  0.15975665775E+04  0.15975665776E+04  0.25500000000E-02 0. -1.
          2   -1    0    0  501    0  0.00000000000E+00 -0.00000000000E+00 -0.54246580550E+03  0.54246580551E+03  0.25500000000E-02 0.  1.
     200001    2    1    2    0    0  0.42203010644E+03  0.26323121433E+03  0.94130012644E+03  0.12738045436E+04  0.69937972825E+03 0.  0.
    5000001    2    3    3    0    0  0.13101055552E+03 -0.12332222799E+02  0.31740206809E+03  0.37944646423E+03  0.16099595340E+03 0.  0.
        -11    1    4    4    0    0  0.47655943281E+02 -0.25680358987E+02  0.48998708417E+01  0.54356034645E+02  0.51100000000E-03 0. -1.
     200002    1    4    4    0    0  0.83354612237E+02  0.13348136188E+02  0.31250219725E+03  0.32509042958E+03  0.30000000000E+02 0. -1.
     200000    1    3    3    0    0  0.29101955092E+03  0.27556343712E+03  0.62389805835E+03  0.89435807936E+03  0.50000000000E+03 0. -1.
    -200001    1    1    2    0    0 -0.42203010644E+03 -0.26323121433E+03  0.11380064561E+03  0.86622783947E+03  0.70000000000E+03 0.  1.
<mgrwt>
<rscale>  0 0.18618542E+04</rscale>
<asrwt>0</asrwt>
<pdfrwt beam="1">  1        2 0.77495116E-01 0.18618542E+04</pdfrwt>
<pdfrwt beam="2">  1       -2 0.22822380E+00 0.18618542E+04</pdfrwt>
<totfact> 0.50473783E+00</totfact>
</mgrwt>
</event>
<event>
 8    1  0.6876290E-010  0.1774620E+04  0.7818608E-02  0.8719914E-01
          2   -1    0    0  501    0  0.00000000000E+00  0.00000000000E+00  0.22872543597E+04  0.22872543597E+04  0.25500000000E-02 0.  1.
         -2   -1    0    0    0  501 -0.00000000000E+00 -0.00000000000E+00 -0.34421999164E+03  0.34421999165E+03  0.25500000000E-02 0. -1.
     200001    2    1    2    0    0 -0.47156647980E+03  0.25376309529E+03  0.11252175592E+04  0.14291453672E+04  0.69969369838E+03 0.  0.
    5000001    2    3    3    0    0 -0.15391965226E+03  0.39202485701E+02  0.19921315822E+03  0.30913647753E+03  0.17507536974E+03 0.  0.
        -11    1    4    4    0    0 -0.50893420944E+02 -0.54204738468E+02  0.13265646348E+03  0.15207245402E+03  0.51100000000E-03 0. -1.
     200002    1    4    4    0    0 -0.10302623131E+03  0.93407224169E+02  0.66556694747E+02  0.15706402351E+03  0.30000000000E+02 0. -1.
     200000    1    3    3    0    0 -0.31764682755E+03  0.21456060959E+03  0.92600440100E+03  0.11200088897E+04  0.50000000000E+03 0. -1.
    -200001    1    1    2    0    0  0.47156647980E+03 -0.25376309529E+03  0.81781680888E+03  0.12023289842E+04  0.70000000000E+03 0. -1.
<mgrwt>
<rscale>  0 0.17746196E+04</rscale>
<asrwt>0</asrwt>
<pdfrwt beam="1">  1        2 0.32675063E+00 0.17746196E+04</pdfrwt>
<pdfrwt beam="2">  1       -2 0.49174283E-01 0.17746196E+04</pdfrwt>
<totfact> 0.21162655E+01</totfact>
</mgrwt>
</event>
<event>
 8    1  0.6876290E-010  0.1746353E+04  0.7818608E-02  0.8735360E-01
          2   -1    0    0  501    0  0.00000000000E+00  0.00000000000E+00  0.25771873909E+04  0.25771873909E+04  0.25500000000E-02 0.  1.
         -2   -1    0    0    0  501 -0.00000000000E+00 -0.00000000000E+00 -0.29584077651E+03  0.29584077652E+03  0.25500000000E-02 0. -1.
     200001    2    1    2    0    0 -0.15583514568E+03 -0.38042361243E+03  0.16709588284E+04  0.18573609154E+04  0.69905611098E+03 0.  0.
    5000001    2    3    3    0    0 -0.88182167202E+02 -0.82163626097E+02  0.31732779099E+03  0.38228365288E+03  0.17583204560E+03 0.  0.
        -11    1    4    4    0    0 -0.20009498094E+02  0.27704317295E+02 -0.42031729291E+01  0.34432192403E+02  0.51100000000E-03 0. -1.
     200002    1    4    4    0    0 -0.68172669108E+02 -0.10986794339E+03  0.32153096392E+03  0.34785146048E+03  0.30000000000E+02 0. -1.
     200000    1    3    3    0    0 -0.67652978480E+02 -0.29825998633E+03  0.13536310374E+04  0.14750772625E+04  0.50000000000E+03 0.  1.
    -200001    1    1    2    0    0  0.15583514568E+03  0.38042361243E+03  0.61038778596E+03  0.10156672520E+04  0.70000000000E+03 0. -1.
<mgrwt>
<rscale>  0 0.17463529E+04</rscale>
<asrwt>0</asrwt>
<pdfrwt beam="1">  1        2 0.36816964E+00 0.17463529E+04</pdfrwt>
<pdfrwt beam="2">  1       -2 0.42262966E-01 0.17463529E+04</pdfrwt>
<totfact> 0.20250662E+01</totfact>
</mgrwt>
</event>
<event>
 8    1  0.6876290E-010  0.2170091E+04  0.7818608E-02  0.8530981E-01
          2   -1    0    0  501    0  0.00000000000E+00  0.00000000000E+00  0.30808539688E+04  0.30808539688E+04  0.25500000000E-02 0.  1.
         -2   -1    0    0    0  501 -0.00000000000E+00 -0.00000000000E+00 -0.38214204973E+03  0.38214204974E+03  0.25500000000E-02 0. -1.
     200001    2    1    2    0    0  0.61328604862E+03 -0.85780356058E+02  0.22281364684E+04  0.24166121016E+04  0.70138711199E+03 0.  0.
    5000001    2    3    3    0    0  0.18628872599E+03  0.89841165937E+02  0.64520286606E+03  0.69357744671E+03  0.14828355165E+03 0.  0.
        -11    1    4    4    0    0  0.14684436535E+03  0.11617275294E+02  0.50097108502E+03  0.52217837637E+03  0.51100000000E-03 0. -1.
     200002    1    4    4    0    0  0.39444360642E+02  0.78223890643E+02  0.14423178104E+03  0.17139907034E+03  0.30000000000E+02 0. -1.
     200000    1    3    3    0    0  0.42699732262E+03 -0.17562152199E+03  0.15829336023E+04  0.17230346548E+04  0.50000000000E+03 0.  1.
    -200001    1    1    2    0    0 -0.61328604862E+03  0.85780356058E+02  0.47057545073E+03  0.10463839170E+04  0.70000000000E+03 0. -1.
<mgrwt>
<rscale>  0 0.21700911E+04</rscale>
<asrwt>0</asrwt>
<pdfrwt beam="1">  1        2 0.44012201E+00 0.21700911E+04</pdfrwt>
<pdfrwt beam="2">  1       -2 0.54591720E-01 0.21700911E+04</pdfrwt>
<totfact> 0.61726414E+00</totfact>
</mgrwt>
</event>
<event>
 8    1  0.6876290E-010  0.1487464E+04  0.7818608E-02  0.8892832E-01
         -2   -1    0    0    0  501 -0.00000000000E+00  0.00000000000E+00  0.20422438782E+03  0.20422438784E+03  0.25500000000E-02 0. -1.
          2   -1    0    0  501    0  0.00000000000E+00 -0.00000000000E+00 -0.27084799421E+04  0.27084799421E+04  0.25500000000E-02 0.  1.
     200001    2    1    2    0    0 -0.18330372203E+03  0.62809951455E+02 -0.15619883012E+04  0.17229930538E+04  0.70096523854E+03 0.  0.
    5000001    2    3    3    0    0 -0.35957079386E+02 -0.65248697896E+02 -0.52465099611E+03  0.55501243092E+03  0.16501462546E+03 0.  0.
        -11    1    4    4    0    0 -0.68261569021E+01  0.10066244481E+02 -0.41681455106E+03  0.41699196116E+03  0.51100000000E-03 0. -1.
     200002    1    4    4    0    0 -0.29130922484E+02 -0.75314942377E+02 -0.10783644505E+03  0.13802046975E+03  0.30000000000E+02 0. -1.
     200000    1    3    3    0    0 -0.14734664264E+03  0.12805864935E+03 -0.10373373051E+04  0.11679806229E+04  0.50000000000E+03 0. -1.
    -200001    1    1    2    0    0  0.18330372203E+03 -0.62809951455E+02 -0.94226725308E+03  0.11897112762E+04  0.70000000000E+03 0. -1.
<mgrwt>
<rscale>  0 0.14874645E+04</rscale>
<asrwt>0</asrwt>
<pdfrwt beam="1">  1        2 0.38692569E+00 0.14874645E+04</pdfrwt>
<pdfrwt beam="2">  1       -2 0.29174914E-01 0.14874645E+04</pdfrwt>
<totfact> 0.35790948E+01</totfact>
</mgrwt>
</event>
<event>
 8    1  0.6876290E-010  0.1751209E+04  0.7818608E-02  0.8732685E-01
         -2   -1    0    0    0  501 -0.00000000000E+00  0.00000000000E+00  0.15026719412E+04  0.15026719412E+04  0.25500000000E-02 0. -1.
          2   -1    0    0  501    0  0.00000000000E+00 -0.00000000000E+00 -0.51021305274E+03  0.51021305275E+03  0.25500000000E-02 0.  1.
     200001    2    1    2    0    0  0.55447668898E+01 -0.47943759659E+03  0.74568453678E+03  0.11292624874E+04  0.69949780807E+03 0.  0.
    5000001    2    3    3    0    0 -0.70306860142E+02 -0.12057682714E+03  0.23437630832E+03  0.32553950917E+03  0.17765666974E+03 0.  0.
        -11    1    4    4    0    0 -0.95846791497E+02 -0.75684685830E+02  0.23606685216E+03  0.26578626337E+03  0.51100000000E-03 0. -1.
     200002    1    4    4    0    0  0.25539931355E+02 -0.44892141312E+02 -0.16905438374E+01  0.59753245800E+02  0.30000000000E+02 0. -1.
     200000    1    3    3    0    0  0.75851627032E+02 -0.35886076945E+03  0.51130822846E+03  0.80372297819E+03  0.50000000000E+03 0. -1.
    -200001    1    1    2    0    0 -0.55447668898E+01  0.47943759659E+03  0.24677435163E+03  0.88362250655E+03  0.70000000000E+03 0.  1.
<mgrwt>
<rscale>  0 0.17512085E+04</rscale>
<asrwt>0</asrwt>
<pdfrwt beam="1">  1        2 0.72887579E-01 0.17512085E+04</pdfrwt>
<pdfrwt beam="2">  1       -2 0.21466742E+00 0.17512085E+04</pdfrwt>
<totfact> 0.66572549E+00</totfact>
</mgrwt>
</event>
<event>
 8    1  0.6876290E-010  0.2005137E+04  0.7818608E-02  0.8604223E-01
         -2   -1    0    0    0  501 -0.00000000000E+00  0.00000000000E+00  0.43661414975E+03  0.43661414975E+03  0.25500000000E-02 0. -1.
          2   -1    0    0  501    0  0.00000000000E+00 -0.00000000000E+00 -0.23021314012E+04  0.23021314012E+04  0.25500000000E-02 0.  1.
     200001    2    1    2    0    0 -0.17200224623E+03  0.54609935869E+03 -0.34169129355E+03  0.96678199822E+03  0.70007514576E+03 0.  0.
    5000001    2    3    3    0    0 -0.16570355209E+03  0.66962879387E+02 -0.12103269646E+02  0.19981413393E+03  0.88529681987E+02 0.  0.
        -11    1    4    4    0    0 -0.78695590087E+02  0.30039376348E+02  0.33518575505E+02  0.90657900563E+02  0.51100000000E-03 0. -1.
     200002    1    4    4    0    0 -0.87007961999E+02  0.36923503039E+02 -0.45621845151E+02  0.10915623337E+03  0.30000000000E+02 0. -1.
     200000    1    3    3    0    0 -0.62986941470E+01  0.47913647930E+03 -0.32958802390E+03  0.76696786429E+03  0.50000000000E+03 0.  1.
    -200001    1    1    2    0    0  0.17200224623E+03 -0.54609935869E+03 -0.15238259579E+04  0.17719635527E+04  0.70000000000E+03 0. -1.
<mgrwt>
<rscale>  0 0.20051365E+04</rscale>
<asrwt>0</asrwt>
<pdfrwt beam="1">  1        2 0.32887591E+00 0.20051365E+04</pdfrwt>
<pdfrwt beam="2">  1       -2 0.62373451E-01 0.20051365E+04</pdfrwt>
<totfact> 0.12442579E+01</totfact>
</mgrwt>
</event>
<event>
 8    1  0.6876290E-010  0.1486199E+04  0.7818608E-02  0.8893682E-01
         -2   -1    0    0    0  501 -0.00000000000E+00  0.00000000000E+00  0.29717626309E+03  0.29717626310E+03  0.25500000000E-02 0. -1.
          2   -1    0    0  501    0  0.00000000000E+00 -0.00000000000E+00 -0.18581467743E+04  0.18581467743E+04  0.25500000000E-02 0.  1.
     200001    2    1    2    0    0  0.47761977557E+02  0.94814229683E+02 -0.11075886304E+04  0.13145935479E+04  0.70009476309E+03 0.  0.
    5000001    2    3    3    0    0 -0.10449207451E+02 -0.10690866450E+03 -0.28444799946E+03  0.32887494382E+03  0.12533720834E+03 0.  0.
        -11    1    4    4    0    0 -0.11195961696E+02 -0.12793545688E+03 -0.22209960468E+03  0.25655616361E+03  0.51100000000E-03 0. -1.
     200002    1    4    4    0    0  0.74675424491E+00  0.21026792381E+02 -0.62348394772E+02  0.72318780206E+02  0.30000000000E+02 0. -1.
     200000    1    3    3    0    0  0.58211185008E+02  0.20172289419E+03 -0.82314063096E+03  0.98571860408E+03  0.50000000000E+03 0.  1.
    -200001    1    1    2    0    0 -0.47761977557E+02 -0.94814229683E+02 -0.45338188077E+03  0.84072948947E+03  0.70000000000E+03 0. -1.
<mgrwt>
<rscale>  0 0.14861993E+04</rscale>
<asrwt>0</asrwt>
<pdfrwt beam="1">  1        2 0.26544953E+00 0.14861993E+04</pdfrwt>
<pdfrwt beam="2">  1       -2 0.42453753E-01 0.14861993E+04</pdfrwt>
<totfact> 0.48362196E+01</totfact>
</mgrwt>
</event>
<event>
 8    1  0.6876290E-010  0.2156779E+04  0.7818608E-02  0.8536636E-01
         -2   -1    0    0    0  501 -0.00000000000E+00  0.00000000000E+00  0.10981557651E+04  0.10981557651E+04  0.25500000000E-02 0. -1.
          2   -1    0    0  501    0  0.00000000000E+00 -0.00000000000E+00 -0.10589789696E+04  0.10589789696E+04  0.25500000000E-02 0.  1.
     200001    2    1    2    0    0 -0.43984481335E+03 -0.46276444613E+03 -0.49570217506E+03  0.10691504032E+04  0.69981965234E+03 0.  0.
    5000001    2    3    3    0    0 -0.99385659652E+02 -0.86495879421E+02 -0.16758118236E+03  0.28483295756E+03  0.18891086398E+03 0.  0.
        -11    1    4    4    0    0  0.49914084202E+02 -0.28899649600E+02 -0.10551791491E+02  0.58633999119E+02  0.51100000000E-03 0. -1.
     200002    1    4    4    0    0 -0.14929974385E+03 -0.57596229822E+02 -0.15702939087E+03  0.22619895844E+03  0.30000000000E+02 0. -1.
     200000    1    3    3    0    0 -0.34045915370E+03 -0.37626856671E+03 -0.32812099270E+03  0.78431744560E+03  0.50000000000E+03 0. -1.
    -200001    1    1    2    0    0  0.43984481335E+03  0.46276444613E+03  0.53487897060E+03  0.10879843315E+04  0.70000000000E+03 0.  1.
<mgrwt>
<rscale>  0 0.21567790E+04</rscale>
<asrwt>0</asrwt>
<pdfrwt beam="1">  1        2 0.15128271E+00 0.21567790E+04</pdfrwt>
<pdfrwt beam="2">  1       -2 0.15687940E+00 0.21567790E+04</pdfrwt>
<totfact> 0.63286401E+00</totfact>
</mgrwt>
</event>
<event>
 8    1  0.6876290E-010  0.1571272E+04  0.7818608E-02  0.8838393E-01
          2   -1    0    0  501    0  0.00000000000E+00  0.00000000000E+00  0.13817780496E+04  0.13817780496E+04  0.25500000000E-02 0.  1.
         -2   -1    0    0    0  501 -0.00000000000E+00 -0.00000000000E+00 -0.44668843508E+03  0.44668843508E+03  0.25500000000E-02 0. -1.
     200001    2    1    2    0    0 -0.96882567937E+02  0.23745068069E+03  0.17966832731E+03  0.76713224001E+03  0.70031572030E+03 0.  0.
    5000001    2    3    3    0    0 -0.81427521639E+02  0.73824098661E+02  0.16935957152E+02  0.21622903517E+03  0.18543928975E+03 0.  0.
        -11    1    4    4    0    0 -0.13810140721E+02 -0.24020946302E+02 -0.63680714169E+02  0.69447528432E+02  0.51100000000E-03 0. -1.
     200002    1    4    4    0    0 -0.67617380918E+02  0.97845044962E+02  0.80616671321E+02  0.14678150674E+03  0.30000000000E+02 0. -1.
     200000    1    3    3    0    0 -0.15455046298E+02  0.16362658203E+03  0.16273237016E+03  0.55090320484E+03  0.50000000000E+03 0. -1.
    -200001    1    1    2    0    0  0.96882567937E+02 -0.23745068069E+03  0.75542128720E+03  0.10613342447E+04  0.70000000000E+03 0.  1.
<mgrwt>
<rscale>  0 0.15712724E+04</rscale>
<asrwt>0</asrwt>
<pdfrwt beam="1">  1        2 0.19739687E+00 0.15712724E+04</pdfrwt>
<pdfrwt beam="2">  1       -2 0.63812633E-01 0.15712724E+04</pdfrwt>
<totfact> 0.37020511E+01</totfact>
</mgrwt>
</event>
<event>
 8    1  0.6876290E-010  0.2725336E+04  0.7818608E-02  0.8326831E-01
          2   -1    0    0  501    0  0.00000000000E+00  0.00000000000E+00  0.11425083455E+04  0.11425083455E+04  0.25500000000E-02 0.  1.
         -2   -1    0    0    0  501 -0.00000000000E+00 -0.00000000000E+00 -0.16252522547E+04  0.16252522547E+04  0.25500000000E-02 0. -1.
     200001    2    1    2    0    0  0.90292833842E+03  0.17104723371E+03 -0.97520847737E+03  0.15119508648E+04  0.70030500695E+03 0.  0.
    5000001    2    3    3    0    0  0.31206500966E+03 -0.56593783511E+01 -0.27708468772E+03  0.45472736634E+03  0.18051164704E+03 0.  0.
        -11    1    4    4    0    0  0.18241411991E+03  0.64117423057E+02 -0.22270514149E+03  0.29492971219E+03  0.51100000000E-03 0. -1.
     200002    1    4    4    0    0  0.12965088974E+03 -0.69776801408E+02 -0.54379546228E+02  0.15979765415E+03  0.30000000000E+02 0. -1.
     200000    1    3    3    0    0  0.59086332876E+03  0.17670661206E+03 -0.69812378965E+03  0.10572234985E+04  0.50000000000E+03 0. -1.
    -200001    1    1    2    0    0 -0.90292833842E+03 -0.17104723371E+03  0.49246456817E+03  0.12558097353E+04  0.70000000000E+03 0.  1.
<mgrwt>
<rscale>  0 0.27253361E+04</rscale>
<asrwt>0</asrwt>
<pdfrwt beam="1">  1        2 0.16321548E+00 0.27253361E+04</pdfrwt>
<pdfrwt beam="2">  1       -2 0.23217889E+00 0.27253361E+04</pdfrwt>
<totfact> 0.16835121E+00</totfact>
</mgrwt>
</event>
<event>
 8    1  0.6876290E-010  0.1491244E+04  0.7818608E-02  0.8890296E-01
         -2   -1    0    0    0  501 -0.00000000000E+00  0.00000000000E+00  0.11650401286E+04  0.11650401286E+04  0.25500000000E-02 0. -1.
          2   -1    0    0  501    0  0.00000000000E+00 -0.00000000000E+00 -0.47719575782E+03  0.47719575782E+03  0.25500000000E-02 0.  1.
     200001    2    1    2    0    0  0.78569242263E+02 -0.23752805845E+03  0.40726619059E+03  0.84768140778E+03  0.70007522076E+03 0.  0.
    5000001    2    3    3    0    0  0.12483210847E+03 -0.12244976065E+03  0.10570751114E+03  0.25075519411E+03  0.14535160912E+03 0.  0.
        -11    1    4    4    0    0 -0.20358479810E+01  0.26074690808E+02  0.28240136088E+02  0.38490771157E+02  0.51100000000E-03 0. -1.
     200002    1    4    4    0    0  0.12686795645E+03 -0.14852445146E+03  0.77467375048E+02  0.21226442295E+03  0.30000000000E+02 0. -1.
     200000    1    3    3    0    0 -0.46262866203E+02 -0.11507829779E+03  0.30155867945E+03  0.59692621367E+03  0.50000000000E+03 0. -1.
    -200001    1    1    2    0    0 -0.78569242263E+02  0.23752805845E+03  0.28057818024E+03  0.79455447869E+03  0.70000000000E+03 0. -1.
<mgrwt>
<rscale>  0 0.14912441E+04</rscale>
<asrwt>0</asrwt>
<pdfrwt beam="1">  1        2 0.68170822E-01 0.14912441E+04</pdfrwt>
<pdfrwt beam="2">  1       -2 0.16643430E+00 0.14912441E+04</pdfrwt>
<totfact> 0.15495649E+01</totfact>
</mgrwt>
</event>
<event>
 8    1  0.6876290E-010  0.1562344E+04  0.7818608E-02  0.8844022E-01
         -2   -1    0    0    0  501 -0.00000000000E+00  0.00000000000E+00  0.10482376014E+04  0.10482376014E+04  0.25500000000E-02 0. -1.
          2   -1    0    0  501    0  0.00000000000E+00 -0.00000000000E+00 -0.58214813135E+03  0.58214813136E+03  0.25500000000E-02 0.  1.
     200001    2    1    2    0    0  0.99707822283E+02  0.31723477731E+03  0.33769072262E+03  0.84485037892E+03  0.69939801606E+03 0.  0.
    5000001    2    3    3    0    0 -0.24357857256E+02  0.41647448544E+02  0.14149126084E+03  0.22854290905E+03  0.17287067190E+03 0.  0.
        -11    1    4    4    0    0 -0.92894966482E+02  0.39798126244E+02  0.10333548619E+03  0.14453922775E+03  0.51100000000E-03 0. -1.
     200002    1    4    4    0    0  0.68537109227E+02  0.18493222994E+01  0.38155774641E+02  0.84003681304E+02  0.30000000000E+02 0. -1.
     200000    1    3    3    0    0  0.12406567954E+03  0.27558732877E+03  0.19619946178E+03  0.61630746987E+03  0.50000000000E+03 0. -1.
    -200001    1    1    2    0    0 -0.99707822283E+02 -0.31723477731E+03  0.12839874741E+03  0.78553535382E+03  0.70000000000E+03 0.  1.
<mgrwt>
<rscale>  0 0.15623438E+04</rscale>
<asrwt>0</asrwt>
<pdfrwt beam="1">  1        2 0.83164020E-01 0.15623438E+04</pdfrwt>
<pdfrwt beam="2">  1       -2 0.14974823E+00 0.15623438E+04</pdfrwt>
<totfact> 0.16302571E+01</totfact>
</mgrwt>
</event>
<event>
 8    1  0.6876290E-010  0.1901160E+04  0.7818608E-02  0.8654279E-01
          2   -1    0    0  501    0  0.00000000000E+00  0.00000000000E+00  0.14648682210E+04  0.14648682210E+04  0.25500000000E-02 0.  1.
         -2   -1    0    0    0  501 -0.00000000000E+00 -0.00000000000E+00 -0.61684889768E+03  0.61684889769E+03  0.25500000000E-02 0. -1.
     200001    2    1    2    0    0  0.46847542050E+03  0.41328371598E+03  0.59080337128E+03  0.11088693940E+04  0.70019287334E+03 0.  0.
    5000001    2    3    3    0    0  0.22465924507E+03  0.21219997488E+03  0.16907630075E+03  0.38241587147E+03  0.14884386970E+03 0.  0.
        -11    1    4    4    0    0  0.98025688130E+01  0.46377946191E+02  0.83929774347E+02  0.96390929399E+02  0.51100000000E-03 0. -1.
     200002    1    4    4    0    0  0.21485667626E+03  0.16582202869E+03  0.85146526403E+02  0.28602494207E+03  0.30000000000E+02 0. -1.
     200000    1    3    3    0    0  0.24381617543E+03  0.20108374110E+03  0.42172707053E+03  0.72645352251E+03  0.50000000000E+03 0.  1.
    -200001    1    1    2    0    0 -0.46847542050E+03 -0.41328371598E+03  0.25721595204E+03  0.97284772472E+03  0.70000000000E+03 0. -1.
<mgrwt>
<rscale>  0 0.19011600E+04</rscale>
<asrwt>0</asrwt>
<pdfrwt beam="1">  1        2 0.20926689E+00 0.19011600E+04</pdfrwt>
<pdfrwt beam="2">  1       -2 0.88121271E-01 0.19011600E+04</pdfrwt>
<totfact> 0.15917425E+01</totfact>
</mgrwt>
</event>
<event>
 8    1  0.6876290E-010  0.1721244E+04  0.7818608E-02  0.8749340E-01
         -2   -1    0    0    0  501 -0.00000000000E+00  0.00000000000E+00  0.38585269509E+03  0.38585269510E+03  0.25500000000E-02 0. -1.
          2   -1    0    0  501    0  0.00000000000E+00 -0.00000000000E+00 -0.19195680007E+04  0.19195680007E+04  0.25500000000E-02 0.  1.
     200001    2    1    2    0    0  0.85807516293E+02 -0.30937917584E+03 -0.12806201844E+04  0.14947817227E+04  0.70093219184E+03 0.  0.
    5000001    2    3    3    0    0  0.68176766593E+02 -0.12117088758E+03 -0.36772403690E+03  0.43690054828E+03  0.19060604993E+03 0.  0.
        -11    1    4    4    0    0  0.13048749899E+03 -0.60555815904E+02 -0.21774578831E+03  0.26097360510E+03  0.51100000000E-03 0. -1.
     200002    1    4    4    0    0 -0.62310732392E+02 -0.60615071675E+02 -0.14997824859E+03  0.17592694318E+03  0.30000000000E+02 0. -1.
     200000    1    3    3    0    0  0.17630749700E+02 -0.18820828826E+03 -0.91289614753E+03  0.10578811745E+04  0.50000000000E+03 0.  1.
    -200001    1    1    2    0    0 -0.85807516293E+02  0.30937917584E+03 -0.25309512120E+03  0.81063897308E+03  0.70000000000E+03 0.  1.
<mgrwt>
<rscale>  0 0.17212443E+04</rscale>
<asrwt>0</asrwt>
<pdfrwt beam="1">  1        2 0.27422399E+00 0.17212443E+04</pdfrwt>
<pdfrwt beam="2">  1       -2 0.55121815E-01 0.17212443E+04</pdfrwt>
<totfact> 0.26013123E+01</totfact>
</mgrwt>
</event>
<event>
 8    1  0.6876290E-010  0.1612834E+04  0.7818608E-02  0.8812702E-01
         -2   -1    0    0    0  501 -0.00000000000E+00  0.00000000000E+00  0.10864353929E+04  0.10864353929E+04  0.25500000000E-02 0. -1.
          2   -1    0    0  501    0  0.00000000000E+00 -0.00000000000E+00 -0.59857098599E+03  0.59857098600E+03  0.25500000000E-02 0.  1.
     200001    2    1    2    0    0 -0.35933500839E+03  0.69881155586E+02  0.74301363396E+02  0.79335655127E+03  0.69992063884E+03 0.  0.
    5000001    2    3    3    0    0 -0.37128797901E+02  0.60020207698E+02  0.32898975205E+02  0.19701081420E+03  0.18096945979E+03 0.  0.
        -11    1    4    4    0    0  0.79724435173E+01 -0.47483739934E+02  0.56611860392E+02  0.74318020366E+02  0.51100000000E-03 0. -1.
     200002    1    4    4    0    0 -0.45101241418E+02  0.10750394763E+03 -0.23712885187E+02  0.12269279383E+03  0.30000000000E+02 0. -1.
     200000    1    3    3    0    0 -0.32220621049E+03  0.98609478880E+01  0.41402388190E+02  0.59634573707E+03  0.50000000000E+03 0.  1.
    -200001    1    1    2    0    0  0.35933500839E+03 -0.69881155586E+02  0.41356304351E+03  0.89164982764E+03  0.70000000000E+03 0.  1.
<mgrwt>
<rscale>  0 0.16128344E+04</rscale>
<asrwt>0</asrwt>
<pdfrwt beam="1">  1        2 0.85510142E-01 0.16128344E+04</pdfrwt>
<pdfrwt beam="2">  1       -2 0.15520505E+00 0.16128344E+04</pdfrwt>
<totfact> 0.14284124E+01</totfact>
</mgrwt>
</event>
<event>
 8    1  0.6876290E-010  0.2733288E+04  0.7818608E-02  0.8324284E-01
          2   -1    0    0  501    0  0.00000000000E+00  0.00000000000E+00  0.36953646412E+04  0.36953646412E+04  0.25500000000E-02 0.  1.
         -2   -1    0    0    0  501 -0.00000000000E+00 -0.00000000000E+00 -0.50542119025E+03  0.50542119025E+03  0.25500000000E-02 0. -1.
     200001    2    1    2    0    0 -0.22989099619E+03 -0.80581427436E+03  0.33178407536E+03  0.11411679581E+04  0.69999794354E+03 0.  0.
    5000001    2    3    3    0    0 -0.13030589837E+02 -0.23426143113E+03  0.11805961851E+03  0.32301196322E+03  0.18801712813E+03 0.  0.
        -11    1    4    4    0    0 -0.19537963108E+02  0.28373859861E+02  0.28109380686E+01  0.34564567102E+02  0.51100000000E-03 0. -1.
     200002    1    4    4    0    0  0.65073732717E+01 -0.26263529099E+03  0.11524868045E+03  0.28844739611E+03  0.30000000000E+02 0. -1.
     200000    1    3    3    0    0 -0.21686040635E+03 -0.57155284323E+03  0.21372445685E+03  0.81815599485E+03  0.50000000000E+03 0. -1.
    -200001    1    1    2    0    0  0.22989099619E+03  0.80581427436E+03  0.28581593756E+04  0.30596178734E+04  0.70000000000E+03 0.  1.
<mgrwt>
<rscale>  0 0.27332878E+04</rscale>
<asrwt>0</asrwt>
<pdfrwt beam="1">  1        2 0.52790924E+00 0.27332878E+04</pdfrwt>
<pdfrwt beam="2">  1       -2 0.72203026E-01 0.27332878E+04</pdfrwt>
<totfact> 0.13859646E+00</totfact>
</mgrwt>
</event>
<event>
 8    1  0.6876290E-010  0.1452426E+04  0.7818608E-02  0.8916720E-01
         -2   -1    0    0    0  501 -0.00000000000E+00  0.00000000000E+00  0.84130879421E+03  0.84130879422E+03  0.25500000000E-02 0. -1.
          2   -1    0    0  501    0  0.00000000000E+00 -0.00000000000E+00 -0.62686275904E+03  0.62686275904E+03  0.25500000000E-02 0.  1.
     200001    2    1    2    0    0 -0.15171945308E+03  0.50394777348E+02  0.21713319577E+03  0.75014255185E+03  0.70000614095E+03 0.  0.
    5000001    2    3    3    0    0  0.55774252671E+02  0.70210064008E+02  0.45178625828E+02  0.18179876713E+03  0.15155679842E+03 0.  0.
        -11    1    4    4    0    0  0.76383682789E+02  0.76776865730E+02 -0.16826995072E+02  0.10960064722E+03  0.51100000000E-03 0. -1.
     200002    1    4    4    0    0 -0.20609430118E+02 -0.65668017224E+01  0.62005620900E+02  0.72198119905E+02  0.30000000000E+02 0. -1.
     200000    1    3    3    0    0 -0.20749370575E+03 -0.19815286660E+02  0.17195456995E+03  0.56834378473E+03  0.50000000000E+03 0.  1.
    -200001    1    1    2    0    0  0.15171945308E+03 -0.50394777348E+02 -0.26871605960E+01  0.71802900141E+03  0.70000000000E+03 0. -1.
<mgrwt>
<rscale>  0 0.14524258E+04</rscale>
<asrwt>0</asrwt>
<pdfrwt beam="1">  1        2 0.89551823E-01 0.14524258E+04</pdfrwt>
<pdfrwt beam="2">  1       -2 0.12018697E+00 0.14524258E+04</pdfrwt>
<totfact> 0.26454388E+01</totfact>
</mgrwt>
</event>
<event>
 8    1  0.6876290E-010  0.2619258E+04  0.7818608E-02  0.8361689E-01
         -2   -1    0    0    0  501 -0.00000000000E+00  0.00000000000E+00  0.13962668340E+04  0.13962668340E+04  0.25500000000E-02 0. -1.
          2   -1    0    0  501    0  0.00000000000E+00 -0.00000000000E+00 -0.12283674107E+04  0.12283674107E+04  0.25500000000E-02 0.  1.
     200001    2    1    2    0    0  0.68892080959E+03 -0.36363437964E+02 -0.78318445498E+03  0.12569739342E+04  0.70047940671E+03 0.  0.
    5000001    2    3    3    0    0  0.11177042226E+03 -0.40603230779E+02 -0.13776446126E+03  0.25713018954E+03  0.18164701469E+03 0.  0.
        -11    1    4    4    0    0  0.24422356538E+02 -0.69779901888E+02 -0.14209611974E+03  0.16017800552E+03  0.51100000000E-03 0. -1.
     200002    1    4    4    0    0  0.87348065722E+02  0.29176671108E+02  0.43316584772E+01  0.96952184027E+02  0.30000000000E+02 0. -1.
     200000    1    3    3    0    0  0.57715038733E+03  0.42397928154E+01 -0.64541999372E+03  0.99984374466E+03  0.50000000000E+03 0.  1.
    -200001    1    1    2    0    0 -0.68892080959E+03  0.36363437964E+02  0.95108387830E+03  0.13676603106E+04  0.70000000000E+03 0. -1.
<mgrwt>
<rscale>  0 0.26192584E+04</rscale>
<asrwt>0</asrwt>
<pdfrwt beam="1">  1        2 0.17548106E+00 0.26192584E+04</pdfrwt>
<pdfrwt beam="2">  1       -2 0.19946669E+00 0.26192584E+04</pdfrwt>
<totfact> 0.24530813E+00</totfact>
</mgrwt>
</event>
<event>
 8    1  0.6876290E-010  0.1813903E+04  0.7818608E-02  0.8698941E-01
         -2   -1    0    0    0  501 -0.00000000000E+00  0.00000000000E+00  0.14883621935E+04  0.14883621935E+04  0.25500000000E-02 0. -1.
          2   -1    0    0  501    0  0.00000000000E+00 -0.00000000000E+00 -0.55266191415E+03  0.55266191416E+03  0.25500000000E-02 0.  1.
     200001    2    1    2    0    0  0.53571559013E+03 -0.11861805795E+03  0.66811532919E+03  0.11122274977E+04  0.69972171351E+03 0.  0.
    5000001    2    3    3    0    0  0.14911782668E+03 -0.97407454953E+02  0.26637395274E+03  0.36302535279E+03  0.17061062556E+03 0.  0.
        -11    1    4    4    0    0  0.11642498145E+03  0.37695562093E+01  0.20719523044E+03  0.23769486612E+03  0.51100000000E-03 0. -1.
     200002    1    4    4    0    0  0.32692845224E+02 -0.10117701116E+03  0.59178722301E+02  0.12533048667E+03  0.30000000000E+02 0. -1.
     200000    1    3    3    0    0  0.38659776345E+03 -0.21210602995E+02  0.40174137644E+03  0.74920214491E+03  0.50000000000E+03 0. -1.
    -200001    1    1    2    0    0 -0.53571559013E+03  0.11861805795E+03  0.26758495019E+03  0.92879661000E+03  0.70000000000E+03 0. -1.
<mgrwt>
<rscale>  0 0.18139031E+04</rscale>
<asrwt>0</asrwt>
<pdfrwt beam="1">  1        2 0.78951703E-01 0.18139031E+04</pdfrwt>
<pdfrwt beam="2">  1       -2 0.21262317E+00 0.18139031E+04</pdfrwt>
<totfact> 0.62233580E+00</totfact>
</mgrwt>
</event>
<event>
 8    1  0.6876290E-010  0.1616923E+04  0.7818608E-02  0.8810218E-01
         -2   -1    0    0    0  501 -0.00000000000E+00  0.00000000000E+00  0.99623632131E+03  0.99623632132E+03  0.25500000000E-02 0. -1.
          2   -1    0    0  501    0  0.00000000000E+00 -0.00000000000E+00 -0.65607954167E+03  0.65607954167E+03  0.25500000000E-02 0.  1.
     200001    2    1    2    0    0 -0.35786351349E+03 -0.17523615546E+03  0.98431780727E+02  0.81136106065E+03  0.69988852742E+03 0.  0.
    5000001    2    3    3    0    0 -0.12395510159E+03 -0.72162944176E+01  0.10287823068E+03  0.23433108762E+03  0.17002995666E+03 0.  0.
        -11    1    4    4    0    0  0.62856100624E+01 -0.64171167824E+02  0.41081432452E+02  0.76453461441E+02  0.51100000000E-03 0. -1.
     200002    1    4    4    0    0 -0.13024071166E+03  0.56954873406E+02  0.61796798224E+02  0.15787762618E+03  0.30000000000E+02 0. -1.
     200000    1    3    3    0    0 -0.23390841189E+03 -0.16801986104E+03 -0.44464499491E+01  0.57702997303E+03  0.50000000000E+03 0.  1.
    -200001    1    1    2    0    0  0.35786351349E+03  0.17523615546E+03  0.24172499892E+03  0.84095480233E+03  0.70000000000E+03 0. -1.
<mgrwt>
<rscale>  0 0.16169233E+04</rscale>
<asrwt>0</asrwt>
<pdfrwt beam="1">  1        2 0.93725648E-01 0.16169233E+04</pdfrwt>
<pdfrwt beam="2">  1       -2 0.14231947E+00 0.16169233E+04</pdfrwt>
<totfact> 0.16091035E+01</totfact>
</mgrwt>
</event>
<event>
 8    1  0.6876290E-010  0.1749906E+04  0.7818608E-02  0.8733402E-01
          2   -1    0    0  501    0  0.00000000000E+00  0.00000000000E+00  0.13941812131E+04  0.13941812132E+04  0.25500000000E-02 0.  1.
         -2   -1    0    0    0  501 -0.00000000000E+00 -0.00000000000E+00 -0.54909823873E+03  0.54909823874E+03  0.25500000000E-02 0. -1.
     200001    2    1    2    0    0  0.26813933322E+03  0.38627049507E+03  0.68081157015E+03  0.10841585689E+04  0.70056535100E+03 0.  0.
    5000001    2    3    3    0    0  0.13089415746E+03  0.12661423964E+03  0.30025043343E+03  0.39055609768E+03  0.17093652777E+03 0.  0.
        -11    1    4    4    0    0  0.54280454480E+01  0.10927870779E+03  0.83140297688E+02  0.13741764353E+03  0.51100000000E-03 0. -1.
     200002    1    4    4    0    0  0.12546611201E+03  0.17335531848E+02  0.21711013574E+03  0.25313845415E+03  0.30000000000E+02 0. -1.
     200000    1    3    3    0    0  0.13724517577E+03  0.25965625543E+03  0.38056113672E+03  0.69360247119E+03  0.50000000000E+03 0. -1.
    -200001    1    1    2    0    0 -0.26813933322E+03 -0.38627049507E+03  0.16427140427E+03  0.85912088302E+03  0.70000000000E+03 0.  1.
<mgrwt>
<rscale>  0 0.17499057E+04</rscale>
<asrwt>0</asrwt>
<pdfrwt beam="1">  1        2 0.19916875E+00 0.17499057E+04</pdfrwt>
<pdfrwt beam="2">  1       -2 0.78442605E-01 0.17499057E+04</pdfrwt>
<totfact> 0.22888111E+01</totfact>
</mgrwt>
</event>
<event>
 8    1  0.6876290E-010  0.1666708E+04  0.7818608E-02  0.8780583E-01
         -2   -1    0    0    0  501 -0.00000000000E+00  0.00000000000E+00  0.31351748109E+03  0.31351748110E+03  0.25500000000E-02 0. -1.
          2   -1    0    0  501    0  0.00000000000E+00 -0.00000000000E+00 -0.22151201004E+04  0.22151201004E+04  0.25500000000E-02 0.  1.
     200001    2    1    2    0    0  0.16032876376E+03 -0.28794120501E+03 -0.14230344489E+04  0.16188887460E+04  0.69796724782E+03 0.  0.
    5000001    2    3    3    0    0  0.56140122262E+01  0.72860613822E-01 -0.33864549225E+03  0.38083052211E+03  0.17412522709E+03 0.  0.
        -11    1    4    4    0    0 -0.46537976383E+02 -0.26330117428E+02 -0.29974079520E+03  0.30447266320E+03  0.51100000000E-03 0. -1.
     200002    1    4    4    0    0  0.52151988609E+02  0.26402978042E+02 -0.38904697053E+02  0.76357858916E+02  0.30000000000E+02 0. -1.
     200000    1    3    3    0    0  0.15471475153E+03 -0.28801406563E+03 -0.10843889567E+04  0.12380582239E+04  0.50000000000E+03 0.  1.
    -200001    1    1    2    0    0 -0.16032876376E+03  0.28794120501E+03 -0.47856817042E+03  0.90974883554E+03  0.70000000000E+03 0. -1.
<mgrwt>
<rscale>  0 0.16667080E+04</rscale>
<asrwt>0</asrwt>
<pdfrwt beam="1">  1        2 0.31644572E+00 0.16667080E+04</pdfrwt>
<pdfrwt beam="2">  1       -2 0.44788213E-01 0.16667080E+04</pdfrwt>
<totfact> 0.28081655E+01</totfact>
</mgrwt>
</event>
<event>
 8    1  0.6876290E-010  0.1608729E+04  0.7818608E-02  0.8815203E-01
         -2   -1    0    0    0  501 -0.00000000000E+00  0.00000000000E+00  0.38435623582E+03  0.38435623583E+03  0.25500000000E-02 0. -1.
          2   -1    0    0  501    0  0.00000000000E+00 -0.00000000000E+00 -0.16833405561E+04  0.16833405561E+04  0.25500000000E-02 0.  1.
     200001    2    1    2    0    0 -0.24310614005E+03  0.46602237984E+02 -0.25087987819E+03  0.78325322158E+03  0.69948018693E+03 0.  0.
    5000001    2    3    3    0    0 -0.12060148492E+03  0.64819493248E+02 -0.78242691832E+02  0.23998270238E+03  0.18089636189E+03 0.  0.
        -11    1    4    4    0    0  0.15478542023E+02  0.45025145590E+02 -0.86774190684E+02  0.98977821595E+02  0.51100000000E-03 0. -1.
     200002    1    4    4    0    0 -0.13608002694E+03  0.19794347658E+02  0.85314988528E+01  0.14100488078E+03  0.30000000000E+02 0. -1.
     200000    1    3    3    0    0 -0.12250465513E+03 -0.18217255264E+02 -0.17263718636E+03  0.54327051920E+03  0.50000000000E+03 0. -1.
    -200001    1    1    2    0    0  0.24310614005E+03 -0.46602237984E+02 -0.10481044421E+04  0.12844435704E+04  0.70000000000E+03 0.  1.
<mgrwt>
<rscale>  0 0.16087292E+04</rscale>
<asrwt>0</asrwt>
<pdfrwt beam="1">  1        2 0.24047722E+00 0.16087292E+04</pdfrwt>
<pdfrwt beam="2">  1       -2 0.54908035E-01 0.16087292E+04</pdfrwt>
<totfact> 0.35051881E+01</totfact>
</mgrwt>
</event>
<event>
 8    1  0.6876290E-010  0.2354946E+04  0.7818608E-02  0.8456566E-01
          2   -1    0    0  501    0  0.00000000000E+00  0.00000000000E+00  0.11760690733E+04  0.11760690733E+04  0.25500000000E-02 0.  1.
         -2   -1    0    0    0  501 -0.00000000000E+00 -0.00000000000E+00 -0.11788782011E+04  0.11788782011E+04  0.25500000000E-02 0. -1.
     200001    2    1    2    0    0 -0.76503226359E+03 -0.45251648485E+03  0.32408348799E+03  0.11772782565E+04  0.70064859434E+03 0.  0.
    5000001    2    3    3    0    0 -0.85158643247E+02 -0.90419920132E+02  0.55532515743E+01  0.20526818801E+03  0.16332921946E+03 0.  0.
        -11    1    4    4    0    0 -0.70192371494E+02 -0.46710240445E+02 -0.71500033140E+02  0.11054894987E+03  0.51100000000E-03 0. -1.
     200002    1    4    4    0    0 -0.14966271753E+02 -0.43709679686E+02  0.77053284714E+02  0.94719238139E+02  0.30000000000E+02 0. -1.
     200000    1    3    3    0    0 -0.67987362034E+03 -0.36209656472E+03  0.31853023642E+03  0.97201006853E+03  0.50000000000E+03 0.  1.
    -200001    1    1    2    0    0  0.76503226359E+03  0.45251648485E+03 -0.32689261581E+03  0.11776690179E+04  0.70000000000E+03 0. -1.
<mgrwt>
<rscale>  0 0.23549456E+04</rscale>
<asrwt>0</asrwt>
<pdfrwt beam="1">  1        2 0.16800987E+00 0.23549456E+04</pdfrwt>
<pdfrwt beam="2">  1       -2 0.16841117E+00 0.23549456E+04</pdfrwt>
<totfact> 0.43780283E+00</totfact>
</mgrwt>
</event>
<event>
 8    1  0.6876290E-010  0.1494474E+04  0.7818608E-02  0.8888136E-01
         -2   -1    0    0    0  501 -0.00000000000E+00  0.00000000000E+00  0.29949621525E+03  0.29949621526E+03  0.25500000000E-02 0. -1.
          2   -1    0    0  501    0  0.00000000000E+00 -0.00000000000E+00 -0.18643412632E+04  0.18643412632E+04  0.25500000000E-02 0.  1.
     200001    2    1    2    0    0  0.23253411074E+03  0.38254696967E+02 -0.61856551234E+03  0.96342900880E+03  0.70002616198E+03 0.  0.
    5000001    2    3    3    0    0  0.17372395212E+03  0.34219754483E+02 -0.20640416046E+03  0.31277403457E+03  0.15451186396E+03 0.  0.
        -11    1    4    4    0    0  0.13533348100E+03 -0.30272039922E+02 -0.72804649004E+02  0.15662715090E+03  0.51100000000E-03 0. -1.
     200002    1    4    4    0    0  0.38390471121E+02  0.64491794405E+02 -0.13359951146E+03  0.15614688367E+03  0.30000000000E+02 0. -1.
     200000    1    3    3    0    0  0.58810158615E+02  0.40349424834E+01 -0.41216135188E+03  0.65065497424E+03  0.50000000000E+03 0. -1.
    -200001    1    1    2    0    0 -0.23253411074E+03 -0.38254696967E+02 -0.94627953562E+03  0.12004084697E+04  0.70000000000E+03 0. -1.
<mgrwt>
<rscale>  0 0.14944740E+04</rscale>
<asrwt>0</asrwt>
<pdfrwt beam="1">  1        2 0.26633446E+00 0.14944740E+04</pdfrwt>
<pdfrwt beam="2">  1       -2 0.42785175E-01 0.14944740E+04</pdfrwt>
<totfact> 0.47245494E+01</totfact>
</mgrwt>
</event>
<event>
 8    1  0.6876290E-010  0.1531862E+04  0.7818608E-02  0.8863537E-01
          2   -1    0    0  501    0  0.00000000000E+00  0.00000000000E+00  0.23543882006E+04  0.23543882006E+04  0.25500000000E-02 0.  1.
         -2   -1    0    0    0  501 -0.00000000000E+00 -0.00000000000E+00 -0.24917327456E+03  0.24917327457E+03  0.25500000000E-02 0. -1.
     200001    2    1    2    0    0 -0.26361406462E+02 -0.24257518471E+03  0.72348034561E+03  0.10355282820E+04  0.69954082686E+03 0.  0.
    5000001    2    3    3    0    0 -0.10319918750E+03 -0.10189109040E+03  0.69084010215E+02  0.19652254740E+03  0.11321062038E+03 0.  0.
        -11    1    4    4    0    0  0.50801075429E+01 -0.26590284568E+02  0.54026484572E+02  0.60429394846E+02  0.51100000000E-03 0. -1.
     200002    1    4    4    0    0 -0.10827929504E+03 -0.75300805834E+02  0.15057525643E+02  0.13609315255E+03  0.30000000000E+02 0. -1.
     200000    1    3    3    0    0  0.76837781034E+02 -0.14068409431E+03  0.65439633539E+03  0.83900573464E+03  0.50000000000E+03 0. -1.
    -200001    1    1    2    0    0  0.26361406462E+02  0.24257518471E+03  0.13817345805E+04  0.15680331931E+04  0.70000000000E+03 0. -1.
<mgrwt>
<rscale>  0 0.15318624E+04</rscale>
<asrwt>0</asrwt>
<pdfrwt beam="1">  1        2 0.33634116E+00 0.15318624E+04</pdfrwt>
<pdfrwt beam="2">  1       -2 0.35596183E-01 0.15318624E+04</pdfrwt>
<totfact> 0.37669989E+01</totfact>
</mgrwt>
</event>
<event>
 8    1  0.6876290E-010  0.1550385E+04  0.7818608E-02  0.8851622E-01
         -2   -1    0    0    0  501 -0.00000000000E+00  0.00000000000E+00  0.56592061070E+03  0.56592061070E+03  0.25500000000E-02 0. -1.
          2   -1    0    0  501    0  0.00000000000E+00 -0.00000000000E+00 -0.10618508247E+04  0.10618508247E+04  0.25500000000E-02 0.  1.
     200001    2    1    2    0    0  0.21232615470E+03 -0.16038627639E+03 -0.41897676934E+02  0.75201365022E+03  0.70211321107E+03 0.  0.
    5000001    2    3    3    0    0  0.11370261053E+03 -0.93410482255E+02  0.85621281238E+02  0.22241621333E+03  0.14312290632E+03 0.  0.
        -11    1    4    4    0    0  0.49127682568E+02 -0.54293405656E+01 -0.32237657211E+02  0.59010791185E+02  0.51100000000E-03 0. -1.
     200002    1    4    4    0    0  0.64574927964E+02 -0.87981141690E+02  0.11785893845E+03  0.16340542215E+03  0.30000000000E+02 0. -1.
     200000    1    3    3    0    0  0.98623544172E+02 -0.66975794139E+02 -0.12751895817E+03  0.52959743689E+03  0.50000000000E+03 0. -1.
    -200001    1    1    2    0    0 -0.21232615470E+03  0.16038627639E+03 -0.45403253711E+03  0.87575778523E+03  0.70000000000E+03 0.  1.
<mgrwt>
<rscale>  0 0.15503848E+04</rscale>
<asrwt>0</asrwt>
<pdfrwt beam="1">  1        2 0.15169297E+00 0.15503848E+04</pdfrwt>
<pdfrwt beam="2">  1       -2 0.80845802E-01 0.15503848E+04</pdfrwt>
<totfact> 0.33529768E+01</totfact>
</mgrwt>
</event>
<event>
 8    1  0.6876290E-010  0.1820546E+04  0.7818608E-02  0.8695449E-01
         -2   -1    0    0    0  501 -0.00000000000E+00  0.00000000000E+00  0.45483278323E+03  0.45483278324E+03  0.25500000000E-02 0. -1.
          2   -1    0    0  501    0  0.00000000000E+00 -0.00000000000E+00 -0.18217610521E+04  0.18217610521E+04  0.25500000000E-02 0.  1.
     200001    2    1    2    0    0  0.27348138182E+03 -0.48302195141E+03 -0.90182733211E+03  0.12694090692E+04  0.70000326882E+03 0.  0.
    5000001    2    3    3    0    0  0.40579944479E+02 -0.28043242082E+03 -0.35429825148E+03  0.46624427198E+03  0.10755182753E+03 0.  0.
        -11    1    4    4    0    0  0.80707529036E+01 -0.24818172208E+03 -0.28817261262E+03  0.38039815837E+03  0.51100000000E-03 0. -1.
     200002    1    4    4    0    0  0.32509191576E+02 -0.32250698743E+02 -0.66125638864E+02  0.85846113608E+02  0.30000000000E+02 0. -1.
     200000    1    3    3    0    0  0.23290143734E+03 -0.20258953058E+03 -0.54752908063E+03  0.80316479726E+03  0.50000000000E+03 0.  1.
    -200001    1    1    2    0    0 -0.27348138182E+03  0.48302195141E+03 -0.46510093680E+03  0.10071847661E+04  0.70000000000E+03 0.  1.
<mgrwt>
<rscale>  0 0.18205457E+04</rscale>
<asrwt>0</asrwt>
<pdfrwt beam="1">  1        2 0.26025158E+00 0.18205457E+04</pdfrwt>
<pdfrwt beam="2">  1       -2 0.64976113E-01 0.18205457E+04</pdfrwt>
<totfact> 0.20480817E+01</totfact>
</mgrwt>
</event>
<event>
 8    1  0.6876290E-010  0.2076985E+04  0.7818608E-02  0.8571450E-01
         -2   -1    0    0    0  501 -0.00000000000E+00  0.00000000000E+00  0.10364127028E+04  0.10364127028E+04  0.25500000000E-02 0.  1.
          2   -1    0    0  501    0  0.00000000000E+00 -0.00000000000E+00 -0.10405760054E+04  0.10405760054E+04  0.25500000000E-02 0. -1.
     200001    2    1    2    0    0  0.69292438754E+03  0.16474235463E+03  0.28240484923E+03  0.10380442651E+04  0.70035644299E+03 0.  0.
    5000001    2    3    3    0    0  0.33139182641E+03  0.75458074081E+02  0.11753711121E+03  0.39317307911E+03  0.15892021292E+03 0.  0.
        -11    1    4    4    0    0  0.26314593046E+03 -0.74535265495E+01  0.91252483136E+02  0.27861864879E+03  0.51100000000E-03 0. -1.
     200002    1    4    4    0    0  0.68245895946E+02  0.82911600631E+02  0.26284628070E+02  0.11455443032E+03  0.30000000000E+02 0. -1.
     200000    1    3    3    0    0  0.36153256113E+03  0.89284280544E+02  0.16486773803E+03  0.64487118602E+03  0.50000000000E+03 0. -1.
    -200001    1    1    2    0    0 -0.69292438754E+03 -0.16474235463E+03 -0.28656815184E+03  0.10389444431E+04  0.70000000000E+03 0. -1.
<mgrwt>
<rscale>  0 0.20769845E+04</rscale>
<asrwt>0</asrwt>
<pdfrwt beam="1">  1        2 0.14865371E+00 0.20769845E+04</pdfrwt>
<pdfrwt beam="2">  1       -2 0.14805896E+00 0.20769845E+04</pdfrwt>
<totfact> 0.76253457E+00</totfact>
</mgrwt>
</event>
<event>
 8    1  0.6876290E-010  0.1852683E+04  0.7818608E-02  0.8678774E-01
         -2   -1    0    0    0  501 -0.00000000000E+00  0.00000000000E+00  0.37577118211E+03  0.37577118212E+03  0.25500000000E-02 0. -1.
          2   -1    0    0  501    0  0.00000000000E+00 -0.00000000000E+00 -0.22835925743E+04  0.22835925743E+04  0.25500000000E-02 0.  1.
     200001    2    1    2    0    0  0.31147710690E+03  0.46023470485E+03 -0.13066509712E+04  0.15822194547E+04  0.69803128198E+03 0.  0.
    5000001    2    3    3    0    0  0.88266743343E+02  0.23642441346E+03 -0.56622746571E+03  0.63451650524E+03  0.13531493354E+03 0.  0.
        -11    1    4    4    0    0  0.69833398317E+02  0.46415258704E+02 -0.10450912683E+03  0.13398969121E+03  0.51100000000E-03 0. -1.
     200002    1    4    4    0    0  0.18433345025E+02  0.19000915476E+03 -0.46171833888E+03  0.50052681403E+03  0.30000000000E+02 0. -1.
     200000    1    3    3    0    0  0.22321036355E+03  0.22381029139E+03 -0.74042350550E+03  0.94770294946E+03  0.50000000000E+03 0. -1.
    -200001    1    1    2    0    0 -0.31147710690E+03 -0.46023470485E+03 -0.60117042099E+03  0.10771443017E+04  0.70000000000E+03 0. -1.
<mgrwt>
<rscale>  0 0.18526827E+04</rscale>
<asrwt>0</asrwt>
<pdfrwt beam="1">  1        2 0.32622750E+00 0.18526827E+04</pdfrwt>
<pdfrwt beam="2">  1       -2 0.53681599E-01 0.18526827E+04</pdfrwt>
<totfact> 0.17646008E+01</totfact>
</mgrwt>
</event>
<event>
 8    1  0.6876290E-010  0.1570380E+04  0.7818608E-02  0.8838954E-01
          2   -1    0    0  501    0  0.00000000000E+00  0.00000000000E+00  0.89032969812E+03  0.89032969812E+03  0.25500000000E-02 0.  1.
         -2   -1    0    0    0  501 -0.00000000000E+00 -0.00000000000E+00 -0.69246632085E+03  0.69246632086E+03  0.25500000000E-02 0. -1.
     200001    2    1    2    0    0  0.24631535543E+03  0.25191717795E+03  0.19524904942E+02  0.77909325702E+03  0.69460172931E+03 0.  0.
    5000001    2    3    3    0    0  0.12910721656E+03  0.40611498902E+02  0.48083822563E+02  0.22303260423E+03  0.17062684825E+03 0.  0.
        -11    1    4    4    0    0 -0.16568131123E+02  0.58498169984E+02 -0.11385767938E+02  0.61856079508E+02  0.51100000000E-03 0. -1.
     200002    1    4    4    0    0  0.14567534769E+03 -0.17886671081E+02  0.59469590500E+02  0.16117652472E+03  0.30000000000E+02 0. -1.
     200000    1    3    3    0    0  0.11720813887E+03  0.21130567904E+03 -0.28558917620E+02  0.55606065280E+03  0.50000000000E+03 0. -1.
    -200001    1    1    2    0    0 -0.24631535543E+03 -0.25191717795E+03  0.17833847232E+03  0.80370276196E+03  0.70000000000E+03 0.  1.
<mgrwt>
<rscale>  0 0.15703800E+04</rscale>
<asrwt>0</asrwt>
<pdfrwt beam="1">  1        2 0.12718996E+00 0.15703800E+04</pdfrwt>
<pdfrwt beam="2">  1       -2 0.98923760E-01 0.15703800E+04</pdfrwt>
<totfact> 0.26940191E+01</totfact>
</mgrwt>
</event>
<event>
 8    1  0.6876290E-010  0.1935591E+04  0.7818608E-02  0.8637341E-01
          2   -1    0    0  501    0  0.00000000000E+00  0.00000000000E+00  0.22119313526E+04  0.22119313526E+04  0.25500000000E-02 0.  1.
         -2   -1    0    0    0  501 -0.00000000000E+00 -0.00000000000E+00 -0.42344354889E+03  0.42344354890E+03  0.25500000000E-02 0. -1.
     200001    2    1    2    0    0  0.59042418060E+03  0.12698215124E+03  0.50582379535E+03  0.10542512068E+04  0.70061595417E+03 0.  0.
    5000001    2    3    3    0    0  0.15362336405E+03  0.49557109448E+02  0.19511927859E+03  0.31714409977E+03  0.19092616915E+03 0.  0.
        -11    1    4    4    0    0  0.14898911745E+03  0.79363789508E+02  0.66094893092E+02  0.18128679791E+03  0.51100000000E-03 0. -1.
     200002    1    4    4    0    0  0.46342466068E+01 -0.29806680061E+02  0.12902438549E+03  0.13585730186E+03  0.30000000000E+02 0. -1.
     200000    1    3    3    0    0  0.43680081654E+03  0.77425041794E+02  0.31070451677E+03  0.73710710698E+03  0.50000000000E+03 0.  1.
    -200001    1    1    2    0    0 -0.59042418060E+03 -0.12698215124E+03  0.12826640084E+04  0.15811236948E+04  0.70000000000E+03 0. -1.
<mgrwt>
<rscale>  0 0.19355909E+04</rscale>
<asrwt>0</asrwt>
<pdfrwt beam="1">  1        2 0.31599020E+00 0.19355909E+04</pdfrwt>
<pdfrwt beam="2">  1       -2 0.60491935E-01 0.19355909E+04</pdfrwt>
<totfact> 0.14872192E+01</totfact>
</mgrwt>
</event>
<event>
 8    1  0.6876290E-010  0.1509209E+04  0.7818608E-02  0.8878352E-01
         -2   -1    0    0    0  501 -0.00000000000E+00  0.00000000000E+00  0.63682994377E+03  0.63682994378E+03  0.25500000000E-02 0. -1.
          2   -1    0    0  501    0  0.00000000000E+00 -0.00000000000E+00 -0.89415956780E+03  0.89415956780E+03  0.25500000000E-02 0.  1.
     200001    2    1    2    0    0  0.18589360641E+03  0.20096544741E+03 -0.59823490167E+02  0.75384588466E+03  0.69982942485E+03 0.  0.
    5000001    2    3    3    0    0  0.14920938176E+02  0.94614227139E+02  0.12381467370E+02  0.21001154294E+03  0.18648608812E+03 0.  0.
        -11    1    4    4    0    0  0.80104220417E+02 -0.75237580824E+01  0.25742129103E+02  0.84474554010E+02  0.51100000000E-03 0. -1.
     200002    1    4    4    0    0 -0.65183282241E+02  0.10213798522E+03 -0.13360661733E+02  0.12553698893E+03  0.30000000000E+02 0. -1.
     200000    1    3    3    0    0  0.17097266824E+03  0.10635122027E+03 -0.72204957537E+02  0.54383434172E+03  0.50000000000E+03 0.  1.
    -200001    1    1    2    0    0 -0.18589360641E+03 -0.20096544741E+03 -0.19750613386E+03  0.77714362692E+03  0.70000000000E+03 0. -1.
<mgrwt>
<rscale>  0 0.15092085E+04</rscale>
<asrwt>0</asrwt>
<pdfrwt beam="1">  1        2 0.12773708E+00 0.15092085E+04</pdfrwt>
<pdfrwt beam="2">  1       -2 0.90975707E-01 0.15092085E+04</pdfrwt>
<totfact> 0.32722922E+01</totfact>
</mgrwt>
</event>
<event>
 8    1  0.6876290E-010  0.2674970E+04  0.7818608E-02  0.8343172E-01
         -2   -1    0    0    0  501 -0.00000000000E+00  0.00000000000E+00  0.94710428627E+03  0.94710428627E+03  0.25500000000E-02 0. -1.
          2   -1    0    0  501    0  0.00000000000E+00 -0.00000000000E+00 -0.18887735718E+04  0.18887735718E+04  0.25500000000E-02 0.  1.
     200001    2    1    2    0    0 -0.38531567094E+03 -0.29349514923E+03  0.62314214842E+03  0.10545181547E+04  0.69935315301E+03 0.  0.
    5000001    2    3    3    0    0 -0.12793674915E+03 -0.12047270670E+03  0.27531769775E+03  0.37102527000E+03  0.17600690736E+03 0.  0.
        -11    1    4    4    0    0  0.17617341055E+02  0.19610211317E+02  0.94984455769E+02  0.98574732724E+02  0.51100000000E-03 0. -1.
     200002    1    4    4    0    0 -0.14555409020E+03 -0.14008291802E+03  0.18033324198E+03  0.27245053727E+03  0.30000000000E+02 0. -1.
     200000    1    3    3    0    0 -0.25737892179E+03 -0.17302244252E+03  0.34782445066E+03  0.68349288473E+03  0.50000000000E+03 0. -1.
    -200001    1    1    2    0    0  0.38531567094E+03  0.29349514923E+03 -0.15648114340E+04  0.17813597034E+04  0.70000000000E+03 0.  1.
<mgrwt>
<rscale>  0 0.26749696E+04</rscale>
<asrwt>0</asrwt>
<pdfrwt beam="1">  1        2 0.26982479E+00 0.26749696E+04</pdfrwt>
<pdfrwt beam="2">  1       -2 0.13530061E+00 0.26749696E+04</pdfrwt>
<totfact> 0.31794126E+00</totfact>
</mgrwt>
</event>
<event>
 8    1  0.6876290E-010  0.1624670E+04  0.7818608E-02  0.8805534E-01
         -2   -1    0    0    0  501 -0.00000000000E+00  0.00000000000E+00  0.22183336226E+03  0.22183336228E+03  0.25500000000E-02 0. -1.
          2   -1    0    0  501    0  0.00000000000E+00 -0.00000000000E+00 -0.29747020148E+04  0.29747020148E+04  0.25500000000E-02 0.  1.
     200001    2    1    2    0    0  0.34087271055E+02 -0.21740495253E+03 -0.69145825491E+03  0.10084221070E+04  0.70026692918E+03 0.  0.
    5000001    2    3    3    0    0 -0.27616799643E+02  0.15289351503E+01 -0.20110783335E+02  0.14098515415E+03  0.13677479599E+03 0.  0.
        -11    1    4    4    0    0 -0.87747322624E+01 -0.24042814657E+02 -0.70080668073E+02  0.74607994885E+02  0.51100000000E-03 0. -1.
     200002    1    4    4    0    0 -0.18842067381E+02  0.25571749807E+02  0.49969884738E+02  0.66377159265E+02  0.30000000000E+02 0. -1.
     200000    1    3    3    0    0  0.61704070698E+02 -0.21893388768E+03 -0.67134747158E+03  0.86743695281E+03  0.50000000000E+03 0. -1.
    -200001    1    1    2    0    0 -0.34087271055E+02  0.21740495253E+03 -0.20614103977E+04  0.21881132702E+04  0.70000000000E+03 0.  1.
<mgrwt>
<rscale>  0 0.16246700E+04</rscale>
<asrwt>0</asrwt>
<pdfrwt beam="1">  1        2 0.42495741E+00 0.16246700E+04</pdfrwt>
<pdfrwt beam="2">  1       -2 0.31690482E-01 0.16246700E+04</pdfrwt>
<totfact> 0.21696065E+01</totfact>
</mgrwt>
</event>
<event>
 8    1  0.6876290E-010  0.1796293E+04  0.7818608E-02  0.8708273E-01
          2   -1    0    0  501    0  0.00000000000E+00  0.00000000000E+00  0.13499709416E+04  0.13499709416E+04  0.25500000000E-02 0.  1.
         -2   -1    0    0    0  501 -0.00000000000E+00 -0.00000000000E+00 -0.59754388991E+03  0.59754388992E+03  0.25500000000E-02 0. -1.
     200001    2    1    2    0    0  0.34300447743E+03 -0.15838042028E+03  0.82770499168E+03  0.11485134565E+04  0.70089312842E+03 0.  0.
    5000001    2    3    3    0    0  0.17979369887E+03 -0.56218439174E+02  0.29383132431E+03  0.39214322882E+03  0.17875451801E+03 0.  0.
        -11    1    4    4    0    0  0.68141711268E+02 -0.98723793074E+01  0.25124451678E+03  0.26050827991E+03  0.51100000000E-03 0. -1.
     200002    1    4    4    0    0  0.11165198760E+03 -0.46346059867E+02  0.42586807525E+02  0.13163494891E+03  0.30000000000E+02 0. -1.
     200000    1    3    3    0    0  0.16321077856E+03 -0.10216198111E+03  0.53387366737E+03  0.75637022769E+03  0.50000000000E+03 0.  1.
    -200001    1    1    2    0    0 -0.34300447743E+03  0.15838042028E+03 -0.75277939962E+02  0.79900137504E+03  0.70000000000E+03 0. -1.
<mgrwt>
<rscale>  0 0.17962927E+04</rscale>
<asrwt>0</asrwt>
<pdfrwt beam="1">  1        2 0.19285299E+00 0.17962927E+04</pdfrwt>
<pdfrwt beam="2">  1       -2 0.85363414E-01 0.17962927E+04</pdfrwt>
<totfact> 0.19916695E+01</totfact>
</mgrwt>
</event>
<event>
 8    1  0.6876290E-010  0.2488864E+04  0.7818608E-02  0.8406963E-01
         -2   -1    0    0    0  501 -0.00000000000E+00  0.00000000000E+00  0.22642459939E+04  0.22642459939E+04  0.25500000000E-02 0. -1.
          2   -1    0    0  501    0  0.00000000000E+00 -0.00000000000E+00 -0.68394131883E+03  0.68394131884E+03  0.25500000000E-02 0.  1.
     200001    2    1    2    0    0 -0.16458511912E+03 -0.49972220475E+03 -0.25736106581E+03  0.91254836672E+03  0.69978515278E+03 0.  0.
    5000001    2    3    3    0    0  0.32342262422E+01 -0.62017137959E+02 -0.21999317813E+02  0.18788002148E+03  0.17594984191E+03 0.  0.
        -11    1    4    4    0    0 -0.84060229439E+01  0.31169138210E+02  0.54331052727E+02  0.63198415242E+02  0.51100000000E-03 0. -1.
     200002    1    4    4    0    0  0.11640249186E+02 -0.93186276169E+02 -0.76330370540E+02  0.12468160624E+03  0.30000000000E+02 0. -1.
     200000    1    3    3    0    0 -0.16781934536E+03 -0.43770506679E+03 -0.23536174800E+03  0.72466834524E+03  0.50000000000E+03 0.  1.
    -200001    1    1    2    0    0  0.16458511912E+03  0.49972220475E+03  0.18376657409E+04  0.20356389460E+04  0.70000000000E+03 0. -1.
<mgrwt>
<rscale>  0 0.24888643E+04</rscale>
<asrwt>0</asrwt>
<pdfrwt beam="1">  1        2 0.97705903E-01 0.24888643E+04</pdfrwt>
<pdfrwt beam="2">  1       -2 0.32346371E+00 0.24888643E+04</pdfrwt>
<totfact> 0.94709842E-01</totfact>
</mgrwt>
</event>
<event>
 8    1  0.6876290E-010  0.1681609E+04  0.7818608E-02  0.8771923E-01
          2   -1    0    0  501    0  0.00000000000E+00  0.00000000000E+00  0.61265716390E+03  0.61265716390E+03  0.25500000000E-02 0.  1.
         -2   -1    0    0    0  501 -0.00000000000E+00 -0.00000000000E+00 -0.11539122222E+04  0.11539122222E+04  0.25500000000E-02 0. -1.
     200001    2    1    2    0    0  0.45917262706E+03 -0.69244894614E+02 -0.30493470414E+03  0.89394021707E+03  0.70036389187E+03 0.  0.
    5000001    2    3    3    0    0  0.72747605625E+02 -0.18757640744E+02 -0.63464836642E+02  0.21557382868E+03  0.19183385236E+03 0.  0.
        -11    1    4    4    0    0 -0.14824478140E+00  0.70477497757E+02  0.16198798670E+02  0.72315287078E+02  0.51100000000E-03 0. -1.
     200002    1    4    4    0    0  0.72895850406E+02 -0.89235138500E+02 -0.79663635312E+02  0.14325854160E+03  0.30000000000E+02 0. -1.
     200000    1    3    3    0    0  0.38642502144E+03 -0.50487253871E+02 -0.24146986750E+03  0.67836638840E+03  0.50000000000E+03 0.  1.
    -200001    1    1    2    0    0 -0.45917262706E+03  0.69244894614E+02 -0.23632035417E+03  0.87262916905E+03  0.70000000000E+03 0. -1.
<mgrwt>
<rscale>  0 0.16816095E+04</rscale>
<asrwt>0</asrwt>
<pdfrwt beam="1">  1        2 0.87522452E-01 0.16816095E+04</pdfrwt>
<pdfrwt beam="2">  1       -2 0.16484460E+00 0.16816095E+04</pdfrwt>
<totfact> 0.11728779E+01</totfact>
</mgrwt>
</event>
<event>
 8    1  0.6876290E-010  0.2542810E+04  0.7818608E-02  0.8387891E-01
          2   -1    0    0  501    0  0.00000000000E+00  0.00000000000E+00  0.92643734082E+03  0.92643734082E+03  0.25500000000E-02 0.  1.
         -2   -1    0    0    0  501 -0.00000000000E+00 -0.00000000000E+00 -0.17448246919E+04  0.17448246919E+04  0.25500000000E-02 0. -1.
     200001    2    1    2    0    0  0.17707051890E+03  0.45495358649E+03 -0.13987226816E+04  0.16392126975E+04  0.70160985818E+03 0.  0.
    5000001    2    3    3    0    0  0.10177879769E+03  0.14933358256E+03 -0.52231848651E+03  0.58225633924E+03  0.18315676537E+03 0.  0.
        -11    1    4    4    0    0  0.11283940645E+03  0.17398972683E+03 -0.48415378708E+03  0.52669730039E+03  0.51100000000E-03 0. -1.
     200002    1    4    4    0    0 -0.11060608762E+02 -0.24656144265E+02 -0.38164699422E+02  0.55559038852E+02  0.30000000000E+02 0. -1.
     200000    1    3    3    0    0  0.75291721215E+02  0.30562000392E+03 -0.87640419512E+03  0.10569563583E+04  0.50000000000E+03 0. -1.
    -200001    1    1    2    0    0 -0.17707051890E+03 -0.45495358649E+03  0.58033533051E+03  0.10320493352E+04  0.70000000000E+03 0.  1.
<mgrwt>
<rscale>  0 0.25428101E+04</rscale>
<asrwt>0</asrwt>
<pdfrwt beam="1">  1        2 0.13234819E+00 0.25428101E+04</pdfrwt>
<pdfrwt beam="2">  1       -2 0.24926067E+00 0.25428101E+04</pdfrwt>
<totfact> 0.18132194E+00</totfact>
</mgrwt>
</event>
<event>
 8    1  0.6876290E-010  0.2787592E+04  0.7818608E-02  0.8307131E-01
         -2   -1    0    0    0  501 -0.00000000000E+00  0.00000000000E+00  0.33533412249E+04  0.33533412249E+04  0.25500000000E-02 0. -1.
          2   -1    0    0  501    0  0.00000000000E+00 -0.00000000000E+00 -0.57932294269E+03  0.57932294270E+03  0.25500000000E-02 0.  1.
     200001    2    1    2    0    0  0.56773935649E+03 -0.18579076446E+03  0.28629503818E+04  0.30081345015E+04  0.70394751618E+03 0.  0.
    5000001    2    3    3    0    0  0.14359306105E+03 -0.19841802539E+03  0.82146426307E+03  0.86390384681E+03  0.10741341186E+03 0.  0.
        -11    1    4    4    0    0  0.14568686209E+03 -0.14955460703E+03  0.67697835995E+03  0.70844261737E+03  0.51100000000E-03 0. -1.
     200002    1    4    4    0    0 -0.20938010452E+01 -0.48863418360E+02  0.14448590313E+03  0.15546122944E+03  0.30000000000E+02 0.  1.
     200000    1    3    3    0    0  0.42414629544E+03  0.12627260929E+02  0.20414861187E+04  0.21442306547E+04  0.50000000000E+03 0. -1.
    -200001    1    1    2    0    0 -0.56773935649E+03  0.18579076446E+03 -0.88932099612E+02  0.92452966605E+03  0.70000000000E+03 0.  1.
<mgrwt>
<rscale>  0 0.27875922E+04</rscale>
<asrwt>0</asrwt>
<pdfrwt beam="1">  1        2 0.82760421E-01 0.27875922E+04</pdfrwt>
<pdfrwt beam="2">  1       -2 0.47904874E+00 0.27875922E+04</pdfrwt>
<totfact> 0.11062063E-01</totfact>
</mgrwt>
</event>
<event>
 8    1  0.6876290E-010  0.1925165E+04  0.7818608E-02  0.8642430E-01
          2   -1    0    0  501    0  0.00000000000E+00  0.00000000000E+00  0.23913214588E+04  0.23913214588E+04  0.25500000000E-02 0.  1.
         -2   -1    0    0    0  501 -0.00000000000E+00 -0.00000000000E+00 -0.38746996532E+03  0.38746996533E+03  0.25500000000E-02 0. -1.
     200001    2    1    2    0    0 -0.60988403881E+03  0.11182056645E+03  0.13317432192E+04  0.16271873636E+04  0.69981164222E+03 0.  0.
    5000001    2    3    3    0    0 -0.10241596265E+03 -0.26418511317E+02  0.29486219031E+03  0.36158230713E+03  0.18058539922E+03 0.  0.
        -11    1    4    4    0    0 -0.53411207101E+02  0.70805508524E+02  0.82854639272E+02  0.12137161254E+03  0.51100000000E-03 0. -1.
     200002    1    4    4    0    0 -0.49004755545E+02 -0.97224019840E+02  0.21200755104E+03  0.24021069459E+03  0.30000000000E+02 0. -1.
     200000    1    3    3    0    0 -0.50746807617E+03  0.13823907776E+03  0.10368810288E+04  0.12656050565E+04  0.50000000000E+03 0.  1.
    -200001    1    1    2    0    0  0.60988403881E+03 -0.11182056645E+03  0.67210827435E+03  0.11516040606E+04  0.70000000000E+03 0. -1.
<mgrwt>
<rscale>  0 0.19251652E+04</rscale>
<asrwt>0</asrwt>
<pdfrwt beam="1">  1        2 0.34161736E+00 0.19251652E+04</pdfrwt>
<pdfrwt beam="2">  1       -2 0.55352850E-01 0.19251652E+04</pdfrwt>
<totfact> 0.14467356E+01</totfact>
</mgrwt>
</event>
<event>
 8    1  0.6876290E-010  0.1639283E+04  0.7818608E-02  0.8796772E-01
         -2   -1    0    0    0  501 -0.00000000000E+00  0.00000000000E+00  0.89636994460E+03  0.89636994461E+03  0.25500000000E-02 0. -1.
          2   -1    0    0  501    0  0.00000000000E+00 -0.00000000000E+00 -0.74948071908E+03  0.74948071908E+03  0.25500000000E-02 0.  1.
     200001    2    1    2    0    0 -0.83056594794E+01 -0.42255999955E+03  0.17887054788E+02  0.81804181060E+03  0.70017606355E+03 0.  0.
    5000001    2    3    3    0    0  0.50342599542E+01 -0.22411643689E+03  0.11393804818E+03  0.27143080235E+03  0.10217279766E+03 0.  0.
        -11    1    4    4    0    0  0.32888189883E+02 -0.78178227390E+02  0.78951682512E+02  0.11587422683E+03  0.51100000000E-03 0. -1.
     200002    1    4    4    0    0 -0.27853929929E+02 -0.14593820950E+03  0.34986365672E+02  0.15555657552E+03  0.30000000000E+02 0. -1.
     200000    1    3    3    0    0 -0.13339919434E+02 -0.19844356266E+03 -0.96050993396E+02  0.54661100825E+03  0.50000000000E+03 0. -1.
    -200001    1    1    2    0    0  0.83056594794E+01  0.42255999955E+03  0.12900217073E+03  0.82780885309E+03  0.70000000000E+03 0.  1.
<mgrwt>
<rscale>  0 0.16392828E+04</rscale>
<asrwt>0</asrwt>
<pdfrwt beam="1">  1        2 0.10706867E+00 0.16392828E+04</pdfrwt>
<pdfrwt beam="2">  1       -2 0.12805285E+00 0.16392828E+04</pdfrwt>
<totfact> 0.17866066E+01</totfact>
</mgrwt>
</event>
<event>
 8    1  0.6876290E-010  0.2009813E+04  0.7818608E-02  0.8602047E-01
          2   -1    0    0  501    0  0.00000000000E+00  0.00000000000E+00  0.25921108739E+04  0.25921108739E+04  0.25500000000E-02 0.  1.
         -2   -1    0    0    0  501 -0.00000000000E+00 -0.00000000000E+00 -0.38958084491E+03  0.38958084492E+03  0.25500000000E-02 0. -1.
     200001    2    1    2    0    0 -0.64592468658E+03  0.26205239125E+02  0.15679758511E+04  0.18368928631E+04  0.70549394443E+03 0.  0.
    5000001    2    3    3    0    0 -0.28662314266E+03 -0.62921468548E+02  0.64548414711E+03  0.72422394856E+03  0.14744017900E+03 0.  0.
        -11    1    4    4    0    0 -0.15455681603E+03 -0.63226163694E+02  0.49182230092E+03  0.51939824108E+03  0.51100000000E-03 0. -1.
     200002    1    4    4    0    0 -0.13206632663E+03  0.30469514594E+00  0.15366184619E+03  0.20482570748E+03  0.30000000000E+02 0. -1.
     200000    1    3    3    0    0 -0.35930154393E+03  0.89126707673E+02  0.92249170400E+03  0.11126689146E+04  0.50000000000E+03 0.  1.
    -200001    1    1    2    0    0  0.64592468658E+03 -0.26205239125E+02  0.63455417784E+03  0.11447988557E+04  0.70000000000E+03 0. -1.
<mgrwt>
<rscale>  0 0.20098127E+04</rscale>
<asrwt>0</asrwt>
<pdfrwt beam="1">  1        2 0.37030155E+00 0.20098127E+04</pdfrwt>
<pdfrwt beam="2">  1       -2 0.55654407E-01 0.20098127E+04</pdfrwt>
<totfact> 0.11134056E+01</totfact>
</mgrwt>
</event>
<event>
 8    1  0.6876290E-010  0.1614519E+04  0.7818608E-02  0.8811678E-01
         -2   -1    0    0    0  501 -0.00000000000E+00  0.00000000000E+00  0.67891198080E+03  0.67891198081E+03  0.25500000000E-02 0. -1.
          2   -1    0    0  501    0  0.00000000000E+00 -0.00000000000E+00 -0.95987066834E+03  0.95987066834E+03  0.25500000000E-02 0.  1.
     200001    2    1    2    0    0  0.13659634347E+03 -0.37551338249E+03 -0.97539230834E+02  0.81215603540E+03  0.70029612508E+03 0.  0.
    5000001    2    3    3    0    0  0.35915492216E+02 -0.11970925779E+03 -0.52921067199E+02  0.23982469382E+03  0.19772459491E+03 0.  0.
        -11    1    4    4    0    0 -0.37349105761E+02 -0.18773761852E+02  0.57141686035E+02  0.70799591230E+02  0.51100000000E-03 0. -1.
     200002    1    4    4    0    0  0.73264597976E+02 -0.10093549594E+03 -0.11006275323E+03  0.16902510259E+03  0.30000000000E+02 0. -1.
     200000    1    3    3    0    0  0.10068085125E+03 -0.25580412469E+03 -0.44618163635E+02  0.57233134157E+03  0.50000000000E+03 0. -1.
    -200001    1    1    2    0    0 -0.13659634347E+03  0.37551338249E+03 -0.18341945670E+03  0.82662661376E+03  0.70000000000E+03 0. -1.
<mgrwt>
<rscale>  0 0.16145187E+04</rscale>
<asrwt>0</asrwt>
<pdfrwt beam="1">  1        2 0.13712438E+00 0.16145187E+04</pdfrwt>
<pdfrwt beam="2">  1       -2 0.96987427E-01 0.16145187E+04</pdfrwt>
<totfact> 0.25371955E+01</totfact>
</mgrwt>
</event>
<event>
 8    1  0.6876290E-010  0.1536362E+04  0.7818608E-02  0.8860626E-01
          2   -1    0    0  501    0  0.00000000000E+00  0.00000000000E+00  0.72728911127E+03  0.72728911128E+03  0.25500000000E-02 0.  1.
         -2   -1    0    0    0  501 -0.00000000000E+00 -0.00000000000E+00 -0.81137198967E+03  0.81137198967E+03  0.25500000000E-02 0. -1.
     200001    2    1    2    0    0 -0.16803454065E+03 -0.22405486662E+03  0.10630393322E+03  0.76104723267E+03  0.69961144504E+03 0.  0.
    5000001    2    3    3    0    0 -0.99640994866E+02 -0.11638164687E+03  0.67360717194E+02  0.24356508473E+03  0.17695612082E+03 0.  0.
        -11    1    4    4    0    0 -0.75182246997E+01 -0.70547454215E+02  0.10776558083E+03  0.12902281740E+03  0.51100000000E-03 0. -1.
     200002    1    4    4    0    0 -0.92122770167E+02 -0.45834192654E+02 -0.40404863636E+02  0.11454226733E+03  0.30000000000E+02 0. -1.
     200000    1    3    3    0    0 -0.68393545785E+02 -0.10767321975E+03  0.38943216029E+02  0.51748214793E+03  0.50000000000E+03 0. -1.
    -200001    1    1    2    0    0  0.16803454065E+03  0.22405486662E+03 -0.19038681161E+03  0.77761386828E+03  0.70000000000E+03 0. -1.
<mgrwt>
<rscale>  0 0.15363620E+04</rscale>
<asrwt>0</asrwt>
<pdfrwt beam="1">  1        2 0.10389845E+00 0.15363620E+04</pdfrwt>
<pdfrwt beam="2">  1       -2 0.11591028E+00 0.15363620E+04</pdfrwt>
<totfact> 0.23967540E+01</totfact>
</mgrwt>
</event>
<event>
 8    1  0.6876290E-010  0.1696581E+04  0.7818608E-02  0.8763317E-01
          2   -1    0    0  501    0  0.00000000000E+00  0.00000000000E+00  0.16781837558E+04  0.16781837558E+04  0.25500000000E-02 0.  1.
         -2   -1    0    0    0  501 -0.00000000000E+00 -0.00000000000E+00 -0.42879475439E+03  0.42879475440E+03  0.25500000000E-02 0. -1.
     200001    2    1    2    0    0  0.17506058072E+03 -0.31158994275E+03  0.10190362212E+04  0.12879565919E+04  0.70189946802E+03 0.  0.
    5000001    2    3    3    0    0 -0.23523868493E+01 -0.14884785857E+03  0.26177603284E+03  0.34912575524E+03  0.17663771646E+03 0.  0.
        -11    1    4    4    0    0 -0.84808074529E+02 -0.50251854532E+02  0.10135236134E+03  0.14138585339E+03  0.51100000000E-03 0. -1.
     200002    1    4    4    0    0  0.82455687680E+02 -0.98596004040E+02  0.16042367149E+03  0.20773990185E+03  0.30000000000E+02 0. -1.
     200000    1    3    3    0    0  0.17741296757E+03 -0.16274208418E+03  0.75726018835E+03  0.93883083667E+03  0.50000000000E+03 0.  1.
    -200001    1    1    2    0    0 -0.17506058072E+03  0.31158994275E+03  0.23035278026E+03  0.81902191834E+03  0.70000000000E+03 0.  1.
<mgrwt>
<rscale>  0 0.16965806E+04</rscale>
<asrwt>0</asrwt>
<pdfrwt beam="1">  1        2 0.23974054E+00 0.16965806E+04</pdfrwt>
<pdfrwt beam="2">  1       -2 0.61256393E-01 0.16965806E+04</pdfrwt>
<totfact> 0.27844016E+01</totfact>
</mgrwt>
</event>
<event>
 8    1  0.6876290E-010  0.1471359E+04  0.7818608E-02  0.8903725E-01
         -2   -1    0    0    0  501 -0.00000000000E+00  0.00000000000E+00  0.44247675553E+03  0.44247675554E+03  0.25500000000E-02 0. -1.
          2   -1    0    0  501    0  0.00000000000E+00 -0.00000000000E+00 -0.12231701072E+04  0.12231701072E+04  0.25500000000E-02 0.  1.
     200001    2    1    2    0    0 -0.76685487344E+02  0.15869610979E+03 -0.55027407908E+03  0.90791461427E+03  0.70031583265E+03 0.  0.
    5000001    2    3    3    0    0 -0.15197401757E+02  0.10018374705E+03 -0.15670118972E+03  0.26596126666E+03  0.18950564190E+03 0.  0.
        -11    1    4    4    0    0  0.18693042002E+02 -0.49650449785E+02 -0.15782841919E+02  0.55350655664E+02  0.51100000000E-03 0. -1.
     200002    1    4    4    0    0 -0.33890443759E+02  0.14983419683E+03 -0.14091834780E+03  0.21061061100E+03  0.30000000000E+02 0. -1.
     200000    1    3    3    0    0 -0.61488085587E+02  0.58512362741E+02 -0.39357288937E+03  0.64195334761E+03  0.50000000000E+03 0.  1.
    -200001    1    1    2    0    0  0.76685487344E+02 -0.15869610979E+03 -0.23041927262E+03  0.75773224851E+03  0.70000000000E+03 0. -1.
<mgrwt>
<rscale>  0 0.14713590E+04</rscale>
<asrwt>0</asrwt>
<pdfrwt beam="1">  1        2 0.17473859E+00 0.14713590E+04</pdfrwt>
<pdfrwt beam="2">  1       -2 0.63210966E-01 0.14713590E+04</pdfrwt>
<totfact> 0.46601691E+01</totfact>
</mgrwt>
</event>
<event>
 8    1  0.6876290E-010  0.1454353E+04  0.7818608E-02  0.8915388E-01
          2   -1    0    0  501    0  0.00000000000E+00  0.00000000000E+00  0.22643656803E+04  0.22643656803E+04  0.25500000000E-02 0.  1.
         -2   -1    0    0    0  501 -0.00000000000E+00 -0.00000000000E+00 -0.23352489871E+03  0.23352489873E+03  0.25500000000E-02 0. -1.
     200001    2    1    2    0    0  0.45501494390E+02  0.19164410952E+03  0.10237168573E+04  0.12556762459E+04  0.69994912653E+03 0.  0.
    5000001    2    3    3    0    0  0.83996705450E+02  0.57272674323E+02  0.30668072200E+03  0.37042013419E+03  0.18116954716E+03 0.  0.
        -11    1    4    4    0    0  0.19491020365E+02 -0.63898233914E+02  0.87924578714E+02  0.11042470609E+03  0.51100000000E-03 0. -1.
     200002    1    4    4    0    0  0.64505685085E+02  0.12117090824E+03  0.21875614329E+03  0.25999542811E+03  0.30000000000E+02 0. -1.
     200000    1    3    3    0    0 -0.38495211061E+02  0.13437143520E+03  0.71703613532E+03  0.88525611166E+03  0.50000000000E+03 0. -1.
    -200001    1    1    2    0    0 -0.45501494390E+02 -0.19164410952E+03  0.10071239242E+04  0.12422143331E+04  0.70000000000E+03 0.  1.
<mgrwt>
<rscale>  0 0.14543531E+04</rscale>
<asrwt>0</asrwt>
<pdfrwt beam="1">  1        2 0.32348084E+00 0.14543531E+04</pdfrwt>
<pdfrwt beam="2">  1       -2 0.33360697E-01 0.14543531E+04</pdfrwt>
<totfact> 0.47758325E+01</totfact>
</mgrwt>
</event>
<event>
 8    1  0.6876290E-010  0.1867717E+04  0.7818608E-02  0.8671095E-01
          2   -1    0    0  501    0  0.00000000000E+00  0.00000000000E+00  0.15223373633E+04  0.15223373633E+04  0.25500000000E-02 0.  1.
         -2   -1    0    0    0  501 -0.00000000000E+00 -0.00000000000E+00 -0.57286343812E+03  0.57286343813E+03  0.25500000000E-02 0. -1.
     200001    2    1    2    0    0 -0.20049620740E+03  0.53993401815E+03  0.72776847231E+03  0.11619908674E+04  0.69917691146E+03 0.  0.
    5000001    2    3    3    0    0  0.31233023951E+02  0.16415711899E+03  0.10308161205E+03  0.24813070962E+03  0.15172332983E+03 0.  0.
        -11    1    4    4    0    0  0.22737807800E+02 -0.24686679013E+02  0.22804750515E+02  0.40577046104E+02  0.51100000000E-03 0. -1.
     200002    1    4    4    0    0  0.84952161515E+01  0.18884379801E+03  0.80276861535E+02  0.20755366352E+03  0.30000000000E+02 0. -1.
     200000    1    3    3    0    0 -0.23172923135E+03  0.37577689915E+03  0.62468686026E+03  0.91386015778E+03  0.50000000000E+03 0. -1.
    -200001    1    1    2    0    0  0.20049620740E+03 -0.53993401815E+03  0.22170545287E+03  0.93320993403E+03  0.70000000000E+03 0. -1.
<mgrwt>
<rscale>  0 0.18677167E+04</rscale>
<asrwt>0</asrwt>
<pdfrwt beam="1">  1        2 0.21747676E+00 0.18677167E+04</pdfrwt>
<pdfrwt beam="2">  1       -2 0.81837635E-01 0.18677167E+04</pdfrwt>
<totfact> 0.17599301E+01</totfact>
</mgrwt>
</event>
<event>
 8    1  0.6876290E-010  0.1639508E+04  0.7818608E-02  0.8796638E-01
          2   -1    0    0  501    0  0.00000000000E+00  0.00000000000E+00  0.22113975424E+04  0.22113975424E+04  0.25500000000E-02 0.  1.
         -2   -1    0    0    0  501 -0.00000000000E+00 -0.00000000000E+00 -0.30387875559E+03  0.30387875560E+03  0.25500000000E-02 0. -1.
     200001    2    1    2    0    0 -0.39483211022E+03 -0.33437545124E+02  0.11944265345E+04  0.14403293109E+04  0.70063065375E+03 0.  0.
    5000001    2    3    3    0    0 -0.13684754074E+03  0.96202043113E+02  0.50200943278E+03  0.53877293241E+03  0.10139388340E+03 0.  0.
        -11    1    4    4    0    0 -0.11719664504E+03  0.51740545418E+02  0.41793450965E+03  0.43712857605E+03  0.51100000000E-03 0. -1.
     200002    1    4    4    0    0 -0.19650895701E+02  0.44461497696E+02  0.84074923137E+02  0.10164435636E+03  0.30000000000E+02 0. -1.
     200000    1    3    3    0    0 -0.25798456948E+03 -0.12963958824E+03  0.69241710171E+03  0.90155637853E+03  0.50000000000E+03 0. -1.
    -200001    1    1    2    0    0  0.39483211022E+03  0.33437545124E+02  0.71309225234E+03  0.10749469871E+04  0.70000000000E+03 0.  1.
<mgrwt>
<rscale>  0 0.16395081E+04</rscale>
<asrwt>0</asrwt>
<pdfrwt beam="1">  1        2 0.31591394E+00 0.16395081E+04</pdfrwt>
<pdfrwt beam="2">  1       -2 0.43411250E-01 0.16395081E+04</pdfrwt>
<totfact> 0.30080487E+01</totfact>
</mgrwt>
</event>
<event>
 8    1  0.6876290E-010  0.1408240E+04  0.7818608E-02  0.8947875E-01
         -2   -1    0    0    0  501 -0.00000000000E+00  0.00000000000E+00  0.55633035335E+03  0.55633035335E+03  0.25500000000E-02 0. -1.
          2   -1    0    0  501    0  0.00000000000E+00 -0.00000000000E+00 -0.89117016942E+03  0.89117016942E+03  0.25500000000E-02 0.  1.
     200001    2    1    2    0    0  0.17522664135E+02  0.13204738915E+02 -0.90850840942E+02  0.70587256425E+03  0.69965762539E+03 0.  0.
    5000001    2    3    3    0    0  0.13864834653E+03  0.32384127677E+02  0.13276064047E+02  0.18062815235E+03  0.11035479068E+03 0.  0.
        -11    1    4    4    0    0  0.16447606543E+02  0.10998608959E+02  0.44959470047E+02  0.49120740092E+02  0.51100000000E-03 0. -1.
     200002    1    4    4    0    0  0.12220073998E+03  0.21385518719E+02 -0.31683405999E+02  0.13150741226E+03  0.30000000000E+02 0. -1.
     200000    1    3    3    0    0 -0.12112568239E+03 -0.19179388762E+02 -0.10412690499E+03  0.52524441190E+03  0.50000000000E+03 0. -1.
    -200001    1    1    2    0    0 -0.17522664135E+02 -0.13204738915E+02 -0.24398897513E+03  0.74162795853E+03  0.70000000000E+03 0.  1.
<mgrwt>
<rscale>  0 0.14082401E+04</rscale>
<asrwt>0</asrwt>
<pdfrwt beam="1">  1        2 0.12731002E+00 0.14082401E+04</pdfrwt>
<pdfrwt beam="2">  1       -2 0.79475765E-01 0.14082401E+04</pdfrwt>
<totfact> 0.45053534E+01</totfact>
</mgrwt>
</event>
<event>
 8    1  0.6876290E-010  0.2091733E+04  0.7818608E-02  0.8564894E-01
          2   -1    0    0  501    0  0.00000000000E+00  0.00000000000E+00  0.87197194725E+03  0.87197194725E+03  0.25500000000E-02 0.  1.
         -2   -1    0    0    0  501 -0.00000000000E+00 -0.00000000000E+00 -0.12544401967E+04  0.12544401967E+04  0.25500000000E-02 0. -1.
     200001    2    1    2    0    0  0.18350649451E+02 -0.11604811658E+03  0.58964055294E+03  0.92275129663E+03  0.69999290144E+03 0.  0.
    5000001    2    3    3    0    0  0.16506943131E+02  0.53130805978E+01  0.83048704170E+02  0.20069365304E+03  0.18187948512E+03 0.  0.
        -11    1    4    4    0    0  0.51075558056E+02 -0.13950771667E+02 -0.41070720710E+02  0.67008512598E+02  0.51100000000E-03 0. -1.
     200002    1    4    4    0    0 -0.34568614924E+02  0.19263852265E+02  0.12411942488E+03  0.13368514044E+03  0.30000000000E+02 0. -1.
     200000    1    3    3    0    0  0.18437063200E+01 -0.12136119718E+03  0.50659184877E+03  0.72205764359E+03  0.50000000000E+03 0.  1.
    -200001    1    1    2    0    0 -0.18350649451E+02  0.11604811658E+03 -0.97210880239E+03  0.12036608473E+04  0.70000000000E+03 0. -1.
<mgrwt>
<rscale>  0 0.20917329E+04</rscale>
<asrwt>0</asrwt>
<pdfrwt beam="1">  1        2 0.12456742E+00 0.20917329E+04</pdfrwt>
<pdfrwt beam="2">  1       -2 0.17920574E+00 0.20917329E+04</pdfrwt>
<totfact> 0.57680014E+00</totfact>
</mgrwt>
</event>
<event>
 8    1  0.6876290E-010  0.2289141E+04  0.7818608E-02  0.8482215E-01
         -2   -1    0    0    0  501 -0.00000000000E+00  0.00000000000E+00  0.11329520128E+04  0.11329520128E+04  0.25500000000E-02 0. -1.
          2   -1    0    0  501    0  0.00000000000E+00 -0.00000000000E+00 -0.11563080785E+04  0.11563080785E+04  0.25500000000E-02 0.  1.
     200001    2    1    2    0    0 -0.27997791145E+03  0.62410325609E+03 -0.60345377053E+03  0.11515405070E+04  0.70284890336E+03 0.  0.
    5000001    2    3    3    0    0 -0.12223704066E+03  0.76254951469E+02 -0.10642254171E+03  0.24486526768E+03  0.16696266110E+03 0.  0.
        -11    1    4    4    0    0  0.25931608114E+02 -0.31741102502E+01 -0.63673001699E+02  0.68824228444E+02  0.51100000000E-03 0. -1.
     200002    1    4    4    0    0 -0.14816864877E+03  0.79429061719E+02 -0.42749540011E+02  0.17604103924E+03  0.30000000000E+02 0. -1.
     200000    1    3    3    0    0 -0.15774087080E+03  0.54784830462E+03 -0.49703122882E+03  0.90667523933E+03  0.50000000000E+03 0.  1.
    -200001    1    1    2    0    0  0.27997791145E+03 -0.62410325609E+03  0.58009770482E+03  0.11377195842E+04  0.70000000000E+03 0. -1.
<mgrwt>
<rscale>  0 0.22891409E+04</rscale>
<asrwt>0</asrwt>
<pdfrwt beam="1">  1        2 0.16518687E+00 0.22891409E+04</pdfrwt>
<pdfrwt beam="2">  1       -2 0.16185029E+00 0.22891409E+04</pdfrwt>
<totfact> 0.50409207E+00</totfact>
</mgrwt>
</event>
<event>
 8    1  0.6876290E-010  0.1899812E+04  0.7818608E-02  0.8654950E-01
          2   -1    0    0  501    0  0.00000000000E+00  0.00000000000E+00  0.83406285611E+03  0.83406285611E+03  0.25500000000E-02 0.  1.
         -2   -1    0    0    0  501 -0.00000000000E+00 -0.00000000000E+00 -0.10818386165E+04  0.10818386165E+04  0.25500000000E-02 0. -1.
     200001    2    1    2    0    0 -0.19753576701E+03  0.33014862450E+03  0.38763126678E+03  0.89523473775E+03  0.70934388218E+03 0.  0.
    5000001    2    3    3    0    0 -0.11064874710E+03  0.19759643491E+02  0.75777889549E+02  0.22356279204E+03  0.17777638959E+03 0.  0.
        -11    1    4    4    0    0 -0.49780842911E+02  0.10821884341E+02  0.12780781708E+03  0.13758664037E+03  0.51100000000E-03 0. -1.
     200002    1    4    4    0    0 -0.60867904188E+02  0.89377591503E+01 -0.52029927527E+02  0.85976151678E+02  0.30000000000E+02 0. -1.
     200000    1    3    3    0    0 -0.86887019913E+02  0.31038898100E+03  0.31185337723E+03  0.67167194571E+03  0.50000000000E+03 0. -1.
    -200001    1    1    2    0    0  0.19753576701E+03 -0.33014862450E+03 -0.63540702721E+03  0.10206667349E+04  0.70000000000E+03 0. -1.
<mgrwt>
<rscale>  0 0.18998120E+04</rscale>
<asrwt>0</asrwt>
<pdfrwt beam="1">  1        2 0.11915184E+00 0.18998120E+04</pdfrwt>
<pdfrwt beam="2">  1       -2 0.15454837E+00 0.18998120E+04</pdfrwt>
<totfact> 0.93572246E+00</totfact>
</mgrwt>
</event>
<event>
 8    1  0.6876290E-010  0.1489456E+04  0.7818608E-02  0.8891495E-01
         -2   -1    0    0    0  501 -0.00000000000E+00  0.00000000000E+00  0.11641737492E+04  0.11641737492E+04  0.25500000000E-02 0. -1.
          2   -1    0    0  501    0  0.00000000000E+00 -0.00000000000E+00 -0.47640667867E+03  0.47640667867E+03  0.25500000000E-02 0.  1.
     200001    2    1    2    0    0 -0.20542066798E+03  0.10671240341E+03  0.45798012449E+03  0.86831931374E+03  0.70046231042E+03 0.  0.
    5000001    2    3    3    0    0  0.18886312240E+02  0.10528283294E+03  0.23460017005E+02  0.16894574485E+03  0.12865117413E+03 0.  0.
        -11    1    4    4    0    0 -0.17610711292E+02  0.11720053265E+03  0.14426864790E+02  0.11939110701E+03  0.51100000000E-03 0. -1.
     200002    1    4    4    0    0  0.36497023532E+02 -0.11917699711E+02  0.90331522159E+01  0.49554637846E+02  0.30000000000E+02 0. -1.
     200000    1    3    3    0    0 -0.22430698022E+03  0.14295704700E+01  0.43452010748E+03  0.69937356888E+03  0.50000000000E+03 0. -1.
    -200001    1    1    2    0    0  0.20542066798E+03 -0.10671240341E+03  0.22978694608E+03  0.77226111417E+03  0.70000000000E+03 0.  1.
<mgrwt>
<rscale>  0 0.14894565E+04</rscale>
<asrwt>0</asrwt>
<pdfrwt beam="1">  1        2 0.68058096E-01 0.14894565E+04</pdfrwt>
<pdfrwt beam="2">  1       -2 0.16631054E+00 0.14894565E+04</pdfrwt>
<totfact> 0.15558902E+01</totfact>
</mgrwt>
</event>
<event>
 8    1  0.6876290E-010  0.1537589E+04  0.7818608E-02  0.8859834E-01
          2   -1    0    0  501    0  0.00000000000E+00  0.00000000000E+00  0.12935493192E+04  0.12935493192E+04  0.25500000000E-02 0.  1.
         -2   -1    0    0    0  501 -0.00000000000E+00 -0.00000000000E+00 -0.45691752355E+03  0.45691752356E+03  0.25500000000E-02 0. -1.
     200001    2    1    2    0    0 -0.22391895870E+03  0.16523030176E+03  0.57054199885E+03  0.95156476326E+03  0.70888403391E+03 0.  0.
    5000001    2    3    3    0    0  0.69712794623E+02  0.17576093594E+01  0.98654697122E+02  0.18630627539E+03  0.14182494865E+03 0.  0.
        -11    1    4    4    0    0 -0.19045973132E+02  0.44983823009E+02  0.91207884193E+01  0.49693885003E+02  0.51100000000E-03 0. -1.
     200002    1    4    4    0    0  0.88758767755E+02 -0.43226213650E+02  0.89533908703E+02  0.13661239039E+03  0.30000000000E+02 0. -1.
     200000    1    3    3    0    0 -0.29363175332E+03  0.16347269240E+03  0.47188730173E+03  0.76525848787E+03  0.50000000000E+03 0. -1.
    -200001    1    1    2    0    0  0.22391895870E+03 -0.16523030176E+03  0.26608979680E+03  0.79890207951E+03  0.70000000000E+03 0. -1.
<mgrwt>
<rscale>  0 0.15375895E+04</rscale>
<asrwt>0</asrwt>
<pdfrwt beam="1">  1        2 0.18479276E+00 0.15375895E+04</pdfrwt>
<pdfrwt beam="2">  1       -2 0.65273933E-01 0.15375895E+04</pdfrwt>
<totfact> 0.39529118E+01</totfact>
</mgrwt>
</event>
<event>
 8    1  0.6876290E-010  0.1516482E+04  0.7818608E-02  0.8873566E-01
         -2   -1    0    0    0  501 -0.00000000000E+00  0.00000000000E+00  0.19554224462E+03  0.19554224464E+03  0.25500000000E-02 0. -1.
          2   -1    0    0  501    0  0.00000000000E+00 -0.00000000000E+00 -0.29401816035E+04  0.29401816035E+04  0.25500000000E-02 0.  1.
     200001    2    1    2    0    0  0.10003755496E+03 -0.16074566072E+03 -0.91464744256E+03  0.11672937392E+04  0.70010574175E+03 0.  0.
    5000001    2    3    3    0    0 -0.17018451144E+02  0.32565589526E+02 -0.28909419636E+03  0.33519506007E+03  0.16562043541E+03 0.  0.
        -11    1    4    4    0    0 -0.86922954860E+02  0.19855345453E+02 -0.18771292894E+03  0.20781236372E+03  0.51100000000E-03 0. -1.
     200002    1    4    4    0    0  0.69904503716E+02  0.12710244073E+02 -0.10138126742E+03  0.12738269634E+03  0.30000000000E+02 0. -1.
     200000    1    3    3    0    0  0.11705600610E+03 -0.19331125024E+03 -0.62555324620E+03  0.83209867916E+03  0.50000000000E+03 0. -1.
    -200001    1    1    2    0    0 -0.10003755496E+03  0.16074566072E+03 -0.18299919163E+04  0.19684301089E+04  0.70000000000E+03 0.  1.
<mgrwt>
<rscale>  0 0.15164824E+04</rscale>
<asrwt>0</asrwt>
<pdfrwt beam="1">  1        2 0.42002592E+00 0.15164824E+04</pdfrwt>
<pdfrwt beam="2">  1       -2 0.27934608E-01 0.15164824E+04</pdfrwt>
<totfact> 0.28944971E+01</totfact>
</mgrwt>
</event>
<event>
 8    1  0.6876290E-010  0.2083585E+04  0.7818608E-02  0.8568509E-01
         -2   -1    0    0    0  501 -0.00000000000E+00  0.00000000000E+00  0.22134951935E+03  0.22134951936E+03  0.25500000000E-02 0. -1.
          2   -1    0    0  501    0  0.00000000000E+00 -0.00000000000E+00 -0.49032498933E+04  0.49032498933E+04  0.25500000000E-02 0.  1.
     200001    2    1    2    0    0 -0.62744812123E+03  0.10126481458E+03 -0.34188537942E+04  0.35468692805E+04  0.69840870478E+03 0.  0.
    5000001    2    3    3    0    0 -0.27442487914E+03 -0.13510970259E+02 -0.10928629872E+04  0.11389589572E+04  0.16548847972E+03 0.  0.
        -11    1    4    4    0    0 -0.23632135445E+03  0.49282340224E+02 -0.82331067792E+03  0.85797261262E+03  0.51100000000E-03 0. -1.
     200002    1    4    4    0    0 -0.38103524685E+02 -0.62793310482E+02 -0.26955230926E+03  0.28098634462E+03  0.30000000000E+02 0.  1.
     200000    1    3    3    0    0 -0.35302324209E+03  0.11477578484E+03 -0.23259908070E+04  0.24079103232E+04  0.50000000000E+03 0.  1.
    -200001    1    1    2    0    0  0.62744812123E+03 -0.10126481458E+03 -0.12630465798E+04  0.15777301322E+04  0.70000000000E+03 0. -1.
<mgrwt>
<rscale>  0 0.20835854E+04</rscale>
<asrwt>0</asrwt>
<pdfrwt beam="1">  1        2 0.70046421E+00 0.20835854E+04</pdfrwt>
<pdfrwt beam="2">  1       -2 0.31621363E-01 0.20835854E+04</pdfrwt>
<totfact> 0.95160399E-01</totfact>
</mgrwt>
</event>
<event>
 8    1  0.6876290E-010  0.1585556E+04  0.7818608E-02  0.8829471E-01
         -2   -1    0    0    0  501 -0.00000000000E+00  0.00000000000E+00  0.13386231715E+04  0.13386231715E+04  0.25500000000E-02 0. -1.
          2   -1    0    0  501    0  0.00000000000E+00 -0.00000000000E+00 -0.46950986965E+03  0.46950986965E+03  0.25500000000E-02 0.  1.
     200001    2    1    2    0    0  0.31724122248E+03  0.50674197240E+02  0.64874023270E+03  0.10070249604E+04  0.70001822387E+03 0.  0.
    5000001    2    3    3    0    0  0.67857218487E+02 -0.20208897848E+02  0.33894480936E+03  0.36422639242E+03  0.11297911086E+03 0.  0.
        -11    1    4    4    0    0 -0.33631577078E+01  0.36971433502E+02  0.99888290160E+02  0.10656391620E+03  0.51100000000E-03 0. -1.
     200002    1    4    4    0    0  0.71220376194E+02 -0.57180331350E+02  0.23905651920E+03  0.25766247622E+03  0.30000000000E+02 0. -1.
     200000    1    3    3    0    0  0.24938400400E+03  0.70883095087E+02  0.30979542334E+03  0.64279856794E+03  0.50000000000E+03 0. -1.
    -200001    1    1    2    0    0 -0.31724122248E+03 -0.50674197240E+02  0.22037306915E+03  0.80110808080E+03  0.70000000000E+03 0.  1.
<mgrwt>
<rscale>  0 0.15855558E+04</rscale>
<asrwt>0</asrwt>
<pdfrwt beam="1">  1        2 0.67072837E-01 0.15855558E+04</pdfrwt>
<pdfrwt beam="2">  1       -2 0.19123189E+00 0.15855558E+04</pdfrwt>
<totfact> 0.10547463E+01</totfact>
</mgrwt>
</event>
<event>
 8    1  0.6876290E-010  0.1559754E+04  0.7818608E-02  0.8845661E-01
          2   -1    0    0  501    0  0.00000000000E+00  0.00000000000E+00  0.19448383832E+04  0.19448383832E+04  0.25500000000E-02 0.  1.
         -2   -1    0    0    0  501 -0.00000000000E+00 -0.00000000000E+00 -0.31272953822E+03  0.31272953823E+03  0.25500000000E-02 0. -1.
     200001    2    1    2    0    0  0.20496349509E+03 -0.12138236445E+03  0.11762182162E+04  0.13889022907E+04  0.69915418047E+03 0.  0.
    5000001    2    3    3    0    0  0.98759149870E+02  0.15563763261E+02  0.19003974557E+03  0.26971437933E+03  0.16320276075E+03 0.  0.
        -11    1    4    4    0    0 -0.35562703416E+02  0.26216758720E+02  0.14715933843E+02  0.46568047212E+02  0.51100000000E-03 0. -1.
     200002    1    4    4    0    0  0.13432185329E+03 -0.10652995459E+02  0.17532381172E+03  0.22314633212E+03  0.30000000000E+02 0. -1.
     200000    1    3    3    0    0  0.10620434522E+03 -0.13694612771E+03  0.98617847067E+03  0.11191879113E+04  0.50000000000E+03 0.  1.
    -200001    1    1    2    0    0 -0.20496349509E+03  0.12138236445E+03  0.45589062874E+03  0.86866563077E+03  0.70000000000E+03 0. -1.
<mgrwt>
<rscale>  0 0.15597544E+04</rscale>
<asrwt>0</asrwt>
<pdfrwt beam="1">  1        2 0.27783406E+00 0.15597544E+04</pdfrwt>
<pdfrwt beam="2">  1       -2 0.44675647E-01 0.15597544E+04</pdfrwt>
<totfact> 0.39213367E+01</totfact>
</mgrwt>
</event>
<event>
 8    1  0.6876290E-010  0.1657372E+04  0.7818608E-02  0.8786057E-01
         -2   -1    0    0    0  501 -0.00000000000E+00  0.00000000000E+00  0.41523710468E+03  0.41523710469E+03  0.25500000000E-02 0. -1.
          2   -1    0    0  501    0  0.00000000000E+00 -0.00000000000E+00 -0.16538041927E+04  0.16538041927E+04  0.25500000000E-02 0.  1.
     200001    2    1    2    0    0 -0.20627525527E+03 -0.36995630369E+03 -0.44740436677E+03  0.93090439916E+03  0.69785040331E+03 0.  0.
    5000001    2    3    3    0    0 -0.84034827847E+01 -0.10640240623E+02 -0.60840853955E+02  0.17745060432E+03  0.16614233121E+03 0.  0.
        -11    1    4    4    0    0  0.30189460831E+02  0.12531542869E+02  0.46739425387E+02  0.57035225938E+02  0.51100000000E-03 0. -1.
     200002    1    4    4    0    0 -0.38592943616E+02 -0.23171783493E+02 -0.10758027934E+03  0.12041537838E+03  0.30000000000E+02 0. -1.
     200000    1    3    3    0    0 -0.19787177249E+03 -0.35931606307E+03 -0.38656351281E+03  0.75345379484E+03  0.50000000000E+03 0. -1.
    -200001    1    1    2    0    0  0.20627525527E+03  0.36995630369E+03 -0.79116272122E+03  0.11381368982E+04  0.70000000000E+03 0. -1.
<mgrwt>
<rscale>  0 0.16573725E+04</rscale>
<asrwt>0</asrwt>
<pdfrwt beam="1">  1        2 0.23625774E+00 0.16573725E+04</pdfrwt>
<pdfrwt beam="2">  1       -2 0.59319587E-01 0.16573725E+04</pdfrwt>
<totfact> 0.30781117E+01</totfact>
</mgrwt>
</event>
<event>
 8    1  0.6876290E-010  0.2234384E+04  0.7818608E-02  0.8504252E-01
          2   -1    0    0  501    0  0.00000000000E+00  0.00000000000E+00  0.21458501503E+04  0.21458501503E+04  0.25500000000E-02 0.  1.
         -2   -1    0    0    0  501 -0.00000000000E+00 -0.00000000000E+00 -0.58164264322E+03  0.58164264323E+03  0.25500000000E-02 0. -1.
     200001    2    1    2    0    0 -0.14468983020E+03 -0.31294028297E+02  0.18295690299E+04  0.19643865093E+04  0.69969783432E+03 0.  0.
    5000001    2    3    3    0    0  0.22955011217E+02 -0.45235038453E+02  0.58455430533E+03  0.61221758155E+03  0.17473834736E+03 0.  0.
        -11    1    4    4    0    0 -0.61869393272E+02 -0.71499092771E+01  0.99225459794E+02  0.11715218691E+03  0.51100000000E-03 0. -1.
     200002    1    4    4    0    0  0.84824404489E+02 -0.38085129176E+02  0.48532884553E+03  0.49506539464E+03  0.30000000000E+02 0. -1.
     200000    1    3    3    0    0 -0.16764484142E+03  0.13941010156E+02  0.12450147246E+04  0.13521689277E+04  0.50000000000E+03 0.  1.
    -200001    1    1    2    0    0  0.14468983020E+03  0.31294028297E+02 -0.26536152290E+03  0.76310628421E+03  0.70000000000E+03 0. -1.
<mgrwt>
<rscale>  0 0.22343840E+04</rscale>
<asrwt>0</asrwt>
<pdfrwt beam="1">  1        2 0.30655002E+00 0.22343840E+04</pdfrwt>
<pdfrwt beam="2">  1       -2 0.83091805E-01 0.22343840E+04</pdfrwt>
<totfact> 0.78376982E+00</totfact>
</mgrwt>
</event>
<event>
 8    1  0.6876290E-010  0.1439593E+04  0.7818608E-02  0.8925648E-01
         -2   -1    0    0    0  501 -0.00000000000E+00  0.00000000000E+00  0.16537826613E+04  0.16537826613E+04  0.25500000000E-02 0. -1.
          2   -1    0    0  501    0  0.00000000000E+00 -0.00000000000E+00 -0.31328581256E+03  0.31328581257E+03  0.25500000000E-02 0.  1.
     200001    2    1    2    0    0  0.11841539900E+02 -0.93949032147E+02  0.48213915704E+03  0.85542798810E+03  0.70023726933E+03 0.  0.
    5000001    2    3    3    0    0 -0.85215756709E+02 -0.89828074413E+01  0.15000614873E+02  0.15911067843E+03  0.13322452298E+03 0.  0.
        -11    1    4    4    0    0 -0.11160114515E+03 -0.21013583510E+02 -0.31579418659E+01  0.11360615691E+03  0.51100000000E-03 0. -1.
     200002    1    4    4    0    0  0.26385388442E+02  0.12030776068E+02  0.18158556739E+02  0.45504521521E+02  0.30000000000E+02 0. -1.
     200000    1    3    3    0    0  0.97057296610E+02 -0.84966224705E+02  0.46713854217E+03  0.69631730967E+03  0.50000000000E+03 0. -1.
    -200001    1    1    2    0    0 -0.11841539900E+02  0.93949032147E+02  0.85835769172E+03  0.11116404858E+04  0.70000000000E+03 0. -1.
<mgrwt>
<rscale>  0 0.14395925E+04</rscale>
<asrwt>0</asrwt>
<pdfrwt beam="1">  1        2 0.44755114E-01 0.14395925E+04</pdfrwt>
<pdfrwt beam="2">  1       -2 0.23625468E+00 0.14395925E+04</pdfrwt>
<totfact> 0.86367043E+00</totfact>
</mgrwt>
</event>
<event>
 8    1  0.6876290E-010  0.1628450E+04  0.7818608E-02  0.8803258E-01
         -2   -1    0    0    0  501 -0.00000000000E+00  0.00000000000E+00  0.34041543738E+03  0.34041543739E+03  0.25500000000E-02 0. -1.
          2   -1    0    0  501    0  0.00000000000E+00 -0.00000000000E+00 -0.19475097410E+04  0.19475097410E+04  0.25500000000E-02 0.  1.
     200001    2    1    2    0    0 -0.25193082478E+03 -0.25621587776E+03 -0.50738057342E+03  0.93570995702E+03  0.69928703755E+03 0.  0.
    5000001    2    3    3    0    0 -0.12110701408E+03 -0.15343207537E+03 -0.80593520139E+02  0.25760482628E+03  0.14716188509E+03 0.  0.
        -11    1    4    4    0    0 -0.15089130608E+02  0.22725231745E+02 -0.35878717703E+02  0.45071059502E+02  0.51100000000E-03 0. -1.
     200002    1    4    4    0    0 -0.10601788348E+03 -0.17615730711E+03 -0.44714802436E+02  0.21253376678E+03  0.30000000000E+02 0. -1.
     200000    1    3    3    0    0 -0.13082381070E+03 -0.10278380239E+03 -0.42678705328E+03  0.67810513073E+03  0.50000000000E+03 0. -1.
    -200001    1    1    2    0    0  0.25193082478E+03  0.25621587776E+03 -0.10997137302E+04  0.13522152214E+04  0.70000000000E+03 0.  1.
<mgrwt>
<rscale>  0 0.16284500E+04</rscale>
<asrwt>0</asrwt>
<pdfrwt beam="1">  1        2 0.27821567E+00 0.16284500E+04</pdfrwt>
<pdfrwt beam="2">  1       -2 0.48630778E-01 0.16284500E+04</pdfrwt>
<totfact> 0.32783258E+01</totfact>
</mgrwt>
</event>
<event>
 8    1  0.6876290E-010  0.1655792E+04  0.7818608E-02  0.8786987E-01
         -2   -1    0    0    0  501 -0.00000000000E+00  0.00000000000E+00  0.17119863557E+03  0.17119863559E+03  0.25500000000E-02 0. -1.
          2   -1    0    0  501    0  0.00000000000E+00 -0.00000000000E+00 -0.40036067300E+04  0.40036067300E+04  0.25500000000E-02 0.  1.
     200001    2    1    2    0    0  0.29124252443E+03  0.67235729930E+01 -0.27525576059E+04  0.28553568096E+04  0.70115741564E+03 0.  0.
    5000001    2    3    3    0    0  0.23382327023E+02 -0.17505944756E+02 -0.72824532387E+03  0.75293526046E+03  0.18898958536E+03 0.  0.
        -11    1    4    4    0    0  0.77989557870E+02 -0.51128259748E+02 -0.20868755795E+03  0.22857595439E+03  0.51100000000E-03 0. -1.
     200002    1    4    4    0    0 -0.54607230847E+02  0.33622314992E+02 -0.51955776593E+03  0.52435930607E+03  0.30000000000E+02 0. -1.
     200000    1    3    3    0    0  0.26786019741E+03  0.24229517749E+02 -0.20243122820E+04  0.21024215491E+04  0.50000000000E+03 0.  1.
    -200001    1    1    2    0    0 -0.29124252443E+03 -0.67235729930E+01 -0.10798504885E+04  0.13194485560E+04  0.70000000000E+03 0. -1.
<mgrwt>
<rscale>  0 0.16557923E+04</rscale>
<asrwt>0</asrwt>
<pdfrwt beam="1">  1        2 0.57194376E+00 0.16557923E+04</pdfrwt>
<pdfrwt beam="2">  1       -2 0.24456950E-01 0.16557923E+04</pdfrwt>
<totfact> 0.81993746E+00</totfact>
</mgrwt>
</event>
<event>
 8    1  0.6876290E-010  0.1425089E+04  0.7818608E-02  0.8935856E-01
         -2   -1    0    0    0  501 -0.00000000000E+00  0.00000000000E+00  0.26949845250E+03  0.26949845252E+03  0.25500000000E-02 0. -1.
          2   -1    0    0  501    0  0.00000000000E+00 -0.00000000000E+00 -0.18839423228E+04  0.18839423228E+04  0.25500000000E-02 0.  1.
     200001    2    1    2    0    0  0.78935104172E+02  0.10465628803E+03 -0.84313368770E+03  0.11036297985E+04  0.69995758978E+03 0.  0.
    5000001    2    3    3    0    0  0.86746221493E+02 -0.12240500511E+03 -0.25475189035E+03  0.29876273876E+03  0.43043654719E+02 0.  0.
        -11    1    4    4    0    0  0.25316825660E+02 -0.51012331942E+02 -0.10192507180E+03  0.11675581327E+03  0.51100000000E-03 0. -1.
     200002    1    4    4    0    0  0.61429395833E+02 -0.71392673171E+02 -0.15282681856E+03  0.18200692549E+03  0.30000000000E+02 0. -1.
     200000    1    3    3    0    0 -0.78111173207E+01  0.22706129314E+03 -0.58838179735E+03  0.80486705974E+03  0.50000000000E+03 0. -1.
    -200001    1    1    2    0    0 -0.78935104172E+02 -0.10465628803E+03 -0.77131018261E+03  0.10498109768E+04  0.70000000000E+03 0. -1.
<mgrwt>
<rscale>  0 0.14250888E+04</rscale>
<asrwt>0</asrwt>
<pdfrwt beam="1">  1        2 0.26913461E+00 0.14250888E+04</pdfrwt>
<pdfrwt beam="2">  1       -2 0.38499780E-01 0.14250888E+04</pdfrwt>
<totfact> 0.57070271E+01</totfact>
</mgrwt>
</event>
<event>
 8    1  0.6876290E-010  0.1788613E+04  0.7818608E-02  0.8712379E-01
         -2   -1    0    0    0  501 -0.00000000000E+00  0.00000000000E+00  0.86106771103E+03  0.86106771104E+03  0.25500000000E-02 0. -1.
          2   -1    0    0  501    0  0.00000000000E+00 -0.00000000000E+00 -0.92882786083E+03  0.92882786083E+03  0.25500000000E-02 0.  1.
     200001    2    1    2    0    0 -0.60624562601E+02  0.42313686938E+03  0.32088118003E+03  0.88228209077E+03  0.70195214095E+03 0.  0.
    5000001    2    3    3    0    0  0.73405192701E+02  0.11975261629E+03  0.15922177431E+03  0.26088065548E+03  0.15158539364E+03 0.  0.
        -11    1    4    4    0    0  0.10530447165E+03  0.11641253718E+03  0.14756094585E+03  0.21544173993E+03  0.51100000000E-03 0. -1.
     200002    1    4    4    0    0 -0.31899278950E+02  0.33400791075E+01  0.11660828457E+02  0.45438915549E+02  0.30000000000E+02 0. -1.
     200000    1    3    3    0    0 -0.13402975530E+03  0.30338425309E+03  0.16165940572E+03  0.62140143530E+03  0.50000000000E+03 0.  1.
    -200001    1    1    2    0    0  0.60624562601E+02 -0.42313686938E+03 -0.38864132982E+03  0.90761348110E+03  0.70000000000E+03 0.  1.
<mgrwt>
<rscale>  0 0.17886125E+04</rscale>
<asrwt>0</asrwt>
<pdfrwt beam="1">  1        2 0.13268969E+00 0.17886125E+04</pdfrwt>
<pdfrwt beam="2">  1       -2 0.12300967E+00 0.17886125E+04</pdfrwt>
<totfact> 0.14736419E+01</totfact>
</mgrwt>
</event>
<event>
 8    1  0.6876290E-010  0.1588749E+04  0.7818608E-02  0.8827490E-01
         -2   -1    0    0    0  501 -0.00000000000E+00  0.00000000000E+00  0.11785492359E+04  0.11785492359E+04  0.25500000000E-02 0. -1.
          2   -1    0    0  501    0  0.00000000000E+00 -0.00000000000E+00 -0.53542989076E+03  0.53542989077E+03  0.25500000000E-02 0.  1.
     200001    2    1    2    0    0  0.29556091713E+03  0.19573176990E+03  0.45567084095E+03  0.90725480994E+03  0.69986298186E+03 0.  0.
    5000001    2    3    3    0    0  0.90156392872E+02  0.68793205323E+02  0.95958444671E+02  0.24566775913E+03  0.19566283372E+03 0.  0.
        -11    1    4    4    0    0  0.70126558282E+02  0.12726399161E+03  0.25996659770E+02  0.14761329228E+03  0.51100000000E-03 0. -1.
     200002    1    4    4    0    0  0.20029834590E+02 -0.58470786289E+02  0.69961784901E+02  0.98054466852E+02  0.30000000000E+02 0. -1.
     200000    1    3    3    0    0  0.20540452425E+03  0.12693856457E+03  0.35971239628E+03  0.66158705081E+03  0.50000000000E+03 0. -1.
    -200001    1    1    2    0    0 -0.29556091713E+03 -0.19573176990E+03  0.18744850419E+03  0.80672431673E+03  0.70000000000E+03 0.  1.
<mgrwt>
<rscale>  0 0.15887485E+04</rscale>
<asrwt>0</asrwt>
<pdfrwt beam="1">  1        2 0.76489986E-01 0.15887485E+04</pdfrwt>
<pdfrwt beam="2">  1       -2 0.16836417E+00 0.15887485E+04</pdfrwt>
<totfact> 0.13053251E+01</totfact>
</mgrwt>
</event>
<event>
 8    1  0.6876290E-010  0.1588286E+04  0.7818608E-02  0.8827777E-01
         -2   -1    0    0    0  501 -0.00000000000E+00  0.00000000000E+00  0.38305045418E+03  0.38305045419E+03  0.25500000000E-02 0. -1.
          2   -1    0    0  501    0  0.00000000000E+00 -0.00000000000E+00 -0.16464226676E+04  0.16464226676E+04  0.25500000000E-02 0.  1.
     200001    2    1    2    0    0 -0.88164525383E+02  0.36449531923E+03 -0.64104790377E+03  0.10205542114E+04  0.69997047242E+03 0.  0.
    5000001    2    3    3    0    0 -0.45258605631E+02  0.14987271784E+03 -0.17378392199E+03  0.30205618941E+03  0.19112016399E+03 0.  0.
        -11    1    4    4    0    0 -0.60711227969E+02  0.86538096779E+02  0.86017135983E+01  0.10605981743E+03  0.51100000000E-03 0. -1.
     200002    1    4    4    0    0  0.15452622338E+02  0.63334621059E+02 -0.18238563559E+03  0.19599637198E+03  0.30000000000E+02 0. -1.
     200000    1    3    3    0    0 -0.42905919752E+02  0.21462260140E+03 -0.46726398178E+03  0.71849802202E+03  0.50000000000E+03 0.  1.
    -200001    1    1    2    0    0  0.88164525383E+02 -0.36449531923E+03 -0.62232430963E+03  0.10089189103E+04  0.70000000000E+03 0.  1.
<mgrwt>
<rscale>  0 0.15882858E+04</rscale>
<asrwt>0</asrwt>
<pdfrwt beam="1">  1        2 0.23520323E+00 0.15882858E+04</pdfrwt>
<pdfrwt beam="2">  1       -2 0.54721494E-01 0.15882858E+04</pdfrwt>
<totfact> 0.36959269E+01</totfact>
</mgrwt>
</event>
<event>
 8    1  0.6876290E-010  0.1728598E+04  0.7818608E-02  0.8745220E-01
         -2   -1    0    0    0  501 -0.00000000000E+00  0.00000000000E+00  0.39323194123E+03  0.39323194124E+03  0.25500000000E-02 0. -1.
          2   -1    0    0  501    0  0.00000000000E+00 -0.00000000000E+00 -0.18996752177E+04  0.18996752177E+04  0.25500000000E-02 0.  1.
     200001    2    1    2    0    0 -0.31875596170E+03  0.38063833725E+03 -0.61635836549E+03  0.10564840697E+04  0.69983572920E+03 0.  0.
    5000001    2    3    3    0    0  0.49071256081E+02  0.44880612020E+02 -0.86915634652E+02  0.17424843367E+03  0.13559473287E+03 0.  0.
        -11    1    4    4    0    0  0.68726124325E+02  0.76364234091E+02 -0.66233808298E+02  0.12223622121E+03  0.51100000000E-03 0. -1.
     200002    1    4    4    0    0 -0.19654868244E+02 -0.31483622072E+02 -0.20681826354E+02  0.52012212468E+02  0.30000000000E+02 0. -1.
     200000    1    3    3    0    0 -0.36782721779E+03  0.33575772523E+03 -0.52944273084E+03  0.88223563600E+03  0.50000000000E+03 0. -1.
    -200001    1    1    2    0    0  0.31875596170E+03 -0.38063833725E+03 -0.89008491098E+03  0.12364230893E+04  0.70000000000E+03 0. -1.
<mgrwt>
<rscale>  0 0.17285982E+04</rscale>
<asrwt>0</asrwt>
<pdfrwt beam="1">  1        2 0.27138217E+00 0.17285982E+04</pdfrwt>
<pdfrwt beam="2">  1       -2 0.56175993E-01 0.17285982E+04</pdfrwt>
<totfact> 0.25589340E+01</totfact>
</mgrwt>
</event>
<event>
 8    1  0.6876290E-010  0.1686807E+04  0.7818608E-02  0.8768925E-01
          2   -1    0    0  501    0  0.00000000000E+00  0.00000000000E+00  0.10509703302E+04  0.10509703302E+04  0.25500000000E-02 0.  1.
         -2   -1    0    0    0  501 -0.00000000000E+00 -0.00000000000E+00 -0.67683130678E+03  0.67683130679E+03  0.25500000000E-02 0. -1.
     200001    2    1    2    0    0  0.14374393829E+02  0.28555469965E+03  0.57118032906E+03  0.94640968300E+03  0.69835249701E+03 0.  0.
    5000001    2    3    3    0    0 -0.15906914091E+02  0.95847535295E+02  0.12515731807E+03  0.24938580095E+03  0.19258541874E+03 0.  0.
        -11    1    4    4    0    0 -0.55347611011E+02  0.13677738412E+03  0.64577968694E+02  0.16106435016E+03  0.51100000000E-03 0. -1.
     200002    1    4    4    0    0  0.39440696920E+02 -0.40929848827E+02  0.60579349375E+02  0.88321450787E+02  0.30000000000E+02 0. -1.
     200000    1    3    3    0    0  0.30281307920E+02  0.18970716436E+03  0.44602301099E+03  0.69702388205E+03  0.50000000000E+03 0.  1.
    -200001    1    1    2    0    0 -0.14374393829E+02 -0.28555469965E+03 -0.19704130561E+03  0.78139195402E+03  0.70000000000E+03 0. -1.
<mgrwt>
<rscale>  0 0.16868072E+04</rscale>
<asrwt>0</asrwt>
<pdfrwt beam="1">  1        2 0.15013862E+00 0.16868072E+04</pdfrwt>
<pdfrwt beam="2">  1       -2 0.96690188E-01 0.16868072E+04</pdfrwt>
<totfact> 0.22329166E+01</totfact>
</mgrwt>
</event>
<event>
 8    1  0.6876290E-010  0.1681849E+04  0.7818608E-02  0.8771785E-01
         -2   -1    0    0    0  501 -0.00000000000E+00  0.00000000000E+00  0.27073161989E+03  0.27073161991E+03  0.25500000000E-02 0. -1.
          2   -1    0    0  501    0  0.00000000000E+00 -0.00000000000E+00 -0.26120115641E+04  0.26120115641E+04  0.25500000000E-02 0.  1.
     200001    2    1    2    0    0 -0.37570214741E+03 -0.10347711565E+03 -0.16093275430E+04  0.17975639663E+04  0.69960092556E+03 0.  0.
    5000001    2    3    3    0    0 -0.19350512448E+03  0.37435661802E+02 -0.45895791066E+03  0.52225911758E+03  0.15253380007E+03 0.  0.
        -11    1    4    4    0    0 -0.12461366887E+03 -0.27772340319E+02 -0.35986012300E+03  0.38183658479E+03  0.51100000000E-03 0. -1.
     200002    1    4    4    0    0 -0.68891455607E+02  0.65208002122E+02 -0.99097787658E+02  0.14042253279E+03  0.30000000000E+02 0. -1.
     200000    1    3    3    0    0 -0.18219702294E+03 -0.14091277746E+03 -0.11503696324E+04  0.12753048487E+04  0.50000000000E+03 0.  1.
    -200001    1    1    2    0    0  0.37570214741E+03  0.10347711565E+03 -0.73195240120E+03  0.10851792178E+04  0.70000000000E+03 0. -1.
<mgrwt>
<rscale>  0 0.16818491E+04</rscale>
<asrwt>0</asrwt>
<pdfrwt beam="1">  1        2 0.37314449E+00 0.16818491E+04</pdfrwt>
<pdfrwt beam="2">  1       -2 0.38675947E-01 0.16818491E+04</pdfrwt>
<totfact> 0.23214928E+01</totfact>
</mgrwt>
</event>
<event>
 8    1  0.6876290E-010  0.2038667E+04  0.7818608E-02  0.8588753E-01
          2   -1    0    0  501    0  0.00000000000E+00  0.00000000000E+00  0.30582622931E+04  0.30582622931E+04  0.25500000000E-02 0.  1.
         -2   -1    0    0    0  501 -0.00000000000E+00 -0.00000000000E+00 -0.33974881609E+03  0.33974881609E+03  0.25500000000E-02 0. -1.
     200001    2    1    2    0    0  0.27670845838E+03  0.44690432001E+01  0.21204348935E+03  0.78095563742E+03  0.69881451255E+03 0.  0.
    5000001    2    3    3    0    0  0.58799995965E+01  0.19305818365E+02  0.23598763810E+02  0.18172312948E+03  0.17905056581E+03 0.  0.
        -11    1    4    4    0    0  0.69960332487E+02  0.27095624087E+02 -0.41088561196E+02  0.85538826434E+02  0.51100000000E-03 0. -1.
     200002    1    4    4    0    0 -0.64080332890E+02 -0.77898057212E+01  0.64687325006E+02  0.96184303048E+02  0.30000000000E+02 0. -1.
     200000    1    3    3    0    0  0.27082845878E+03 -0.14836775165E+02  0.18844472554E+03  0.59923250794E+03  0.50000000000E+03 0. -1.
    -200001    1    1    2    0    0 -0.27670845838E+03 -0.44690432001E+01  0.25064699876E+04  0.26170554718E+04  0.70000000000E+03 0.  1.
<mgrwt>
<rscale>  0 0.20386672E+04</rscale>
<asrwt>0</asrwt>
<pdfrwt beam="1">  1        2 0.43689461E+00 0.20386672E+04</pdfrwt>
<pdfrwt beam="2">  1       -2 0.48535546E-01 0.20386672E+04</pdfrwt>
<totfact> 0.81823244E+00</totfact>
</mgrwt>
</event>
<event>
 8    1  0.6876290E-010  0.1960135E+04  0.7818608E-02  0.8625489E-01
          2   -1    0    0  501    0  0.00000000000E+00  0.00000000000E+00  0.39887329355E+04  0.39887329355E+04  0.25500000000E-02 0.  1.
         -2   -1    0    0    0  501 -0.00000000000E+00 -0.00000000000E+00 -0.24081131648E+03  0.24081131649E+03  0.25500000000E-02 0. -1.
     200001    2    1    2    0    0 -0.62802536144E+03  0.21877190946E+03  0.15275169717E+04  0.18082896596E+04  0.70308348826E+03 0.  0.
    5000001    2    3    3    0    0 -0.26760496908E+03  0.93350657176E+02  0.45102506954E+03  0.56150653291E+03  0.17759281652E+03 0.  0.
        -11    1    4    4    0    0  0.52696534382E+01  0.17639864296E+02  0.13442546577E+03  0.13568028562E+03  0.51100000000E-03 0. -1.
     200002    1    4    4    0    0 -0.27287462251E+03  0.75710792880E+02  0.31659960377E+03  0.42582624729E+03  0.30000000000E+02 0. -1.
     200000    1    3    3    0    0 -0.36042039237E+03  0.12542125228E+03  0.10764919021E+04  0.12467831267E+04  0.50000000000E+03 0. -1.
    -200001    1    1    2    0    0  0.62802536144E+03 -0.21877190946E+03  0.22204046474E+04  0.24212545924E+04  0.70000000000E+03 0.  1.
<mgrwt>
<rscale>  0 0.19601347E+04</rscale>
<asrwt>0</asrwt>
<pdfrwt beam="1">  1        2 0.56981898E+00 0.19601347E+04</pdfrwt>
<pdfrwt beam="2">  1       -2 0.34401617E-01 0.19601347E+04</pdfrwt>
<totfact> 0.43245148E+00</totfact>
</mgrwt>
</event>
<event>
 8    1  0.6876290E-010  0.2385668E+04  0.7818608E-02  0.8444889E-01
          2   -1    0    0  501    0  0.00000000000E+00  0.00000000000E+00  0.31260677450E+04  0.31260677450E+04  0.25500000000E-02 0.  1.
         -2   -1    0    0    0  501 -0.00000000000E+00 -0.00000000000E+00 -0.45515752769E+03  0.45515752770E+03  0.25500000000E-02 0. -1.
     200001    2    1    2    0    0  0.46452487045E+03 -0.84633297555E+03  0.13388014756E+04  0.17933280272E+04  0.70112278614E+03 0.  0.
    5000001    2    3    3    0    0  0.70626427760E+02 -0.30131931818E+03  0.38868413036E+03  0.52647411311E+03  0.17412126457E+03 0.  0.
        -11    1    4    4    0    0  0.51225795704E+02 -0.30455970193E+03  0.29891797474E+03  0.42980536270E+03  0.51100000000E-03 0. -1.
     200002    1    4    4    0    0  0.19400632056E+02  0.32403837451E+01  0.89766155626E+02  0.96668750415E+02  0.30000000000E+02 0. -1.
     200000    1    3    3    0    0  0.39389844270E+03 -0.54501365737E+03  0.95011734528E+03  0.12668539141E+04  0.50000000000E+03 0. -1.
    -200001    1    1    2    0    0 -0.46452487045E+03  0.84633297555E+03  0.13321087416E+04  0.17878972455E+04  0.70000000000E+03 0. -1.
<mgrwt>
<rscale>  0 0.23856683E+04</rscale>
<asrwt>0</asrwt>
<pdfrwt beam="1">  1        2 0.44658109E+00 0.23856683E+04</pdfrwt>
<pdfrwt beam="2">  1       -2 0.65022506E-01 0.23856683E+04</pdfrwt>
<totfact> 0.39494240E+00</totfact>
</mgrwt>
</event>
<event>
 8    1  0.6876290E-010  0.1929358E+04  0.7818608E-02  0.8640380E-01
         -2   -1    0    0    0  501 -0.00000000000E+00  0.00000000000E+00  0.39467918553E+03  0.39467918554E+03  0.25500000000E-02 0. -1.
          2   -1    0    0  501    0  0.00000000000E+00 -0.00000000000E+00 -0.23578782388E+04  0.23578782388E+04  0.25500000000E-02 0.  1.
     200001    2    1    2    0    0 -0.42396150996E+03 -0.27301085563E+03 -0.15977890680E+04  0.18156461443E+04  0.69954465656E+03 0.  0.
    5000001    2    3    3    0    0 -0.45586231831E+02 -0.79970636215E+02 -0.43392017120E+03  0.47959854553E+03  0.18235855537E+03 0.  0.
        -11    1    4    4    0    0  0.29386602246E+02  0.29237606718E+02 -0.23565242994E+03  0.23927072068E+03  0.51100000000E-03 0. -1.
     200002    1    4    4    0    0 -0.74972834077E+02 -0.10920824293E+03 -0.19826774125E+03  0.24032782485E+03  0.30000000000E+02 0. -1.
     200000    1    3    3    0    0 -0.37837527813E+03 -0.19304021942E+03 -0.11638688968E+04  0.13360475988E+04  0.50000000000E+03 0.  1.
    -200001    1    1    2    0    0  0.42396150996E+03  0.27301085563E+03 -0.36540998527E+03  0.93691127998E+03  0.70000000000E+03 0. -1.
<mgrwt>
<rscale>  0 0.19293579E+04</rscale>
<asrwt>0</asrwt>
<pdfrwt beam="1">  1        2 0.33683974E+00 0.19293579E+04</pdfrwt>
<pdfrwt beam="2">  1       -2 0.56382742E-01 0.19293579E+04</pdfrwt>
<totfact> 0.14488239E+01</totfact>
</mgrwt>
</event>
<event>
 8    1  0.6876290E-010  0.2451204E+04  0.7818608E-02  0.8420578E-01
         -2   -1    0    0    0  501 -0.00000000000E+00  0.00000000000E+00  0.66811501547E+03  0.66811501548E+03  0.25500000000E-02 0. -1.
          2   -1    0    0  501    0  0.00000000000E+00 -0.00000000000E+00 -0.22482664834E+04  0.22482664834E+04  0.25500000000E-02 0.  1.
     200001    2    1    2    0    0 -0.14472209257E+03  0.77285781453E+03 -0.15369790707E+04  0.18627603424E+04  0.69951250454E+03 0.  0.
    5000001    2    3    3    0    0 -0.25098037445E+02  0.26830278293E+03 -0.61290332769E+03  0.69109414709E+03  0.17130188628E+03 0.  0.
        -11    1    4    4    0    0 -0.27508021225E+02 -0.13284744066E+02 -0.28906351961E+02  0.42056543373E+02  0.51100000000E-03 0. -1.
     200002    1    4    4    0    0  0.24099837803E+01  0.28158752700E+03 -0.58399697573E+03  0.64903760372E+03  0.30000000000E+02 0. -1.
     200000    1    3    3    0    0 -0.11962405512E+03  0.50455503160E+03 -0.92407574299E+03  0.11716661953E+04  0.50000000000E+03 0.  1.
    -200001    1    1    2    0    0  0.14472209257E+03 -0.77285781453E+03 -0.43172397296E+02  0.10536211565E+04  0.70000000000E+03 0. -1.
<mgrwt>
<rscale>  0 0.24512043E+04</rscale>
<asrwt>0</asrwt>
<pdfrwt beam="1">  1        2 0.32118092E+00 0.24512043E+04</pdfrwt>
<pdfrwt beam="2">  1       -2 0.95445003E-01 0.24512043E+04</pdfrwt>
<totfact> 0.49557889E+00</totfact>
</mgrwt>
</event>
<event>
 8    1  0.6876290E-010  0.1535526E+04  0.7818608E-02  0.8861167E-01
          2   -1    0    0  501    0  0.00000000000E+00  0.00000000000E+00  0.93017745287E+03  0.93017745288E+03  0.25500000000E-02 0.  1.
         -2   -1    0    0    0  501 -0.00000000000E+00 -0.00000000000E+00 -0.63370676950E+03  0.63370676950E+03  0.25500000000E-02 0. -1.
     200001    2    1    2    0    0  0.14827108850E+03 -0.22076299035E+03 -0.15515987731E+02  0.75267753075E+03  0.70396172185E+03 0.  0.
    5000001    2    3    3    0    0  0.31211009758E+02 -0.84878100656E+02 -0.50857386242E+02  0.22030850486E+03  0.19434748385E+03 0.  0.
        -11    1    4    4    0    0 -0.14747674382E+02  0.22812533310E+02 -0.89405170787E+02  0.93440837643E+02  0.51100000000E-03 0. -1.
     200002    1    4    4    0    0  0.45958684140E+02 -0.10769063397E+03  0.38547784545E+02  0.12686766722E+03  0.30000000000E+02 0. -1.
     200000    1    3    3    0    0  0.11706007874E+03 -0.13588488969E+03  0.35341398511E+02  0.53236902589E+03  0.50000000000E+03 0. -1.
    -200001    1    1    2    0    0 -0.14827108850E+03  0.22076299035E+03  0.31198667111E+03  0.81120669163E+03  0.70000000000E+03 0.  1.
<mgrwt>
<rscale>  0 0.15355256E+04</rscale>
<asrwt>0</asrwt>
<pdfrwt beam="1">  1        2 0.13288249E+00 0.15355256E+04</pdfrwt>
<pdfrwt beam="2">  1       -2 0.90529538E-01 0.15355256E+04</pdfrwt>
<totfact> 0.31300220E+01</totfact>
</mgrwt>
</event>
<event>
 8    1  0.6876290E-010  0.2177371E+04  0.7818608E-02  0.8527906E-01
          2   -1    0    0  501    0  0.00000000000E+00  0.00000000000E+00  0.64307530739E+03  0.64307530740E+03  0.25500000000E-02 0.  1.
         -2   -1    0    0    0  501 -0.00000000000E+00 -0.00000000000E+00 -0.18430744759E+04  0.18430744759E+04  0.25500000000E-02 0. -1.
     200001    2    1    2    0    0 -0.51643420907E+03  0.60016928792E+03 -0.89840845939E+03  0.13871209291E+04  0.70004231698E+03 0.  0.
    5000001    2    3    3    0    0 -0.14266649913E+03  0.48032585259E+02 -0.45346204786E+02  0.19453028279E+03  0.11456392719E+03 0.  0.
        -11    1    4    4    0    0 -0.23750290461E+02  0.13342992890E+02  0.34631155150E+02  0.44061646174E+02  0.51100000000E-03 0. -1.
     200002    1    4    4    0    0 -0.11891620867E+03  0.34689592370E+02 -0.79977359936E+02  0.15046863662E+03  0.30000000000E+02 0. -1.
     200000    1    3    3    0    0 -0.37376770994E+03  0.55213670266E+03 -0.85306225461E+03  0.11925906463E+04  0.50000000000E+03 0. -1.
    -200001    1    1    2    0    0  0.51643420907E+03 -0.60016928792E+03 -0.30159070907E+03  0.10990288542E+04  0.70000000000E+03 0. -1.
<mgrwt>
<rscale>  0 0.21773706E+04</rscale>
<asrwt>0</asrwt>
<pdfrwt beam="1">  1        2 0.91867902E-01 0.21773706E+04</pdfrwt>
<pdfrwt beam="2">  1       -2 0.26329635E+00 0.21773706E+04</pdfrwt>
<totfact> 0.24448422E+00</totfact>
</mgrwt>
</event>
<event>
 8    1  0.6876290E-010  0.1479926E+04  0.7818608E-02  0.8897913E-01
         -2   -1    0    0    0  501 -0.00000000000E+00  0.00000000000E+00  0.49728502236E+03  0.49728502237E+03  0.25500000000E-02 0. -1.
          2   -1    0    0  501    0  0.00000000000E+00 -0.00000000000E+00 -0.11010691953E+04  0.11010691953E+04  0.25500000000E-02 0.  1.
     200001    2    1    2    0    0  0.37263910384E+01  0.11956993290E+03 -0.74574601106E+02  0.71270551431E+03  0.69862502400E+03 0.  0.
    5000001    2    3    3    0    0  0.56251931840E+02 -0.15973955532E+02 -0.51392263123E+02  0.19148723094E+03  0.17494784312E+03 0.  0.
        -11    1    4    4    0    0 -0.52825014388E+02  0.10282912569E+02  0.17336053215E+02  0.56539890143E+02  0.51100000000E-03 0. -1.
     200002    1    4    4    0    0  0.10907694623E+03 -0.26256868101E+02 -0.68728316338E+02  0.13494734079E+03  0.30000000000E+02 0. -1.
     200000    1    3    3    0    0 -0.52525540801E+02  0.13554388844E+03 -0.23182337983E+02  0.52121828337E+03  0.50000000000E+03 0. -1.
    -200001    1    1    2    0    0 -0.37263910384E+01 -0.11956993290E+03 -0.52920957182E+03  0.88564870335E+03  0.70000000000E+03 0.  1.
<mgrwt>
<rscale>  0 0.14799260E+04</rscale>
<asrwt>0</asrwt>
<pdfrwt beam="1">  1        2 0.15729560E+00 0.14799260E+04</pdfrwt>
<pdfrwt beam="2">  1       -2 0.71040718E-01 0.14799260E+04</pdfrwt>
<totfact> 0.42564968E+01</totfact>
</mgrwt>
</event>
<event>
 8    1  0.6876290E-010  0.2039508E+04  0.7818608E-02  0.8588369E-01
         -2   -1    0    0    0  501 -0.00000000000E+00  0.00000000000E+00  0.54885746763E+03  0.54885746764E+03  0.25500000000E-02 0. -1.
          2   -1    0    0  501    0  0.00000000000E+00 -0.00000000000E+00 -0.18946602498E+04  0.18946602498E+04  0.25500000000E-02 0.  1.
     200001    2    1    2    0    0 -0.49829166527E+03 -0.77276010753E+02 -0.22004591035E+02  0.86342031021E+03  0.70053141581E+03 0.  0.
    5000001    2    3    3    0    0 -0.11330567420E+03 -0.31660554421E+02 -0.38279568156E+02  0.23052232628E+03  0.19451131346E+03 0.  0.
        -11    1    4    4    0    0 -0.63653130218E+02 -0.72829641277E+02  0.56499156071E+02  0.11201799977E+03  0.51100000000E-03 0. -1.
     200002    1    4    4    0    0 -0.49652543986E+02  0.41169086856E+02 -0.94778724227E+02  0.11850432652E+03  0.30000000000E+02 0. -1.
     200000    1    3    3    0    0 -0.38498599107E+03 -0.45615456332E+02  0.16274977121E+02  0.63289798393E+03  0.50000000000E+03 0. -1.
    -200001    1    1    2    0    0  0.49829166527E+03  0.77276010753E+02 -0.13237981912E+04  0.15800974073E+04  0.70000000000E+03 0.  1.
<mgrwt>
<rscale>  0 0.20395082E+04</rscale>
<asrwt>0</asrwt>
<pdfrwt beam="1">  1        2 0.27066575E+00 0.20395082E+04</pdfrwt>
<pdfrwt beam="2">  1       -2 0.78408211E-01 0.20395082E+04</pdfrwt>
<totfact> 0.12225538E+01</totfact>
</mgrwt>
</event>
<event>
 8    1  0.6876290E-010  0.1681772E+04  0.7818608E-02  0.8771829E-01
         -2   -1    0    0    0  501 -0.00000000000E+00  0.00000000000E+00  0.64120499658E+03  0.64120499658E+03  0.25500000000E-02 0. -1.
          2   -1    0    0  501    0  0.00000000000E+00 -0.00000000000E+00 -0.11027504949E+04  0.11027504950E+04  0.25500000000E-02 0.  1.
     200001    2    1    2    0    0  0.36559047422E+03  0.25145447440E+03 -0.38002387179E+03  0.91117009112E+03  0.69923318305E+03 0.  0.
    5000001    2    3    3    0    0  0.14171643738E+03 -0.28639122839E+00 -0.19116470208E+03  0.27937832655E+03  0.14637170279E+03 0.  0.
        -11    1    4    4    0    0  0.39422337503E+02  0.65504477307E+02 -0.91927048669E+02  0.11956395577E+03  0.51100000000E-03 0. -1.
     200002    1    4    4    0    0  0.10229409988E+03 -0.65790868536E+02 -0.99237653411E+02  0.15981437078E+03  0.30000000000E+02 0. -1.
     200000    1    3    3    0    0  0.22387403684E+03  0.25174086563E+03 -0.18885916971E+03  0.63179176458E+03  0.50000000000E+03 0. -1.
    -200001    1    1    2    0    0 -0.36559047422E+03 -0.25145447440E+03 -0.81521626579E+02  0.83278540041E+03  0.70000000000E+03 0.  1.
<mgrwt>
<rscale>  0 0.16817718E+04</rscale>
<asrwt>0</asrwt>
<pdfrwt beam="1">  1        2 0.15753578E+00 0.16817718E+04</pdfrwt>
<pdfrwt beam="2">  1       -2 0.91600714E-01 0.16817718E+04</pdfrwt>
<totfact> 0.23597954E+01</totfact>
</mgrwt>
</event>
<event>
 8    1  0.6876290E-010  0.3448463E+04  0.7818608E-02  0.8126113E-01
         -2   -1    0    0    0  501 -0.00000000000E+00  0.00000000000E+00  0.12590537161E+04  0.12590537161E+04  0.25500000000E-02 0. -1.
          2   -1    0    0  501    0  0.00000000000E+00 -0.00000000000E+00 -0.23612769880E+04  0.23612769880E+04  0.25500000000E-02 0.  1.
     200001    2    1    2    0    0 -0.80627801241E+03 -0.34746576236E+03  0.82290737944E+03  0.13916663701E+04  0.69910088056E+03 0.  0.
    5000001    2    3    3    0    0 -0.18775541552E+03 -0.18721007946E+03  0.25062412203E+03  0.39881179188E+03  0.16105491265E+03 0.  0.
        -11    1    4    4    0    0 -0.52399741372E+02  0.13504108355E+02  0.95381840110E+02  0.10966215966E+03  0.51100000000E-03 0. -1.
     200002    1    4    4    0    0 -0.13535567415E+03 -0.20071418782E+03  0.15524228192E+03  0.28914963222E+03  0.30000000000E+02 0. -1.
     200000    1    3    3    0    0 -0.61852259689E+03 -0.16025568290E+03  0.57228325741E+03  0.99285457821E+03  0.50000000000E+03 0. -1.
    -200001    1    1    2    0    0  0.80627801241E+03  0.34746576236E+03 -0.19251306513E+04  0.22286643341E+04  0.70000000000E+03 0.  1.
<mgrwt>
<rscale>  0 0.34484632E+04</rscale>
<asrwt>0</asrwt>
<pdfrwt beam="1">  1        2 0.33732528E+00 0.34484632E+04</pdfrwt>
<pdfrwt beam="2">  1       -2 0.17986482E+00 0.34484632E+04</pdfrwt>
<totfact> 0.78926689E-01</totfact>
</mgrwt>
</event>
<event>
 8    1  0.6876290E-010  0.1780089E+04  0.7818608E-02  0.8716960E-01
          2   -1    0    0  501    0  0.00000000000E+00  0.00000000000E+00  0.18452137246E+04  0.18452137246E+04  0.25500000000E-02 0.  1.
         -2   -1    0    0    0  501 -0.00000000000E+00 -0.00000000000E+00 -0.42931561929E+03  0.42931561930E+03  0.25500000000E-02 0. -1.
     200001    2    1    2    0    0 -0.28476698555E+03 -0.35462537637E+03  0.11027651935E+04  0.13829556711E+04  0.69973132166E+03 0.  0.
    5000001    2    3    3    0    0 -0.98898622273E+02 -0.14588758888E+03  0.39436426041E+03  0.47193953817E+03  0.19010426540E+03 0.  0.
        -11    1    4    4    0    0  0.10806088819E+02 -0.60448637981E+02  0.10153022074E+02  0.62240607699E+02  0.51100000000E-03 0. -1.
     200002    1    4    4    0    0 -0.10970471109E+03 -0.85438950896E+02  0.38421123833E+03  0.40969893047E+03  0.30000000000E+02 0. -1.
     200000    1    3    3    0    0 -0.18586836328E+03 -0.20873778750E+03  0.70840093309E+03  0.91101613290E+03  0.50000000000E+03 0.  1.
    -200001    1    1    2    0    0  0.28476698555E+03  0.35462537637E+03  0.31313291180E+03  0.89157367283E+03  0.70000000000E+03 0. -1.
<mgrwt>
<rscale>  0 0.17800888E+04</rscale>
<asrwt>0</asrwt>
<pdfrwt beam="1">  1        2 0.26360197E+00 0.17800888E+04</pdfrwt>
<pdfrwt beam="2">  1       -2 0.61330801E-01 0.17800888E+04</pdfrwt>
<totfact> 0.22603098E+01</totfact>
</mgrwt>
</event>
<event>
 8    1  0.6876290E-010  0.1794910E+04  0.7818608E-02  0.8709011E-01
         -2   -1    0    0    0  501 -0.00000000000E+00  0.00000000000E+00  0.93957317998E+03  0.93957317998E+03  0.25500000000E-02 0. -1.
          2   -1    0    0  501    0  0.00000000000E+00 -0.00000000000E+00 -0.85722442571E+03  0.85722442571E+03  0.25500000000E-02 0.  1.
     200001    2    1    2    0    0 -0.41899929133E+03  0.36790747084E+03  0.10766888894E+03  0.90150021239E+03  0.70013836494E+03 0.  0.
    5000001    2    3    3    0    0 -0.20680229613E+03  0.17904200209E+03  0.13196605278E+03  0.32592390795E+03  0.11827141028E+03 0.  0.
        -11    1    4    4    0    0 -0.53546916272E+02  0.49186591374E+01 -0.64255740338E+01  0.54154902381E+02  0.51100000000E-03 0. -1.
     200002    1    4    4    0    0 -0.15325537986E+03  0.17412334295E+03  0.13839162681E+03  0.27176900557E+03  0.30000000000E+02 0. -1.
     200000    1    3    3    0    0 -0.21219699519E+03  0.18886546875E+03 -0.24297163841E+02  0.57557630444E+03  0.50000000000E+03 0.  1.
    -200001    1    1    2    0    0  0.41899929133E+03 -0.36790747084E+03 -0.25320134672E+02  0.89529739330E+03  0.70000000000E+03 0. -1.
<mgrwt>
<rscale>  0 0.17949096E+04</rscale>
<asrwt>0</asrwt>
<pdfrwt beam="1">  1        2 0.12246063E+00 0.17949096E+04</pdfrwt>
<pdfrwt beam="2">  1       -2 0.13422474E+00 0.17949096E+04</pdfrwt>
<totfact> 0.13166001E+01</totfact>
</mgrwt>
</event>
<event>
 8    1  0.6876290E-010  0.2515631E+04  0.7818608E-02  0.8397438E-01
          2   -1    0    0  501    0  0.00000000000E+00  0.00000000000E+00  0.17438574663E+04  0.17438574663E+04  0.25500000000E-02 0.  1.
         -2   -1    0    0    0  501 -0.00000000000E+00 -0.00000000000E+00 -0.90724124498E+03  0.90724124499E+03  0.25500000000E-02 0. -1.
     200001    2    1    2    0    0  0.82092558284E+03 -0.21280326298E+03  0.10621519209E+04  0.15285701402E+04  0.69939683230E+03 0.  0.
    5000001    2    3    3    0    0  0.15191026886E+03  0.16560421317E+02  0.23919260880E+03  0.33381023985E+03  0.17568493045E+03 0.  0.
        -11    1    4    4    0    0  0.85439191600E+02 -0.49753165806E+02  0.31253960723E+02  0.10369205866E+03  0.51100000000E-03 0. -1.
     200002    1    4    4    0    0  0.66471077256E+02  0.66313587123E+02  0.20793864807E+03  0.23011818118E+03  0.30000000000E+02 0. -1.
     200000    1    3    3    0    0  0.66901531398E+03 -0.22936368429E+03  0.82295931210E+03  0.11947599003E+04  0.50000000000E+03 0.  1.
    -200001    1    1    2    0    0 -0.82092558284E+03  0.21280326298E+03 -0.22553569955E+03  0.11225285712E+04  0.70000000000E+03 0. -1.
<mgrwt>
<rscale>  0 0.25156307E+04</rscale>
<asrwt>0</asrwt>
<pdfrwt beam="1">  1        2 0.24912250E+00 0.25156307E+04</pdfrwt>
<pdfrwt beam="2">  1       -2 0.12960589E+00 0.25156307E+04</pdfrwt>
<totfact> 0.42694324E+00</totfact>
</mgrwt>
</event>
<event>
 8    1  0.6876290E-010  0.1635981E+04  0.7818608E-02  0.8798744E-01
          2   -1    0    0  501    0  0.00000000000E+00  0.00000000000E+00  0.10757817154E+04  0.10757817154E+04  0.25500000000E-02 0.  1.
         -2   -1    0    0    0  501 -0.00000000000E+00 -0.00000000000E+00 -0.62197397315E+03  0.62197397316E+03  0.25500000000E-02 0. -1.
     200001    2    1    2    0    0  0.82419971230E+02  0.41040303663E+03  0.31357369507E+03  0.87017530451E+03  0.69545157574E+03 0.  0.
    5000001    2    3    3    0    0 -0.31715097873E+02  0.11268339184E+03  0.14444460798E+03  0.25351620177E+03  0.17234507697E+03 0.  0.
        -11    1    4    4    0    0  0.95361418643E+01  0.12549657405E+01  0.12973239254E+03  0.13008845689E+03  0.51100000000E-03 0. -1.
     200002    1    4    4    0    0 -0.41251239737E+02  0.11142842610E+03  0.14712215438E+02  0.12342774488E+03  0.30000000000E+02 0. -1.
     200000    1    3    3    0    0  0.11413506910E+03  0.29771964479E+03  0.16912908709E+03  0.61665910274E+03  0.50000000000E+03 0. -1.
    -200001    1    1    2    0    0 -0.82419971230E+02 -0.41040303663E+03  0.14023404722E+03  0.82758038409E+03  0.70000000000E+03 0.  1.
<mgrwt>
<rscale>  0 0.16359807E+04</rscale>
<asrwt>0</asrwt>
<pdfrwt beam="1">  1        2 0.15368310E+00 0.16359807E+04</pdfrwt>
<pdfrwt beam="2">  1       -2 0.88853425E-01 0.16359807E+04</pdfrwt>
<totfact> 0.26359420E+01</totfact>
</mgrwt>
</event>
<event>
 8    1  0.6876290E-010  0.1413291E+04  0.7818608E-02  0.8944254E-01
          2   -1    0    0  501    0  0.00000000000E+00  0.00000000000E+00  0.10863860115E+04  0.10863860115E+04  0.25500000000E-02 0.  1.
         -2   -1    0    0    0  501 -0.00000000000E+00 -0.00000000000E+00 -0.45964098090E+03  0.45964098091E+03  0.25500000000E-02 0. -1.
     200001    2    1    2    0    0  0.73632887213E+02  0.28005492242E+02  0.24639376851E+03  0.74548143327E+03  0.69916133225E+03 0.  0.
    5000001    2    3    3    0    0 -0.12723281857E+02 -0.41184083594E+02  0.50497268657E+02  0.19719316603E+03  0.18568026266E+03 0.  0.
        -11    1    4    4    0    0 -0.13949619365E+02  0.62707061232E+02  0.60941246007E+02  0.88547178803E+02  0.51100000000E-03 0. -1.
     200002    1    4    4    0    0  0.12263375084E+01 -0.10389114483E+03 -0.10443977350E+02  0.10864598722E+03  0.30000000000E+02 0. -1.
     200000    1    3    3    0    0  0.86356169069E+02  0.69189575836E+02  0.19589649985E+03  0.54828826724E+03  0.50000000000E+03 0. -1.
    -200001    1    1    2    0    0 -0.73632887213E+02 -0.28005492242E+02  0.38035126207E+03  0.80054555913E+03  0.70000000000E+03 0.  1.
<mgrwt>
<rscale>  0 0.14132905E+04</rscale>
<asrwt>0</asrwt>
<pdfrwt beam="1">  1        2 0.15519800E+00 0.14132905E+04</pdfrwt>
<pdfrwt beam="2">  1       -2 0.65662997E-01 0.14132905E+04</pdfrwt>
<totfact> 0.51772499E+01</totfact>
</mgrwt>
</event>
<event>
 8    1  0.6876290E-010  0.1713722E+04  0.7818608E-02  0.8753577E-01
         -2   -1    0    0    0  501 -0.00000000000E+00  0.00000000000E+00  0.28195423352E+03  0.28195423354E+03  0.25500000000E-02 0. -1.
          2   -1    0    0  501    0  0.00000000000E+00 -0.00000000000E+00 -0.26040071137E+04  0.26040071137E+04  0.25500000000E-02 0.  1.
     200001    2    1    2    0    0 -0.12334759284E+03 -0.93912944129E+02 -0.19514500419E+04  0.20788797321E+04  0.69967807231E+03 0.  0.
    5000001    2    3    3    0    0  0.43308910612E+02 -0.25952486456E+01 -0.29633965619E+03  0.33948222133E+03  0.15983926213E+03 0.  0.
        -11    1    4    4    0    0  0.84046171942E+02 -0.30114178909E+02 -0.25031337950E+03  0.26575818095E+03  0.51100000000E-03 0. -1.
     200002    1    4    4    0    0 -0.40737261330E+02  0.27518930263E+02 -0.46026276691E+02  0.73724040377E+02  0.30000000000E+02 0. -1.
     200000    1    3    3    0    0 -0.16665650345E+03 -0.91317695484E+02 -0.16551103857E+04  0.17393975108E+04  0.50000000000E+03 0.  1.
    -200001    1    1    2    0    0  0.12334759284E+03  0.93912944129E+02 -0.37060283830E+03  0.80708161514E+03  0.70000000000E+03 0. -1.
<mgrwt>
<rscale>  0 0.17137221E+04</rscale>
<asrwt>0</asrwt>
<pdfrwt beam="1">  1        2 0.37200100E+00 0.17137221E+04</pdfrwt>
<pdfrwt beam="2">  1       -2 0.40279178E-01 0.17137221E+04</pdfrwt>
<totfact> 0.21599846E+01</totfact>
</mgrwt>
</event>
<event>
 8    1  0.6876290E-010  0.2561211E+04  0.7818608E-02  0.8381498E-01
          2   -1    0    0  501    0  0.00000000000E+00  0.00000000000E+00  0.13539292494E+04  0.13539292494E+04  0.25500000000E-02 0.  1.
         -2   -1    0    0    0  501 -0.00000000000E+00 -0.00000000000E+00 -0.12112528882E+04  0.12112528882E+04  0.25500000000E-02 0. -1.
     200001    2    1    2    0    0 -0.10339415844E+04 -0.13937702129E+02  0.35512198857E+03  0.12985477767E+04  0.70063203040E+03 0.  0.
    5000001    2    3    3    0    0 -0.27421905344E+03  0.11853360531E+03 -0.38549496108E+01  0.31184041707E+03  0.89349203800E+02 0.  0.
        -11    1    4    4    0    0  0.62843914117E+01  0.26387281797E+01 -0.58878204670E+00  0.68412810482E+01  0.51100000000E-03 0. -1.
     200002    1    4    4    0    0 -0.28050344485E+03  0.11589487713E+03 -0.32661675641E+01  0.30499913602E+03  0.30000000000E+02 0. -1.
     200000    1    3    3    0    0 -0.75972253099E+03 -0.13247130744E+03  0.35897693818E+03  0.98670735962E+03  0.50000000000E+03 0.  1.
    -200001    1    1    2    0    0  0.10339415844E+04  0.13937702129E+02 -0.21244562734E+03  0.12666343609E+04  0.70000000000E+03 0. -1.
<mgrwt>
<rscale>  0 0.25612112E+04</rscale>
<asrwt>0</asrwt>
<pdfrwt beam="1">  1        2 0.19341846E+00 0.25612112E+04</pdfrwt>
<pdfrwt beam="2">  1       -2 0.17303613E+00 0.25612112E+04</pdfrwt>
<totfact> 0.31749717E+00</totfact>
</mgrwt>
</event>
<event>
 8    1  0.6876290E-010  0.2275040E+04  0.7818608E-02  0.8487828E-01
          2   -1    0    0  501    0  0.00000000000E+00  0.00000000000E+00  0.36211380946E+04  0.36211380946E+04  0.25500000000E-02 0.  1.
         -2   -1    0    0    0  501 -0.00000000000E+00 -0.00000000000E+00 -0.35733304937E+03  0.35733304938E+03  0.25500000000E-02 0. -1.
     200001    2    1    2    0    0 -0.75504229499E+03 -0.48036673773E+03  0.17239707934E+04  0.20648539949E+04  0.70050385730E+03 0.  0.
    5000001    2    3    3    0    0 -0.30945018513E+03 -0.59198161240E+02  0.47153986597E+03  0.58346325442E+03  0.13717027627E+03 0.  0.
        -11    1    4    4    0    0 -0.11995695071E+03 -0.57058399049E+02  0.10343667760E+03  0.16835818127E+03  0.51100000000E-03 0. -1.
     200002    1    4    4    0    0 -0.18949323442E+03 -0.21397621917E+01  0.36810318837E+03  0.41510507316E+03  0.30000000000E+02 0. -1.
     200000    1    3    3    0    0 -0.44559210986E+03 -0.42116857649E+03  0.12524309274E+04  0.14813907405E+04  0.50000000000E+03 0. -1.
    -200001    1    1    2    0    0  0.75504229499E+03  0.48036673773E+03  0.15398342519E+04  0.19136171491E+04  0.70000000000E+03 0.  1.
<mgrwt>
<rscale>  0 0.22750405E+04</rscale>
<asrwt>0</asrwt>
<pdfrwt beam="1">  1        2 0.51730544E+00 0.22750405E+04</pdfrwt>
<pdfrwt beam="2">  1       -2 0.51047578E-01 0.22750405E+04</pdfrwt>
<totfact> 0.33516200E+00</totfact>
</mgrwt>
</event>
<event>
 8    1  0.6876290E-010  0.1791462E+04  0.7818608E-02  0.8710853E-01
         -2   -1    0    0    0  501 -0.00000000000E+00  0.00000000000E+00  0.41058970848E+03  0.41058970849E+03  0.25500000000E-02 0. -1.
          2   -1    0    0  501    0  0.00000000000E+00 -0.00000000000E+00 -0.19541006367E+04  0.19541006367E+04  0.25500000000E-02 0.  1.
     200001    2    1    2    0    0  0.21758591261E+03 -0.34783740512E+03 -0.26684689981E+03  0.85200877553E+03  0.69740748194E+03 0.  0.
    5000001    2    3    3    0    0  0.11129027235E+03 -0.10063061747E+03 -0.16054511446E+03  0.27433237081E+03  0.16422993030E+03 0.  0.
        -11    1    4    4    0    0 -0.13173155176E+02  0.32223775232E+01  0.23573629237E+02  0.27196171235E+02  0.51100000000E-03 0. -1.
     200002    1    4    4    0    0  0.12446342753E+03 -0.10385299499E+03 -0.18411874369E+03  0.24713619957E+03  0.30000000000E+02 0. -1.
     200000    1    3    3    0    0  0.10629564026E+03 -0.24720678765E+03 -0.10630178535E+03  0.57767640472E+03  0.50000000000E+03 0. -1.
    -200001    1    1    2    0    0 -0.21758591261E+03  0.34783740512E+03 -0.12766640284E+04  0.15126815697E+04  0.70000000000E+03 0.  1.
<mgrwt>
<rscale>  0 0.17914615E+04</rscale>
<asrwt>0</asrwt>
<pdfrwt beam="1">  1        2 0.27915723E+00 0.17914615E+04</pdfrwt>
<pdfrwt beam="2">  1       -2 0.58655674E-01 0.17914615E+04</pdfrwt>
<totfact> 0.21805674E+01</totfact>
</mgrwt>
</event>
<event>
 8    1  0.6876290E-010  0.1675067E+04  0.7818608E-02  0.8775714E-01
          2   -1    0    0  501    0  0.00000000000E+00  0.00000000000E+00  0.29240505189E+04  0.29240505189E+04  0.25500000000E-02 0.  1.
         -2   -1    0    0    0  501 -0.00000000000E+00 -0.00000000000E+00 -0.23989397142E+03  0.23989397144E+03  0.25500000000E-02 0. -1.
     200001    2    1    2    0    0 -0.32196740818E+03 -0.21257071264E+03  0.18144033781E+04  0.19827078944E+04  0.70015830815E+03 0.  0.
    5000001    2    3    3    0    0 -0.15310242018E+03 -0.98669031154E+02  0.54522107931E+03  0.60346437543E+03  0.18364993414E+03 0.  0.
        -11    1    4    4    0    0 -0.10264028243E+03  0.27023058229E+02  0.14365662180E+03  0.17861270459E+03  0.51100000000E-03 0. -1.
     200002    1    4    4    0    0 -0.50462137755E+02 -0.12569208938E+03  0.40156445751E+03  0.42485167084E+03  0.30000000000E+02 0. -1.
     200000    1    3    3    0    0 -0.16886498800E+03 -0.11390168149E+03  0.12691822987E+04  0.13792435190E+04  0.50000000000E+03 0.  1.
    -200001    1    1    2    0    0  0.32196740818E+03  0.21257071264E+03  0.86975316938E+03  0.11812365959E+04  0.70000000000E+03 0. -1.
<mgrwt>
<rscale>  0 0.16750667E+04</rscale>
<asrwt>0</asrwt>
<pdfrwt beam="1">  1        2 0.41772149E+00 0.16750667E+04</pdfrwt>
<pdfrwt beam="2">  1       -2 0.34270569E-01 0.16750667E+04</pdfrwt>
<totfact> 0.19870135E+01</totfact>
</mgrwt>
</event>
<event>
 8    1  0.6876290E-010  0.1420998E+04  0.7818608E-02  0.8938758E-01
          2   -1    0    0  501    0  0.00000000000E+00  0.00000000000E+00  0.65436878622E+03  0.65436878622E+03  0.25500000000E-02 0.  1.
         -2   -1    0    0    0  501 -0.00000000000E+00 -0.00000000000E+00 -0.77144341718E+03  0.77144341718E+03  0.25500000000E-02 0. -1.
     200001    2    1    2    0    0 -0.63175312391E+02 -0.92055619164E+02 -0.10597974838E+03  0.71687747190E+03  0.70015444406E+03 0.  0.
    5000001    2    3    3    0    0 -0.58565010929E+02  0.76576887201E+02 -0.65113626233E+02  0.18760606985E+03  0.14718142874E+03 0.  0.
        -11    1    4    4    0    0  0.46596637673E+02  0.29035253601E+02 -0.83260854967E+01  0.55530318692E+02  0.51100000000E-03 0. -1.
     200002    1    4    4    0    0 -0.10516164860E+03  0.47541633600E+02 -0.56787540736E+02  0.13207575116E+03  0.30000000000E+02 0. -1.
     200000    1    3    3    0    0 -0.46103014616E+01 -0.16863250636E+03 -0.40866122152E+02  0.52927140204E+03  0.50000000000E+03 0. -1.
    -200001    1    1    2    0    0  0.63175312391E+02  0.92055619164E+02 -0.11094882578E+02  0.70893473151E+03  0.70000000000E+03 0.  1.
<mgrwt>
<rscale>  0 0.14209975E+04</rscale>
<asrwt>0</asrwt>
<pdfrwt beam="1">  1        2 0.93481255E-01 0.14209975E+04</pdfrwt>
<pdfrwt beam="2">  1       -2 0.11020620E+00 0.14209975E+04</pdfrwt>
<totfact> 0.31130372E+01</totfact>
</mgrwt>
</event>
<event>
 8    1  0.6876290E-010  0.1694669E+04  0.7818608E-02  0.8764410E-01
          2   -1    0    0  501    0  0.00000000000E+00  0.00000000000E+00  0.54916264300E+03  0.54916264301E+03  0.25500000000E-02 0.  1.
         -2   -1    0    0    0  501 -0.00000000000E+00 -0.00000000000E+00 -0.13074015224E+04  0.13074015224E+04  0.25500000000E-02 0. -1.
     200001    2    1    2    0    0  0.16688801177E+03  0.44242958588E+03 -0.30100034257E+03  0.89601087356E+03  0.69902698973E+03 0.  0.
    5000001    2    3    3    0    0 -0.99000610137E+02  0.81704883298E+02 -0.60409519504E+02  0.18277668028E+03  0.11524407163E+03 0.  0.
        -11    1    4    4    0    0  0.14312915653E+02  0.48220928832E+02 -0.22578301684E+02  0.55135263118E+02  0.51100000000E-03 0. -1.
     200002    1    4    4    0    0 -0.11331352579E+03  0.33483954466E+02 -0.37831217820E+02  0.12764141716E+03  0.30000000000E+02 0. -1.
     200000    1    3    3    0    0  0.26588862190E+03  0.36072470259E+03 -0.24059082307E+03  0.71323419328E+03  0.50000000000E+03 0.  1.
    -200001    1    1    2    0    0 -0.16688801177E+03 -0.44242958588E+03 -0.45723853683E+03  0.96055329186E+03  0.70000000000E+03 0. -1.
<mgrwt>
<rscale>  0 0.16946694E+04</rscale>
<asrwt>0</asrwt>
<pdfrwt beam="1">  1        2 0.78451806E-01 0.16946694E+04</pdfrwt>
<pdfrwt beam="2">  1       -2 0.18677165E+00 0.16946694E+04</pdfrwt>
<totfact> 0.93598030E+00</totfact>
</mgrwt>
</event>
<event>
 8    1  0.6876290E-010  0.1449445E+04  0.7818608E-02  0.8918786E-01
         -2   -1    0    0    0  501 -0.00000000000E+00  0.00000000000E+00  0.62330634888E+03  0.62330634888E+03  0.25500000000E-02 0. -1.
          2   -1    0    0  501    0  0.00000000000E+00 -0.00000000000E+00 -0.84263941583E+03  0.84263941583E+03  0.25500000000E-02 0.  1.
     200001    2    1    2    0    0  0.32155451893E+02 -0.77071308861E+02 -0.27940620366E+03  0.75842704306E+03  0.70012127040E+03 0.  0.
    5000001    2    3    3    0    0  0.70564293982E+02 -0.55472439085E+02 -0.23008415038E+02  0.19479455967E+03  0.17134474673E+03 0.  0.
        -11    1    4    4    0    0  0.46388758086E+02  0.52772947867E+02  0.18451255544E+02  0.72645369672E+02  0.51100000000E-03 0. -1.
     200002    1    4    4    0    0  0.24175535896E+02 -0.10824538695E+03 -0.41459670581E+02  0.12214919000E+03  0.30000000000E+02 0. -1.
     200000    1    3    3    0    0 -0.38408842089E+02 -0.21598869776E+02 -0.25639778862E+03  0.56363248339E+03  0.50000000000E+03 0.  1.
    -200001    1    1    2    0    0 -0.32155451893E+02  0.77071308861E+02  0.60073136704E+02  0.70751872165E+03  0.70000000000E+03 0. -1.
<mgrwt>
<rscale>  0 0.14494447E+04</rscale>
<asrwt>0</asrwt>
<pdfrwt beam="1">  1        2 0.12037706E+00 0.14494447E+04</pdfrwt>
<pdfrwt beam="2">  1       -2 0.89043764E-01 0.14494447E+04</pdfrwt>
<totfact> 0.37384220E+01</totfact>
</mgrwt>
</event>
<event>
 8    1  0.6876290E-010  0.1662894E+04  0.7818608E-02  0.8782815E-01
          2   -1    0    0  501    0  0.00000000000E+00  0.00000000000E+00  0.22158931414E+04  0.22158931415E+04  0.25500000000E-02 0.  1.
         -2   -1    0    0    0  501 -0.00000000000E+00 -0.00000000000E+00 -0.31197542190E+03  0.31197542191E+03  0.25500000000E-02 0. -1.
     200001    2    1    2    0    0  0.23544420272E+03 -0.98343519006E+01  0.37349772834E+03  0.82854045009E+03  0.70103354934E+03 0.  0.
    5000001    2    3    3    0    0  0.12854342446E+03  0.11791735997E+03  0.13378127368E+03  0.24956527367E+03  0.11814178297E+03 0.  0.
        -11    1    4    4    0    0 -0.17996602801E+02  0.11454995339E+02  0.35239730551E+02  0.41193849543E+02  0.51100000000E-03 0. -1.
     200002    1    4    4    0    0  0.14654002726E+03  0.10646236463E+03  0.98541543133E+02  0.20837142413E+03  0.30000000000E+02 0. -1.
     200000    1    3    3    0    0  0.10690077826E+03 -0.12775171187E+03  0.23971645465E+03  0.57897517642E+03  0.50000000000E+03 0. -1.
    -200001    1    1    2    0    0 -0.23544420272E+03  0.98343519006E+01  0.15304199912E+04  0.16993281133E+04  0.70000000000E+03 0.  1.
<mgrwt>
<rscale>  0 0.16628941E+04</rscale>
<asrwt>0</asrwt>
<pdfrwt beam="1">  1        2 0.31655617E+00 0.16628941E+04</pdfrwt>
<pdfrwt beam="2">  1       -2 0.44567916E-01 0.16628941E+04</pdfrwt>
<totfact> 0.28341884E+01</totfact>
</mgrwt>
</event>
<event>
 8    1  0.6876290E-010  0.1465730E+04  0.7818608E-02  0.8907567E-01
          2   -1    0    0  501    0  0.00000000000E+00  0.00000000000E+00  0.29789759139E+04  0.29789759139E+04  0.25500000000E-02 0.  1.
         -2   -1    0    0    0  501 -0.00000000000E+00 -0.00000000000E+00 -0.18029399637E+03  0.18029399638E+03  0.25500000000E-02 0. -1.
     200001    2    1    2    0    0  0.87535843675E+02 -0.19269136434E+03  0.14927885854E+04  0.16625568848E+04  0.70063196374E+03 0.  0.
    5000001    2    3    3    0    0  0.22626690810E+02 -0.14994081564E+02  0.69788990110E+03  0.70461458969E+03  0.93244926518E+02 0.  0.
        -11    1    4    4    0    0  0.42598254058E+02 -0.86174755791E+01  0.17035277656E+03  0.17580938717E+03  0.51100000000E-03 0. -1.
     200002    1    4    4    0    0 -0.19971563248E+02 -0.63766059850E+01  0.52753712454E+03  0.52880520252E+03  0.30000000000E+02 0. -1.
     200000    1    3    3    0    0  0.64909152865E+02 -0.17769728277E+03  0.79489868429E+03  0.95794229509E+03  0.50000000000E+03 0. -1.
    -200001    1    1    2    0    0 -0.87535843675E+02  0.19269136434E+03  0.13058933322E+04  0.14967130256E+04  0.70000000000E+03 0. -1.
<mgrwt>
<rscale>  0 0.14657305E+04</rscale>
<asrwt>0</asrwt>
<pdfrwt beam="1">  1        2 0.42556798E+00 0.14657305E+04</pdfrwt>
<pdfrwt beam="2">  1       -2 0.25756286E-01 0.14657305E+04</pdfrwt>
<totfact> 0.32110049E+01</totfact>
</mgrwt>
</event>
<event>
 8    1  0.6876290E-010  0.1869068E+04  0.7818608E-02  0.8670408E-01
         -2   -1    0    0    0  501 -0.00000000000E+00  0.00000000000E+00  0.36461109171E+03  0.36461109172E+03  0.25500000000E-02 0. -1.
          2   -1    0    0  501    0  0.00000000000E+00 -0.00000000000E+00 -0.23953029151E+04  0.23953029151E+04  0.25500000000E-02 0.  1.
     200001    2    1    2    0    0 -0.32336636199E+03  0.35288625334E+03 -0.43545502527E+03  0.95329424774E+03  0.70003880741E+03 0.  0.
    5000001    2    3    3    0    0 -0.24455875358E+02 -0.93207084292E+01  0.33875052310E+02  0.12214318813E+03  0.11439612665E+03 0.  0.
        -11    1    4    4    0    0 -0.46208408436E+02  0.26656528668E+02  0.44433160297E+02  0.69426891512E+02  0.51100000000E-03 0. -1.
     200002    1    4    4    0    0  0.21752533078E+02 -0.35977237097E+02 -0.10558107987E+02  0.52716296614E+02  0.30000000000E+02 0. -1.
     200000    1    3    3    0    0 -0.29891048663E+03  0.36220696176E+03 -0.46933007758E+03  0.83115105961E+03  0.50000000000E+03 0.  1.
    -200001    1    1    2    0    0  0.32336636199E+03 -0.35288625334E+03 -0.15952367981E+04  0.18066197591E+04  0.70000000000E+03 0. -1.
<mgrwt>
<rscale>  0 0.18690682E+04</rscale>
<asrwt>0</asrwt>
<pdfrwt beam="1">  1        2 0.34218612E+00 0.18690682E+04</pdfrwt>
<pdfrwt beam="2">  1       -2 0.52087300E-01 0.18690682E+04</pdfrwt>
<totfact> 0.16401695E+01</totfact>
</mgrwt>
</event>
<event>
 8    1  0.6876290E-010  0.2208335E+04  0.7818608E-02  0.8514967E-01
          2   -1    0    0  501    0  0.00000000000E+00  0.00000000000E+00  0.19597445117E+04  0.19597445117E+04  0.25500000000E-02 0.  1.
         -2   -1    0    0    0  501 -0.00000000000E+00 -0.00000000000E+00 -0.62211477881E+03  0.62211477882E+03  0.25500000000E-02 0. -1.
     200001    2    1    2    0    0 -0.42550289092E+03 -0.12627545246E+03 -0.18433992649E+03  0.84883019551E+03  0.69966655790E+03 0.  0.
    5000001    2    3    3    0    0 -0.13635191402E+03 -0.85017250080E+02  0.63635876175E+02  0.21890756105E+03  0.13435482231E+03 0.  0.
        -11    1    4    4    0    0  0.23059923722E+02 -0.30609817533E+02  0.13279120738E+02  0.40559290666E+02  0.51100000000E-03 0. -1.
     200002    1    4    4    0    0 -0.15941183774E+03 -0.54407432547E+02  0.50356755437E+02  0.17834827038E+03  0.30000000000E+02 0. -1.
     200000    1    3    3    0    0 -0.28915097690E+03 -0.41258202382E+02 -0.24797580267E+03  0.62992263446E+03  0.50000000000E+03 0. -1.
    -200001    1    1    2    0    0  0.42550289092E+03  0.12627545246E+03  0.15219696594E+04  0.17330290950E+04  0.70000000000E+03 0.  1.
<mgrwt>
<rscale>  0 0.22083351E+04</rscale>
<asrwt>0</asrwt>
<pdfrwt beam="1">  1        2 0.27996351E+00 0.22083351E+04</pdfrwt>
<pdfrwt beam="2">  1       -2 0.88873537E-01 0.22083351E+04</pdfrwt>
<totfact> 0.84029205E+00</totfact>
</mgrwt>
</event>
<event>
 8    1  0.6876290E-010  0.3054205E+04  0.7818608E-02  0.8228420E-01
         -2   -1    0    0    0  501 -0.00000000000E+00  0.00000000000E+00  0.12855458672E+04  0.12855458672E+04  0.25500000000E-02 0. -1.
          2   -1    0    0  501    0  0.00000000000E+00 -0.00000000000E+00 -0.18140478342E+04  0.18140478342E+04  0.25500000000E-02 0.  1.
     200001    2    1    2    0    0  0.76585436070E+03 -0.32340420035E+03  0.82432562384E+03  0.13642938226E+04  0.70047249890E+03 0.  0.
    5000001    2    3    3    0    0  0.10512746645E+03  0.57934518969E+01  0.15369997349E+03  0.24864607985E+03  0.16466888865E+03 0.  0.
        -11    1    4    4    0    0  0.28369215074E+02 -0.30676457875E+02  0.15291535038E+03  0.15852117150E+03  0.51100000000E-03 0. -1.
     200002    1    4    4    0    0  0.76758251374E+02  0.36469909772E+02  0.78462311555E+00  0.90124908356E+02  0.30000000000E+02 0. -1.
     200000    1    3    3    0    0  0.66072689425E+03 -0.32919765225E+03  0.67062565035E+03  0.11156477428E+04  0.50000000000E+03 0. -1.
    -200001    1    1    2    0    0 -0.76585436070E+03  0.32340420035E+03 -0.13528275908E+04  0.17352998787E+04  0.70000000000E+03 0.  1.
<mgrwt>
<rscale>  0 0.30542048E+04</rscale>
<asrwt>0</asrwt>
<pdfrwt beam="1">  1        2 0.25914969E+00 0.30542048E+04</pdfrwt>
<pdfrwt beam="2">  1       -2 0.18364941E+00 0.30542048E+04</pdfrwt>
<totfact> 0.14717954E+00</totfact>
</mgrwt>
</event>
<event>
 8    1  0.6876290E-010  0.1424803E+04  0.7818608E-02  0.8936058E-01
          2   -1    0    0  501    0  0.00000000000E+00  0.00000000000E+00  0.13952835124E+04  0.13952835124E+04  0.25500000000E-02 0.  1.
         -2   -1    0    0    0  501 -0.00000000000E+00 -0.00000000000E+00 -0.36373691926E+03  0.36373691927E+03  0.25500000000E-02 0. -1.
     200001    2    1    2    0    0 -0.74877792166E+01 -0.82452937600E+02  0.41722038662E+03  0.82400639873E+03  0.70573305179E+03 0.  0.
    5000001    2    3    3    0    0 -0.95137829840E+02 -0.29408973443E+02  0.83311418410E+02  0.21409542772E+03  0.17023502973E+03 0.  0.
        -11    1    4    4    0    0 -0.19330427529E+02  0.53349927094E+02  0.79740119527E+02  0.97869131047E+02  0.51100000000E-03 0. -1.
     200002    1    4    4    0    0 -0.75807402310E+02 -0.82758900537E+02  0.35712988831E+01  0.11622629668E+03  0.30000000000E+02 0. -1.
     200000    1    3    3    0    0  0.87650050623E+02 -0.53043964157E+02  0.33390896821E+03  0.60991097101E+03  0.50000000000E+03 0.  1.
    -200001    1    1    2    0    0  0.74877792166E+01  0.82452937600E+02  0.61432620647E+03  0.93501403290E+03  0.70000000000E+03 0.  1.
<mgrwt>
<rscale>  0 0.14248033E+04</rscale>
<asrwt>0</asrwt>
<pdfrwt beam="1">  1        2 0.19932621E+00 0.14248033E+04</pdfrwt>
<pdfrwt beam="2">  1       -2 0.51962417E-01 0.14248033E+04</pdfrwt>
<totfact> 0.56600939E+01</totfact>
</mgrwt>
</event>
<event>
 8    1  0.6876290E-010  0.1404825E+04  0.7818608E-02  0.8950333E-01
          2   -1    0    0  501    0  0.00000000000E+00  0.00000000000E+00  0.19262069219E+04  0.19262069219E+04  0.25500000000E-02 0.  1.
         -2   -1    0    0    0  501 -0.00000000000E+00 -0.00000000000E+00 -0.25614241541E+03  0.25614241542E+03  0.25500000000E-02 0. -1.
     200001    2    1    2    0    0  0.30516103085E+02  0.14965587559E+02  0.89219686082E+03  0.11353377445E+04  0.70129976062E+03 0.  0.
    5000001    2    3    3    0    0  0.39978343054E+02  0.85258196066E+01  0.35766981457E+03  0.40331987054E+03  0.18184681524E+03 0.  0.
        -11    1    4    4    0    0 -0.31429462347E+02 -0.14389606899E+02  0.30486489476E+03  0.30681831097E+03  0.51100000000E-03 0. -1.
     200002    1    4    4    0    0  0.71407805401E+02  0.22915426506E+02  0.52804919802E+02  0.96501559570E+02  0.30000000000E+02 0. -1.
     200000    1    3    3    0    0 -0.94622399692E+01  0.64397679528E+01  0.53452704625E+03  0.73201787394E+03  0.50000000000E+03 0. -1.
    -200001    1    1    2    0    0 -0.30516103085E+02 -0.14965587559E+02  0.77786764569E+03  0.10470115929E+04  0.70000000000E+03 0. -1.
<mgrwt>
<rscale>  0 0.14048250E+04</rscale>
<asrwt>0</asrwt>
<pdfrwt beam="1">  1        2 0.27517242E+00 0.14048250E+04</pdfrwt>
<pdfrwt beam="2">  1       -2 0.36591773E-01 0.14048250E+04</pdfrwt>
<totfact> 0.59980856E+01</totfact>
</mgrwt>
</event>
<event>
 8    1  0.6876290E-010  0.1843185E+04  0.7818608E-02  0.8683665E-01
         -2   -1    0    0    0  501 -0.00000000000E+00  0.00000000000E+00  0.70046799622E+03  0.70046799623E+03  0.25500000000E-02 0. -1.
          2   -1    0    0  501    0  0.00000000000E+00 -0.00000000000E+00 -0.12125219524E+04  0.12125219524E+04  0.25500000000E-02 0.  1.
     200001    2    1    2    0    0  0.55002795480E+03  0.10484602551E+03 -0.39004574579E+02  0.89943227510E+03  0.70280411248E+03 0.  0.
    5000001    2    3    3    0    0  0.16214128662E+03  0.81825564549E+02 -0.22684557464E+02  0.26598744567E+03  0.19300132710E+03 0.  0.
        -11    1    4    4    0    0  0.14760378147E+03  0.13589957029E+03 -0.26332320489E+02  0.20235849528E+03  0.51100000000E-03 0. -1.
     200002    1    4    4    0    0  0.14537505155E+02 -0.54074005739E+02  0.36477630254E+01  0.63628950391E+02  0.30000000000E+02 0. -1.
     200000    1    3    3    0    0  0.38788666817E+03  0.23020460960E+02 -0.16320017116E+02  0.63344482943E+03  0.50000000000E+03 0. -1.
    -200001    1    1    2    0    0 -0.55002795480E+03 -0.10484602551E+03 -0.47304938158E+03  0.10135576735E+04  0.70000000000E+03 0. -1.
<mgrwt>
<rscale>  0 0.18431851E+04</rscale>
<asrwt>0</asrwt>
<pdfrwt beam="1">  1        2 0.17321742E+00 0.18431851E+04</pdfrwt>
<pdfrwt beam="2">  1       -2 0.10006686E+00 0.18431851E+04</pdfrwt>
<totfact> 0.16368562E+01</totfact>
</mgrwt>
</event>
<event>
 8    1  0.6876290E-010  0.1989851E+04  0.7818608E-02  0.8611381E-01
          2   -1    0    0  501    0  0.00000000000E+00  0.00000000000E+00  0.67299399030E+03  0.67299399031E+03  0.25500000000E-02 0.  1.
         -2   -1    0    0    0  501 -0.00000000000E+00 -0.00000000000E+00 -0.14708545584E+04  0.14708545584E+04  0.25500000000E-02 0. -1.
     200001    2    1    2    0    0 -0.47529252773E+03 -0.18640321110E+03  0.12845093668E+03  0.87550232315E+03  0.69953951331E+03 0.  0.
    5000001    2    3    3    0    0 -0.58768649873E+02  0.32910201177E+02  0.42060785795E+02  0.18336521838E+03  0.16527812335E+03 0.  0.
        -11    1    4    4    0    0  0.45063962886E+02 -0.13364113559E+02 -0.19222526629E+02  0.50782534522E+02  0.51100000000E-03 0. -1.
     200002    1    4    4    0    0 -0.10383261276E+03  0.46274314736E+02  0.61283312424E+02  0.13258268386E+03  0.30000000000E+02 0. -1.
     200000    1    3    3    0    0 -0.41652387786E+03 -0.21931341228E+03  0.86390150881E+02  0.69213710477E+03  0.50000000000E+03 0.  1.
    -200001    1    1    2    0    0  0.47529252773E+03  0.18640321110E+03 -0.92631150480E+03  0.12683462256E+04  0.70000000000E+03 0. -1.
<mgrwt>
<rscale>  0 0.19898505E+04</rscale>
<asrwt>0</asrwt>
<pdfrwt beam="1">  1        2 0.96141999E-01 0.19898505E+04</pdfrwt>
<pdfrwt beam="2">  1       -2 0.21012208E+00 0.19898505E+04</pdfrwt>
<totfact> 0.50357281E+00</totfact>
</mgrwt>
</event>
<event>
 8    1  0.6876290E-010  0.1513612E+04  0.7818608E-02  0.8875452E-01
          2   -1    0    0  501    0  0.00000000000E+00  0.00000000000E+00  0.18706662127E+04  0.18706662127E+04  0.25500000000E-02 0.  1.
         -2   -1    0    0    0  501 -0.00000000000E+00 -0.00000000000E+00 -0.30617699063E+03  0.30617699064E+03  0.25500000000E-02 0. -1.
     200001    2    1    2    0    0 -0.22269160711E+03  0.16885149704E+03  0.68670085520E+03  0.10198579844E+04  0.70032125756E+03 0.  0.
    5000001    2    3    3    0    0 -0.58975836054E+02  0.43125692644E+01  0.13878347779E+03  0.24262612390E+03  0.19002587929E+03 0.  0.
        -11    1    4    4    0    0 -0.43205845763E+02  0.86123917665E+01 -0.40664881975E+02  0.59954574691E+02  0.51100000000E-03 0. -1.
     200002    1    4    4    0    0 -0.15769990291E+02 -0.42998225021E+01  0.17944835977E+03  0.18267154921E+03  0.30000000000E+02 0. -1.
     200000    1    3    3    0    0 -0.16371577106E+03  0.16453892778E+03  0.54791737740E+03  0.77723186046E+03  0.50000000000E+03 0. -1.
    -200001    1    1    2    0    0  0.22269160711E+03 -0.16885149704E+03  0.87778836692E+03  0.11569852190E+04  0.70000000000E+03 0.  1.
<mgrwt>
<rscale>  0 0.15136115E+04</rscale>
<asrwt>0</asrwt>
<pdfrwt beam="1">  1        2 0.26723803E+00 0.15136115E+04</pdfrwt>
<pdfrwt beam="2">  1       -2 0.43739571E-01 0.15136115E+04</pdfrwt>
<totfact> 0.44819050E+01</totfact>
</mgrwt>
</event>
<event>
 8    1  0.6876290E-010  0.1693180E+04  0.7818608E-02  0.8765263E-01
         -2   -1    0    0    0  501 -0.00000000000E+00  0.00000000000E+00  0.90175658027E+03  0.90175658027E+03  0.25500000000E-02 0. -1.
          2   -1    0    0  501    0  0.00000000000E+00 -0.00000000000E+00 -0.79479865275E+03  0.79479865276E+03  0.25500000000E-02 0.  1.
     200001    2    1    2    0    0  0.21843405546E+03  0.38946259562E+03  0.21843571901E+03  0.85880715158E+03  0.70031493651E+03 0.  0.
    5000001    2    3    3    0    0  0.52333691632E+02  0.64104053287E+00  0.29073951003E+02  0.17716984939E+03  0.16674721794E+03 0.  0.
        -11    1    4    4    0    0  0.18796996406E+02  0.38905289595E+02  0.85301050527E+02  0.95620174931E+02  0.51100000000E-03 0. -1.
     200002    1    4    4    0    0  0.33536695226E+02 -0.38264249063E+02 -0.56227099525E+02  0.81549674456E+02  0.30000000000E+02 0. -1.
     200000    1    3    3    0    0  0.16610036383E+03  0.38882155508E+03  0.18936176800E+03  0.68163730220E+03  0.50000000000E+03 0.  1.
    -200001    1    1    2    0    0 -0.21843405546E+03 -0.38946259562E+03 -0.11147779149E+03  0.83774808145E+03  0.70000000000E+03 0. -1.
<mgrwt>
<rscale>  0 0.16931803E+04</rscale>
<asrwt>0</asrwt>
<pdfrwt beam="1">  1        2 0.11354266E+00 0.16931803E+04</pdfrwt>
<pdfrwt beam="2">  1       -2 0.12882237E+00 0.16931803E+04</pdfrwt>
<totfact> 0.16260812E+01</totfact>
</mgrwt>
</event>
<event>
 8    1  0.6876290E-010  0.1498467E+04  0.7818608E-02  0.8885473E-01
         -2   -1    0    0    0  501 -0.00000000000E+00  0.00000000000E+00  0.73234848022E+03  0.73234848022E+03  0.25500000000E-02 0. -1.
          2   -1    0    0  501    0  0.00000000000E+00 -0.00000000000E+00 -0.76650810147E+03  0.76650810148E+03  0.25500000000E-02 0.  1.
     200001    2    1    2    0    0  0.95147389224E+02 -0.18694542333E+03  0.14896633989E+03  0.74550624180E+03  0.69970491578E+03 0.  0.
    5000001    2    3    3    0    0  0.76160660077E+02 -0.11492763779E+03  0.10046822114E+03  0.23766854643E+03  0.16548010887E+03 0.  0.
        -11    1    4    4    0    0  0.60463573069E+02 -0.24690488091E+02 -0.32892733106E+02  0.73125889819E+02  0.51100000000E-03 0. -1.
     200002    1    4    4    0    0  0.15697087009E+02 -0.90237149702E+02  0.13336095424E+03  0.16454265661E+03  0.30000000000E+02 0. -1.
     200000    1    3    3    0    0  0.18986729146E+02 -0.72017785540E+02  0.48498118748E+02  0.50783769537E+03  0.50000000000E+03 0. -1.
    -200001    1    1    2    0    0 -0.95147389224E+02  0.18694542333E+03 -0.18312596114E+03  0.75335033990E+03  0.70000000000E+03 0. -1.
<mgrwt>
<rscale>  0 0.14984673E+04</rscale>
<asrwt>0</asrwt>
<pdfrwt beam="1">  1        2 0.10950116E+00 0.14984673E+04</pdfrwt>
<pdfrwt beam="2">  1       -2 0.10462121E+00 0.14984673E+04</pdfrwt>
<totfact> 0.28835008E+01</totfact>
</mgrwt>
</event>
<event>
 8    1  0.6876290E-010  0.2119576E+04  0.7818608E-02  0.8552669E-01
          2   -1    0    0  501    0  0.00000000000E+00  0.00000000000E+00  0.36975923990E+04  0.36975923990E+04  0.25500000000E-02 0.  1.
         -2   -1    0    0    0  501 -0.00000000000E+00 -0.00000000000E+00 -0.30375180112E+03  0.30375180113E+03  0.25500000000E-02 0. -1.
     200001    2    1    2    0    0 -0.32559607923E+03 -0.70230796454E+03  0.20455897221E+04  0.22963428195E+04  0.69964544576E+03 0.  0.
    5000001    2    3    3    0    0 -0.13938989132E+03 -0.21189772992E+03  0.53354462177E+03  0.61960332633E+03  0.18683743958E+03 0.  0.
        -11    1    4    4    0    0 -0.52969214860E+02  0.17162919275E+02  0.42341047086E+02  0.69950466686E+02  0.51100000000E-03 0. -1.
     200002    1    4    4    0    0 -0.86420676457E+02 -0.22906064920E+03  0.49120357469E+03  0.54965285964E+03  0.30000000000E+02 0. -1.
     200000    1    3    3    0    0 -0.18620618791E+03 -0.49041023462E+03  0.15120451003E+04  0.16767394932E+04  0.50000000000E+03 0. -1.
    -200001    1    1    2    0    0  0.32559607923E+03  0.70230796454E+03  0.13482508758E+04  0.17050013807E+04  0.70000000000E+03 0.  1.
<mgrwt>
<rscale>  0 0.21195758E+04</rscale>
<asrwt>0</asrwt>
<pdfrwt beam="1">  1        2 0.52822746E+00 0.21195758E+04</pdfrwt>
<pdfrwt beam="2">  1       -2 0.43393116E-01 0.21195758E+04</pdfrwt>
<totfact> 0.42193342E+00</totfact>
</mgrwt>
</event>
<event>
 8    1  0.6876290E-010  0.1544589E+04  0.7818608E-02  0.8855332E-01
          2   -1    0    0  501    0  0.00000000000E+00  0.00000000000E+00  0.10227509909E+04  0.10227509910E+04  0.25500000000E-02 0.  1.
         -2   -1    0    0    0  501 -0.00000000000E+00 -0.00000000000E+00 -0.58317083926E+03  0.58317083927E+03  0.25500000000E-02 0. -1.
     200001    2    1    2    0    0  0.25602965935E+03  0.61789525510E+02  0.42102477373E+03  0.85778184734E+03  0.69939881727E+03 0.  0.
    5000001    2    3    3    0    0  0.13732619504E+03 -0.90100465524E+01  0.83679947336E+02  0.23898897106E+03  0.17656083914E+03 0.  0.
        -11    1    4    4    0    0  0.11085795917E+03 -0.75174644096E+02  0.90062748338E+02  0.16140635943E+03  0.51100000000E-03 0. -1.
     200002    1    4    4    0    0  0.26468235875E+02  0.66164597544E+02 -0.63828010022E+01  0.77582611629E+02  0.30000000000E+02 0. -1.
     200000    1    3    3    0    0  0.11870346431E+03  0.70799572063E+02  0.33734482640E+03  0.61879287628E+03  0.50000000000E+03 0.  1.
    -200001    1    1    2    0    0 -0.25602965935E+03 -0.61789525510E+02  0.18555377953E+02  0.74813998288E+03  0.70000000000E+03 0. -1.
<mgrwt>
<rscale>  0 0.15445887E+04</rscale>
<asrwt>0</asrwt>
<pdfrwt beam="1">  1        2 0.14610728E+00 0.15445887E+04</pdfrwt>
<pdfrwt beam="2">  1       -2 0.83310121E-01 0.15445887E+04</pdfrwt>
<totfact> 0.33101334E+01</totfact>
</mgrwt>
</event>
<event>
 8    1  0.6876290E-010  0.1505952E+04  0.7818608E-02  0.8880505E-01
          2   -1    0    0  501    0  0.00000000000E+00  0.00000000000E+00  0.30835397232E+04  0.30835397232E+04  0.25500000000E-02 0.  1.
         -2   -1    0    0    0  501 -0.00000000000E+00 -0.00000000000E+00 -0.18387074124E+03  0.18387074126E+03  0.25500000000E-02 0. -1.
     200001    2    1    2    0    0  0.72103141534E+02 -0.20983362106E+03  0.10890327145E+04  0.13135341366E+04  0.70010760830E+03 0.  0.
    5000001    2    3    3    0    0 -0.44720750113E+02  0.92684170651E+01  0.22844951175E+03  0.28773836080E+03  0.16887372742E+03 0.  0.
        -11    1    4    4    0    0  0.29705416717E+02 -0.33875193409E+02  0.17796231790E+03  0.18357703316E+03  0.51100000000E-03 0. -1.
     200002    1    4    4    0    0 -0.74426166830E+02  0.43143610474E+02  0.50487193846E+02  0.10416132764E+03  0.30000000000E+02 0. -1.
     200000    1    3    3    0    0  0.11682389165E+03 -0.21910203813E+03  0.86058320274E+03  0.10257957758E+04  0.50000000000E+03 0. -1.
    -200001    1    1    2    0    0 -0.72103141534E+02  0.20983362106E+03  0.18106362674E+04  0.19538763278E+04  0.70000000000E+03 0.  1.
<mgrwt>
<rscale>  0 0.15059518E+04</rscale>
<asrwt>0</asrwt>
<pdfrwt beam="1">  1        2 0.44050563E+00 0.15059518E+04</pdfrwt>
<pdfrwt beam="2">  1       -2 0.26267251E-01 0.15059518E+04</pdfrwt>
<totfact> 0.26980057E+01</totfact>
</mgrwt>
</event>
<event>
 8    1  0.6876290E-010  0.2948306E+04  0.7818608E-02  0.8258648E-01
         -2   -1    0    0    0  501 -0.00000000000E+00  0.00000000000E+00  0.25140645464E+04  0.25140645464E+04  0.25500000000E-02 0. -1.
          2   -1    0    0  501    0  0.00000000000E+00 -0.00000000000E+00 -0.86438816685E+03  0.86438816685E+03  0.25500000000E-02 0.  1.
     200001    2    1    2    0    0  0.11396381063E+04 -0.53176399212E+03  0.45890373505E+03  0.15104357306E+04  0.69948230976E+03 0.  0.
    5000001    2    3    3    0    0  0.28054522592E+03 -0.16201820505E+03  0.19252084173E+03  0.41694939325E+03  0.17840123171E+03 0.  0.
        -11    1    4    4    0    0  0.12510629012E+02  0.24857400726E+02  0.54072584343E+02  0.60813243516E+02  0.51100000000E-03 0. -1.
     200002    1    4    4    0    0  0.26803459691E+03 -0.18687560578E+03  0.13844825739E+03  0.35613614974E+03  0.30000000000E+02 0. -1.
     200000    1    3    3    0    0  0.85909288036E+03 -0.36974578707E+03  0.26638289332E+03  0.10934863374E+04  0.50000000000E+03 0.  1.
    -200001    1    1    2    0    0 -0.11396381063E+04  0.53176399212E+03  0.11907726445E+04  0.18680169827E+04  0.70000000000E+03 0. -1.
<mgrwt>
<rscale>  0 0.29483064E+04</rscale>
<asrwt>0</asrwt>
<pdfrwt beam="1">  1        2 0.12348403E+00 0.29483064E+04</pdfrwt>
<pdfrwt beam="2">  1       -2 0.35915207E+00 0.29483064E+04</pdfrwt>
<totfact> 0.40417054E-01</totfact>
</mgrwt>
</event>
<event>
 8    1  0.6876290E-010  0.2258495E+04  0.7818608E-02  0.8494468E-01
          2   -1    0    0  501    0  0.00000000000E+00  0.00000000000E+00  0.83387412145E+03  0.83387412145E+03  0.25500000000E-02 0.  1.
         -2   -1    0    0    0  501 -0.00000000000E+00 -0.00000000000E+00 -0.15292469579E+04  0.15292469579E+04  0.25500000000E-02 0. -1.
     200001    2    1    2    0    0 -0.51340554946E+03 -0.55377752568E+03 -0.83367512325E+03  0.13241878145E+04  0.69871621619E+03 0.  0.
    5000001    2    3    3    0    0 -0.20286578625E+03 -0.10224782658E+03 -0.37170846957E+03  0.45027294289E+03  0.11388323614E+03 0.  0.
        -11    1    4    4    0    0 -0.11632329833E+01 -0.33232409618E+02 -0.22892395248E+02  0.40370879610E+02  0.51100000000E-03 0. -1.
     200002    1    4    4    0    0 -0.20170255327E+03 -0.69015416960E+02 -0.34881607432E+03  0.40990206328E+03  0.30000000000E+02 0. -1.
     200000    1    3    3    0    0 -0.31053976321E+03 -0.45152969910E+03 -0.46196665368E+03  0.87391487161E+03  0.50000000000E+03 0. -1.
    -200001    1    1    2    0    0  0.51340554946E+03  0.55377752568E+03  0.13830228685E+03  0.10389332648E+04  0.70000000000E+03 0.  1.
<mgrwt>
<rscale>  0 0.22584946E+04</rscale>
<asrwt>0</asrwt>
<pdfrwt beam="1">  1        2 0.11912488E+00 0.22584946E+04</pdfrwt>
<pdfrwt beam="2">  1       -2 0.21846385E+00 0.22584946E+04</pdfrwt>
<totfact> 0.33245310E+00</totfact>
</mgrwt>
</event>
<event>
 8    1  0.6876290E-010  0.1786745E+04  0.7818608E-02  0.8713380E-01
          2   -1    0    0  501    0  0.00000000000E+00  0.00000000000E+00  0.31838504454E+04  0.31838504454E+04  0.25500000000E-02 0.  1.
         -2   -1    0    0    0  501 -0.00000000000E+00 -0.00000000000E+00 -0.25067583269E+03  0.25067583270E+03  0.25500000000E-02 0. -1.
     200001    2    1    2    0    0  0.28059117937E+03 -0.42838226507E+03  0.18814261989E+04  0.20712884041E+04  0.69873338004E+03 0.  0.
    5000001    2    3    3    0    0  0.13225634562E+03 -0.19797325858E+03  0.46132230497E+03  0.54099869215E+03  0.15223719576E+03 0.  0.
        -11    1    4    4    0    0  0.91577489361E+02 -0.61678786954E+02  0.31897720279E+03  0.33754579721E+03  0.51100000000E-03 0. -1.
     200002    1    4    4    0    0  0.40678856259E+02 -0.13629447162E+03  0.14234510218E+03  0.20345289494E+03  0.30000000000E+02 0. -1.
     200000    1    3    3    0    0  0.14833483375E+03 -0.23040900649E+03  0.14201038939E+04  0.15302897120E+04  0.50000000000E+03 0.  1.
    -200001    1    1    2    0    0 -0.28059117937E+03  0.42838226507E+03  0.10517484138E+04  0.13632378740E+04  0.70000000000E+03 0.  1.
<mgrwt>
<rscale>  0 0.17867449E+04</rscale>
<asrwt>0</asrwt>
<pdfrwt beam="1">  1        2 0.45483578E+00 0.17867449E+04</pdfrwt>
<pdfrwt beam="2">  1       -2 0.35810833E-01 0.17867449E+04</pdfrwt>
<totfact> 0.12918802E+01</totfact>
</mgrwt>
</event>
<event>
 8    1  0.6876290E-010  0.2702438E+04  0.7818608E-02  0.8334214E-01
          2   -1    0    0  501    0  0.00000000000E+00  0.00000000000E+00  0.17076394928E+04  0.17076394928E+04  0.25500000000E-02 0.  1.
         -2   -1    0    0    0  501 -0.00000000000E+00 -0.00000000000E+00 -0.10691911171E+04  0.10691911171E+04  0.25500000000E-02 0. -1.
     200001    2    1    2    0    0  0.64091998773E+03 -0.91953182305E+03  0.60836457326E+03  0.14550052662E+04  0.70043962358E+03 0.  0.
    5000001    2    3    3    0    0  0.32877129375E+02 -0.19578744472E+03  0.13332765194E+03  0.28488470854E+03  0.15482055819E+03 0.  0.
        -11    1    4    4    0    0 -0.38093048692E+02 -0.15749556344E+03  0.10963303963E+03  0.19564083480E+03  0.51100000000E-03 0. -1.
     200002    1    4    4    0    0  0.70970178067E+02 -0.38291881275E+02  0.23694612315E+02  0.89243873735E+02  0.30000000000E+02 0. -1.
     200000    1    3    3    0    0  0.60804285835E+03 -0.72374437833E+03  0.47503692132E+03  0.11701205576E+04  0.50000000000E+03 0.  1.
    -200001    1    1    2    0    0 -0.64091998773E+03  0.91953182305E+03  0.30083802383E+02  0.13218253438E+04  0.70000000000E+03 0. -1.
<mgrwt>
<rscale>  0 0.27024381E+04</rscale>
<asrwt>0</asrwt>
<pdfrwt beam="1">  1        2 0.24394850E+00 0.27024381E+04</pdfrwt>
<pdfrwt beam="2">  1       -2 0.15274159E+00 0.27024381E+04</pdfrwt>
<totfact> 0.28664494E+00</totfact>
</mgrwt>
</event>
<event>
 8    1  0.6876290E-010  0.1636716E+04  0.7818608E-02  0.8798304E-01
         -2   -1    0    0    0  501 -0.00000000000E+00  0.00000000000E+00  0.16362486856E+04  0.16362486856E+04  0.25500000000E-02 0. -1.
          2   -1    0    0  501    0  0.00000000000E+00 -0.00000000000E+00 -0.40929572673E+03  0.40929572674E+03  0.25500000000E-02 0.  1.
     200001    2    1    2    0    0  0.35015418681E+03  0.23583567364E+03  0.57539467259E+03  0.10001953702E+04  0.70077480675E+03 0.  0.
    5000001    2    3    3    0    0  0.17030937036E+02  0.12405886952E+03  0.21888089198E+03  0.29268761103E+03  0.14858175143E+03 0.  0.
        -11    1    4    4    0    0  0.47828348599E+02 -0.12524363765E+02  0.73919387213E+02  0.88929671221E+02  0.51100000000E-03 0. -1.
     200002    1    4    4    0    0 -0.30797411563E+02  0.13658323328E+03  0.14496150477E+03  0.20375793981E+03  0.30000000000E+02 0. -1.
     200000    1    3    3    0    0  0.33312324977E+03  0.11177680412E+03  0.35651378061E+03  0.70750775914E+03  0.50000000000E+03 0.  1.
    -200001    1    1    2    0    0 -0.35015418681E+03 -0.23583567364E+03  0.65155828623E+03  0.10453490421E+04  0.70000000000E+03 0.  1.
<mgrwt>
<rscale>  0 0.16367157E+04</rscale>
<asrwt>0</asrwt>
<pdfrwt beam="1">  1        2 0.58470817E-01 0.16367157E+04</pdfrwt>
<pdfrwt beam="2">  1       -2 0.23374982E+00 0.16367157E+04</pdfrwt>
<totfact> 0.65415074E+00</totfact>
</mgrwt>
</event>
<event>
 8    1  0.6876290E-010  0.2038335E+04  0.7818608E-02  0.8588905E-01
          2   -1    0    0  501    0  0.00000000000E+00  0.00000000000E+00  0.16351292371E+04  0.16351292371E+04  0.25500000000E-02 0.  1.
         -2   -1    0    0    0  501 -0.00000000000E+00 -0.00000000000E+00 -0.63524170278E+03  0.63524170279E+03  0.25500000000E-02 0. -1.
     200001    2    1    2    0    0 -0.28903358227E+03 -0.25710057444E+03 -0.20367759179E+03  0.82530688254E+03  0.70000412279E+03 0.  0.
    5000001    2    3    3    0    0 -0.27119856364E+02 -0.45983912412E+02  0.22499235389E+02  0.18162605950E+03  0.17213890637E+03 0.  0.
        -11    1    4    4    0    0  0.16822534171E+02 -0.22659238201E+02 -0.68261270842E+02  0.73865010858E+02  0.51100000000E-03 0. -1.
     200002    1    4    4    0    0 -0.43942390535E+02 -0.23324674211E+02  0.90760506231E+02  0.10776104864E+03  0.30000000000E+02 0. -1.
     200000    1    3    3    0    0 -0.26191372590E+03 -0.21111666202E+03 -0.22617682718E+03  0.64368082304E+03  0.50000000000E+03 0. -1.
    -200001    1    1    2    0    0  0.28903358227E+03  0.25710057444E+03  0.12035651261E+04  0.14450640573E+04  0.70000000000E+03 0.  1.
<mgrwt>
<rscale>  0 0.20383349E+04</rscale>
<asrwt>0</asrwt>
<pdfrwt beam="1">  1        2 0.23358989E+00 0.20383349E+04</pdfrwt>
<pdfrwt beam="2">  1       -2 0.90748815E-01 0.20383349E+04</pdfrwt>
<totfact> 0.11958890E+01</totfact>
</mgrwt>
</event>
<event>
 8    1  0.6876290E-010  0.1422526E+04  0.7818608E-02  0.8937673E-01
          2   -1    0    0  501    0  0.00000000000E+00  0.00000000000E+00  0.75663828484E+03  0.75663828484E+03  0.25500000000E-02 0.  1.
         -2   -1    0    0    0  501 -0.00000000000E+00 -0.00000000000E+00 -0.66860895109E+03  0.66860895109E+03  0.25500000000E-02 0. -1.
     200001    2    1    2    0    0 -0.11112584994E+03  0.41558979756E+02  0.85917203587E+02  0.71526092310E+03  0.70010022062E+03 0.  0.
    5000001    2    3    3    0    0  0.11477761999E+03  0.38885929632E+02 -0.43827345770E+02  0.15145850113E+03  0.79579040928E+02 0.  0.
        -11    1    4    4    0    0  0.93347921892E+02  0.25932524435E+02 -0.54219802418E+02  0.11102304860E+03  0.51100000000E-03 0. -1.
     200002    1    4    4    0    0  0.21429698095E+02  0.12953405198E+02  0.10392456649E+02  0.40435452536E+02  0.30000000000E+02 0. -1.
     200000    1    3    3    0    0 -0.22590346993E+03  0.26730501242E+01  0.12974454936E+03  0.56380242196E+03  0.50000000000E+03 0. -1.
    -200001    1    1    2    0    0  0.11112584994E+03 -0.41558979756E+02  0.21121301641E+01  0.70998631284E+03  0.70000000000E+03 0. -1.
<mgrwt>
<rscale>  0 0.14225261E+04</rscale>
<asrwt>0</asrwt>
<pdfrwt beam="1">  1        2 0.10809118E+00 0.14225261E+04</pdfrwt>
<pdfrwt beam="2">  1       -2 0.95515564E-01 0.14225261E+04</pdfrwt>
<totfact> 0.36579616E+01</totfact>
</mgrwt>
</event>
<event>
 8    1  0.6876290E-010  0.1760045E+04  0.7818608E-02  0.8727841E-01
         -2   -1    0    0    0  501 -0.00000000000E+00  0.00000000000E+00  0.45725851076E+03  0.45725851076E+03  0.25500000000E-02 0. -1.
          2   -1    0    0  501    0  0.00000000000E+00 -0.00000000000E+00 -0.16936572561E+04  0.16936572561E+04  0.25500000000E-02 0.  1.
     200001    2    1    2    0    0 -0.90969178420E+02 -0.18857926600E+03 -0.18703614160E+02  0.73083866913E+03  0.69995557297E+03 0.  0.
    5000001    2    3    3    0    0 -0.19614003204E+02 -0.47882968670E+02  0.59547422137E+02  0.20073468519E+03  0.18458339726E+03 0.  0.
        -11    1    4    4    0    0  0.51029784930E+02  0.11483626275E+02  0.85556436326E+02  0.10027869375E+03  0.51100000000E-03 0. -1.
     200002    1    4    4    0    0 -0.70643788134E+02 -0.59366594945E+02 -0.26009014188E+02  0.10045599144E+03  0.30000000000E+02 0. -1.
     200000    1    3    3    0    0 -0.71355175217E+02 -0.14069629733E+03 -0.78251036297E+02  0.53010398395E+03  0.50000000000E+03 0. -1.
    -200001    1    1    2    0    0  0.90969178420E+02  0.18857926600E+03 -0.12176951312E+04  0.14200770977E+04  0.70000000000E+03 0.  1.
<mgrwt>
<rscale>  0 0.17600445E+04</rscale>
<asrwt>0</asrwt>
<pdfrwt beam="1">  1        2 0.24195103E+00 0.17600445E+04</pdfrwt>
<pdfrwt beam="2">  1       -2 0.65322645E-01 0.17600445E+04</pdfrwt>
<totfact> 0.23707782E+01</totfact>
</mgrwt>
</event>
<event>
 8    1  0.6876290E-010  0.1704224E+04  0.7818608E-02  0.8758959E-01
         -2   -1    0    0    0  501 -0.00000000000E+00  0.00000000000E+00  0.26659370660E+03  0.26659370661E+03  0.25500000000E-02 0. -1.
          2   -1    0    0  501    0  0.00000000000E+00 -0.00000000000E+00 -0.27235998316E+04  0.27235998316E+04  0.25500000000E-02 0.  1.
     200001    2    1    2    0    0  0.43567097988E+03  0.21355543792E+03 -0.12631307223E+04  0.15236487537E+04  0.70042214078E+03 0.  0.
    5000001    2    3    3    0    0  0.74346137863E+02  0.17138114661E+03 -0.45735210422E+03  0.50796499699E+03  0.11814671096E+03 0.  0.
        -11    1    4    4    0    0  0.57884136041E+02  0.17538678446E+03 -0.40709829561E+03  0.44703480810E+03  0.51100000000E-03 0. -1.
     200002    1    4    4    0    0  0.16462001822E+02 -0.40056378482E+01 -0.50253808612E+02  0.60930188893E+02  0.30000000000E+02 0.  1.
     200000    1    3    3    0    0  0.36132484202E+03  0.42174291308E+02 -0.80577861811E+03  0.10156837567E+04  0.50000000000E+03 0.  1.
    -200001    1    1    2    0    0 -0.43567097988E+03 -0.21355543792E+03 -0.11938754027E+04  0.14665447845E+04  0.70000000000E+03 0. -1.
<mgrwt>
<rscale>  0 0.17042237E+04</rscale>
<asrwt>0</asrwt>
<pdfrwt beam="1">  1        2 0.38908567E+00 0.17042237E+04</pdfrwt>
<pdfrwt beam="2">  1       -2 0.38084817E-01 0.17042237E+04</pdfrwt>
<totfact> 0.20809053E+01</totfact>
</mgrwt>
</event>
<event>
 8    1  0.6876290E-010  0.2170323E+04  0.7818608E-02  0.8530883E-01
         -2   -1    0    0    0  501 -0.00000000000E+00  0.00000000000E+00  0.50992245656E+03  0.50992245657E+03  0.25500000000E-02 0. -1.
          2   -1    0    0  501    0  0.00000000000E+00 -0.00000000000E+00 -0.23093217435E+04  0.23093217435E+04  0.25500000000E-02 0.  1.
     200001    2    1    2    0    0 -0.22918083083E+02 -0.38693464394E+03 -0.18518445556E+04  0.20173750315E+04  0.70016433958E+03 0.  0.
    5000001    2    3    3    0    0  0.12025564129E+03 -0.31174902946E+02 -0.44381258487E+03  0.47477406584E+03  0.11405046809E+03 0.  0.
        -11    1    4    4    0    0  0.98975426608E+02 -0.58533994839E+02 -0.37382237282E+03  0.39110807975E+03  0.51100000000E-03 0. -1.
     200002    1    4    4    0    0  0.21280214680E+02  0.27359091893E+02 -0.69990212044E+02  0.83665986088E+02  0.30000000000E+02 0. -1.
     200000    1    3    3    0    0 -0.14317372437E+03 -0.35575974100E+03 -0.14080319708E+04  0.15426009657E+04  0.50000000000E+03 0.  1.
    -200001    1    1    2    0    0  0.22918083083E+02  0.38693464394E+03  0.52445268704E+02  0.80186916852E+03  0.70000000000E+03 0. -1.
<mgrwt>
<rscale>  0 0.21703226E+04</rscale>
<asrwt>0</asrwt>
<pdfrwt beam="1">  1        2 0.32990310E+00 0.21703226E+04</pdfrwt>
<pdfrwt beam="2">  1       -2 0.72846066E-01 0.21703226E+04</pdfrwt>
<totfact> 0.86970059E+00</totfact>
</mgrwt>
</event>
<event>
 8    1  0.6876290E-010  0.1815931E+04  0.7818608E-02  0.8697873E-01
         -2   -1    0    0    0  501 -0.00000000000E+00  0.00000000000E+00  0.46996381724E+03  0.46996381725E+03  0.25500000000E-02 0. -1.
          2   -1    0    0  501    0  0.00000000000E+00 -0.00000000000E+00 -0.17541804479E+04  0.17541804479E+04  0.25500000000E-02 0.  1.
     200001    2    1    2    0    0  0.69503828398E+02  0.55694060704E+03 -0.81363461041E+03  0.12110001196E+04  0.69964733148E+03 0.  0.
    5000001    2    3    3    0    0  0.54420663034E+02  0.21006556421E+02 -0.22977691530E+03  0.27380077226E+03  0.13699105120E+03 0.  0.
        -11    1    4    4    0    0 -0.38180142961E+02 -0.11728128562E+02 -0.32889336497E+02  0.51739547462E+02  0.51100000000E-03 0. -1.
     200002    1    4    4    0    0  0.92600805996E+02  0.32734684983E+02 -0.19688757881E+03  0.22206122480E+03  0.30000000000E+02 0. -1.
     200000    1    3    3    0    0  0.15083165363E+02  0.53593405062E+03 -0.58385769511E+03  0.93719934733E+03  0.50000000000E+03 0.  1.
    -200001    1    1    2    0    0 -0.69503828398E+02 -0.55694060704E+03 -0.47058202027E+03  0.10131441456E+04  0.70000000000E+03 0. -1.
<mgrwt>
<rscale>  0 0.18159310E+04</rscale>
<asrwt>0</asrwt>
<pdfrwt beam="1">  1        2 0.25059720E+00 0.18159310E+04</pdfrwt>
<pdfrwt beam="2">  1       -2 0.67137689E-01 0.18159310E+04</pdfrwt>
<totfact> 0.20694397E+01</totfact>
</mgrwt>
</event>
<event>
 8    1  0.6876290E-010  0.1541828E+04  0.7818608E-02  0.8857104E-01
         -2   -1    0    0    0  501 -0.00000000000E+00  0.00000000000E+00  0.70738227303E+03  0.70738227303E+03  0.25500000000E-02 0. -1.
          2   -1    0    0  501    0  0.00000000000E+00 -0.00000000000E+00 -0.84015200840E+03  0.84015200841E+03  0.25500000000E-02 0.  1.
     200001    2    1    2    0    0 -0.17976099826E+03  0.55228582211E+01  0.20313669516E+03  0.75055395011E+03  0.69980154090E+03 0.  0.
    5000001    2    3    3    0    0 -0.64210390627E+02 -0.11582155805E+02 -0.34433950747E+01  0.19709224583E+03  0.18594723928E+03 0.  0.
        -11    1    4    4    0    0 -0.25518267060E+02 -0.95260251165E+02  0.10375998958E+02  0.99163293412E+02  0.51100000000E-03 0. -1.
     200002    1    4    4    0    0 -0.38692123567E+02  0.83678095360E+02 -0.13819394033E+02  0.97928952413E+02  0.30000000000E+02 0. -1.
     200000    1    3    3    0    0 -0.11555060764E+03  0.17105014026E+02  0.20658009023E+03  0.55346170428E+03  0.50000000000E+03 0. -1.
    -200001    1    1    2    0    0  0.17976099826E+03 -0.55228582211E+01 -0.33590643053E+03  0.79698033133E+03  0.70000000000E+03 0.  1.
<mgrwt>
<rscale>  0 0.15418283E+04</rscale>
<asrwt>0</asrwt>
<pdfrwt beam="1">  1        2 0.12002172E+00 0.15418283E+04</pdfrwt>
<pdfrwt beam="2">  1       -2 0.10105461E+00 0.15418283E+04</pdfrwt>
<totfact> 0.27731112E+01</totfact>
</mgrwt>
</event>
<event>
 8    1  0.6876290E-010  0.1788120E+04  0.7818608E-02  0.8712643E-01
         -2   -1    0    0    0  501 -0.00000000000E+00  0.00000000000E+00  0.13552783759E+04  0.13552783759E+04  0.25500000000E-02 0.  1.
          2   -1    0    0  501    0  0.00000000000E+00 -0.00000000000E+00 -0.58980030209E+03  0.58980030210E+03  0.25500000000E-02 0. -1.
     200001    2    1    2    0    0 -0.23682892731E+02  0.19250790897E+03  0.94882134744E+03  0.11959225324E+04  0.70167555161E+03 0.  0.
    5000001    2    3    3    0    0  0.46804869010E+02  0.64456131233E+02  0.18184482403E+03  0.26876625119E+03  0.18116972466E+03 0.  0.
        -11    1    4    4    0    0 -0.63792018383E+02 -0.48235023257E+01  0.60850838800E+02  0.88292198789E+02  0.51100000000E-03 0. -1.
     200002    1    4    4    0    0  0.11059688739E+03  0.69279633559E+02  0.12099398523E+03  0.18047405240E+03  0.30000000000E+02 0. -1.
     200000    1    3    3    0    0 -0.70487761740E+02  0.12805177774E+03  0.76697652341E+03  0.92715628122E+03  0.50000000000E+03 0.  1.
    -200001    1    1    2    0    0  0.23682892731E+02 -0.19250790897E+03 -0.18334327368E+03  0.74915614556E+03  0.70000000000E+03 0. -1.
<mgrwt>
<rscale>  0 0.17881203E+04</rscale>
<asrwt>0</asrwt>
<pdfrwt beam="1">  1        2 0.84257186E-01 0.17881203E+04</pdfrwt>
<pdfrwt beam="2">  1       -2 0.19361120E+00 0.17881203E+04</pdfrwt>
<totfact> 0.76878950E+00</totfact>
</mgrwt>
</event>
<event>
 8    1  0.6876290E-010  0.1626864E+04  0.7818608E-02  0.8804213E-01
          2   -1    0    0  501    0  0.00000000000E+00  0.00000000000E+00  0.14693244833E+04  0.14693244833E+04  0.25500000000E-02 0.  1.
         -2   -1    0    0    0  501 -0.00000000000E+00 -0.00000000000E+00 -0.45032348510E+03  0.45032348510E+03  0.25500000000E-02 0. -1.
     200001    2    1    2    0    0  0.29980165789E+03  0.26241366211E+03  0.37474707631E+03  0.88823869949E+03  0.69985044969E+03 0.  0.
    5000001    2    3    3    0    0  0.21693850633E+02  0.15452665869E+03  0.19039963129E+03  0.27752801639E+03  0.12814315777E+03 0.  0.
        -11    1    4    4    0    0 -0.35692670242E+02  0.23829460311E+01  0.43763205281E+02  0.56523121619E+02  0.51100000000E-03 0. -1.
     200002    1    4    4    0    0  0.57386520874E+02  0.15214371266E+03  0.14663642601E+03  0.22100489477E+03  0.30000000000E+02 0. -1.
     200000    1    3    3    0    0  0.27810780725E+03  0.10788700341E+03  0.18434744501E+03  0.61071068309E+03  0.50000000000E+03 0.  1.
    -200001    1    1    2    0    0 -0.29980165789E+03 -0.26241366211E+03  0.64425392188E+03  0.10314092689E+04  0.70000000000E+03 0.  1.
<mgrwt>
<rscale>  0 0.16268636E+04</rscale>
<asrwt>0</asrwt>
<pdfrwt beam="1">  1        2 0.20990350E+00 0.16268636E+04</pdfrwt>
<pdfrwt beam="2">  1       -2 0.64331926E-01 0.16268636E+04</pdfrwt>
<totfact> 0.32498015E+01</totfact>
</mgrwt>
</event>
<event>
 8    1  0.6876290E-010  0.1781259E+04  0.7818608E-02  0.8716330E-01
         -2   -1    0    0    0  501 -0.00000000000E+00  0.00000000000E+00  0.17561424594E+04  0.17561424594E+04  0.25500000000E-02 0. -1.
          2   -1    0    0  501    0  0.00000000000E+00 -0.00000000000E+00 -0.45168354035E+03  0.45168354036E+03  0.25500000000E-02 0.  1.
     200001    2    1    2    0    0 -0.83463659330E+02 -0.42550872577E+03  0.23425276474E+03  0.85750564117E+03  0.70172480982E+03 0.  0.
    5000001    2    3    3    0    0  0.67870224344E+02 -0.64157486302E+02 -0.57057291109E+02  0.15869364123E+03  0.11491556421E+03 0.  0.
        -11    1    4    4    0    0  0.30474370835E+02  0.16486397343E+02 -0.54816435835E+02  0.64848517432E+02  0.51100000000E-03 0. -1.
     200002    1    4    4    0    0  0.37395853509E+02 -0.80643883645E+02 -0.22408552743E+01  0.93845123802E+02  0.30000000000E+02 0. -1.
     200000    1    3    3    0    0 -0.15133388367E+03 -0.36135123947E+03  0.29131005585E+03  0.69881199993E+03  0.50000000000E+03 0.  1.
    -200001    1    1    2    0    0  0.83463659330E+02  0.42550872577E+03  0.10702061543E+04  0.13503203586E+04  0.70000000000E+03 0.  1.
<mgrwt>
<rscale>  0 0.17812587E+04</rscale>
<asrwt>0</asrwt>
<pdfrwt beam="1">  1        2 0.64526220E-01 0.17812587E+04</pdfrwt>
<pdfrwt beam="2">  1       -2 0.25087749E+00 0.17812587E+04</pdfrwt>
<totfact> 0.45371448E+00</totfact>
</mgrwt>
</event>
<event>
 8    1  0.6876290E-010  0.2119518E+04  0.7818608E-02  0.8552694E-01
          2   -1    0    0  501    0  0.00000000000E+00  0.00000000000E+00  0.21363220546E+04  0.21363220546E+04  0.25500000000E-02 0.  1.
         -2   -1    0    0    0  501 -0.00000000000E+00 -0.00000000000E+00 -0.52571155602E+03  0.52571155602E+03  0.25500000000E-02 0. -1.
     200001    2    1    2    0    0  0.50658127545E+03  0.57010755012E+03  0.52345265887E+03  0.11608476209E+04  0.70136816686E+03 0.  0.
    5000001    2    3    3    0    0  0.15600690711E+03  0.28456148223E+03  0.19217385888E+03  0.40972540183E+03  0.16009597319E+03 0.  0.
        -11    1    4    4    0    0 -0.76538735663E+01  0.11816411714E+03  0.24862733711E+02  0.12099378450E+03  0.51100000000E-03 0. -1.
     200002    1    4    4    0    0  0.16366078068E+03  0.16639736510E+03  0.16731112517E+03  0.28873161733E+03  0.30000000000E+02 0. -1.
     200000    1    3    3    0    0  0.35057436834E+03  0.28554606789E+03  0.33127879999E+03  0.75112221905E+03  0.50000000000E+03 0. -1.
    -200001    1    1    2    0    0 -0.50658127545E+03 -0.57010755012E+03  0.10871578397E+04  0.15011859897E+04  0.70000000000E+03 0.  1.
<mgrwt>
<rscale>  0 0.21195181E+04</rscale>
<asrwt>0</asrwt>
<pdfrwt beam="1">  1        2 0.30518887E+00 0.21195181E+04</pdfrwt>
<pdfrwt beam="2">  1       -2 0.75101650E-01 0.21195181E+04</pdfrwt>
<totfact> 0.10035773E+01</totfact>
</mgrwt>
</event>
<event>
 8    1  0.6876290E-010  0.1530657E+04  0.7818608E-02  0.8864319E-01
          2   -1    0    0  501    0  0.00000000000E+00  0.00000000000E+00  0.33386714149E+04  0.33386714149E+04  0.25500000000E-02 0.  1.
         -2   -1    0    0    0  501 -0.00000000000E+00 -0.00000000000E+00 -0.17543727214E+03  0.17543727216E+03  0.25500000000E-02 0. -1.
     200001    2    1    2    0    0  0.13163782208E+03  0.26955743905E+03  0.14117401879E+04  0.16042079559E+04  0.70034497097E+03 0.  0.
    5000001    2    3    3    0    0  0.13986619997E+03  0.78297166419E+02  0.25208900853E+03  0.32692996893E+03  0.13282069190E+03 0.  0.
        -11    1    4    4    0    0 -0.73411774039E+01  0.43905267564E+02  0.10429700718E+03  0.11339943171E+03  0.51100000000E-03 0. -1.
     200002    1    4    4    0    0  0.14720737738E+03  0.34391898855E+02  0.14779200135E+03  0.21353053722E+03  0.30000000000E+02 0. -1.
     200000    1    3    3    0    0 -0.82283778926E+01  0.19126027263E+03  0.11596511794E+04  0.12772779870E+04  0.50000000000E+03 0.  1.
    -200001    1    1    2    0    0 -0.13163782208E+03 -0.26955743905E+03  0.17514939548E+04  0.19099007312E+04  0.70000000000E+03 0. -1.
<mgrwt>
<rscale>  0 0.15306566E+04</rscale>
<asrwt>0</asrwt>
<pdfrwt beam="1">  1        2 0.47695300E+00 0.15306566E+04</pdfrwt>
<pdfrwt beam="2">  1       -2 0.25062470E-01 0.15306566E+04</pdfrwt>
<totfact> 0.20903630E+01</totfact>
</mgrwt>
</event>
