<event>
 4    1  0.5917727E-005  0.1171943E+04  0.7818608E-02  0.9137776E-01
          2   -1    0    0  501    0  0.00000000000E+00  0.00000000000E+00  0.15741847534E+03  0.15741847536E+03  0.25500000000E-02 0. -1.
         -2   -1    0    0    0  501 -0.00000000000E+00 -0.00000000000E+00 -0.21812078758E+04  0.21812078758E+04  0.25500000000E-02 0.  1.
    5000001    1    1    2    0    0 -0.38680889547E+03  0.39134896002E+03 -0.86739853385E+03  0.10442697672E+04  0.18800000000E+03 0.  0.
   -5000001    1    1    2    0    0  0.38680889547E+03 -0.39134896002E+03 -0.11563908666E+04  0.12943565840E+04  0.18800000000E+03 0.  0.
<mgrwt>
<rscale>  0 0.11719427E+04</rscale>
<asrwt>0</asrwt>
<pdfrwt beam="1">  1        2 0.22488355E-01 0.11719427E+04</pdfrwt>
<pdfrwt beam="2">  1       -2 0.31160111E+00 0.11719427E+04</pdfrwt>
<totfact> 0.66939524E+00</totfact>
</mgrwt>
</event>
<event>
 4    1  0.5917727E-005  0.5340721E+03  0.7818608E-02  0.1005249E+00
          2   -1    0    0  501    0  0.00000000000E+00  0.00000000000E+00  0.19862043415E+04  0.19862043415E+04  0.25500000000E-02 0.  1.
         -2   -1    0    0    0  501 -0.00000000000E+00 -0.00000000000E+00 -0.35901776637E+02  0.35901776728E+02  0.25500000000E-02 0. -1.
    5000001    1    1    2    0    0  0.25364149142E+02 -0.18541960434E+03  0.85903790576E+03  0.89906278605E+03  0.18800000000E+03 0.  0.
   -5000001    1    1    2    0    0 -0.25364149142E+02  0.18541960434E+03  0.10912646591E+04  0.11230433322E+04  0.18800000000E+03 0.  0.
<mgrwt>
<rscale>  0 0.53407215E+03</rscale>
<asrwt>0</asrwt>
<pdfrwt beam="1">  1        2 0.28374354E+00 0.53407215E+03</pdfrwt>
<pdfrwt beam="2">  1       -2 0.51288242E-02 0.53407215E+03</pdfrwt>
<totfact> 0.16652879E+03</totfact>
</mgrwt>
</event>
<event>
 4    1  0.5917727E-005  0.5857126E+03  0.7818608E-02  0.9935499E-01
         -2   -1    0    0    0  501 -0.00000000000E+00  0.00000000000E+00  0.65150811082E+02  0.65150811132E+02  0.25500000000E-02 0. -1.
          2   -1    0    0  501    0  0.00000000000E+00 -0.00000000000E+00 -0.13164041875E+04  0.13164041876E+04  0.25500000000E-02 0.  1.
    5000001    1    1    2    0    0  0.20662699212E+03 -0.62629938356E+02 -0.48015456505E+03  0.55902560710E+03  0.18800000000E+03 0.  0.
   -5000001    1    1    2    0    0 -0.20662699212E+03  0.62629938356E+02 -0.77109881142E+03  0.82252939159E+03  0.18800000000E+03 0.  0.
<mgrwt>
<rscale>  0 0.58571256E+03</rscale>
<asrwt>0</asrwt>
<pdfrwt beam="1">  1        2 0.18805772E+00 0.58571256E+03</pdfrwt>
<pdfrwt beam="2">  1       -2 0.93072596E-02 0.58571256E+03</pdfrwt>
<totfact> 0.14326346E+03</totfact>
</mgrwt>
</event>
<event>
 4    1  0.5917727E-005  0.5049607E+03  0.7818608E-02  0.1012492E+00
          2   -1    0    0  501    0  0.00000000000E+00  0.00000000000E+00  0.23711104396E+04  0.23711104396E+04  0.25500000000E-02 0.  1.
         -2   -1    0    0    0  501 -0.00000000000E+00 -0.00000000000E+00 -0.26884591943E+02  0.26884592064E+02  0.25500000000E-02 0. -1.
    5000001    1    1    2    0    0  0.64761657725E+02 -0.70696620131E+02  0.51391394836E+03  0.55555704543E+03  0.18800000000E+03 0.  0.
   -5000001    1    1    2    0    0 -0.64761657725E+02  0.70696620131E+02  0.18303118993E+04  0.18424379862E+04  0.18800000000E+03 0.  0.
<mgrwt>
<rscale>  0 0.50496074E+03</rscale>
<asrwt>0</asrwt>
<pdfrwt beam="1">  1        2 0.33872986E+00 0.50496074E+03</pdfrwt>
<pdfrwt beam="2">  1       -2 0.38406583E-02 0.50496074E+03</pdfrwt>
<totfact> 0.16684625E+03</totfact>
</mgrwt>
</event>
<event>
 4    1  0.5917727E-005  0.4791831E+03  0.7818608E-02  0.1019360E+00
         -2   -1    0    0    0  501 -0.00000000000E+00  0.00000000000E+00  0.22392360630E+03  0.22392360632E+03  0.25500000000E-02 0. -1.
          2   -1    0    0  501    0  0.00000000000E+00 -0.00000000000E+00 -0.25635573405E+03  0.25635573406E+03  0.25500000000E-02 0.  1.
    5000001    1    1    2    0    0  0.22948327782E+02 -0.14395319560E+03 -0.44758437039E+02  0.24206706913E+03  0.18800000000E+03 0.  0.
   -5000001    1    1    2    0    0 -0.22948327782E+02  0.14395319560E+03  0.12326309294E+02  0.23821227125E+03  0.18800000000E+03 0.  0.
<mgrwt>
<rscale>  0 0.47918306E+03</rscale>
<asrwt>0</asrwt>
<pdfrwt beam="1">  1        2 0.36622248E-01 0.47918306E+03</pdfrwt>
<pdfrwt beam="2">  1       -2 0.31989087E-01 0.47918306E+03</pdfrwt>
<totfact> 0.12891522E+03</totfact>
</mgrwt>
</event>
<event>
 4    1  0.5917727E-005  0.4248730E+03  0.7818608E-02  0.1035492E+00
          2   -1    0    0  501    0  0.00000000000E+00  0.00000000000E+00  0.15199241694E+04  0.15199241694E+04  0.25500000000E-02 0.  1.
         -2   -1    0    0    0  501 -0.00000000000E+00 -0.00000000000E+00 -0.29691786687E+02  0.29691786796E+02  0.25500000000E-02 0. -1.
    5000001    1    1    2    0    0  0.17918440971E+02 -0.87837860616E+02  0.59259748562E+03  0.62813401456E+03  0.18800000000E+03 0.  0.
   -5000001    1    1    2    0    0 -0.17918440971E+02  0.87837860616E+02  0.89763489708E+03  0.92148194162E+03  0.18800000000E+03 0.  0.
<mgrwt>
<rscale>  0 0.42487299E+03</rscale>
<asrwt>0</asrwt>
<pdfrwt beam="1">  1        2 0.21713209E+00 0.42487299E+03</pdfrwt>
<pdfrwt beam="2">  1       -2 0.42416826E-02 0.42487299E+03</pdfrwt>
<totfact> 0.38409598E+03</totfact>
</mgrwt>
</event>
<event>
 4    1  0.5917727E-005  0.5281736E+03  0.7818608E-02  0.1006676E+00
          2   -1    0    0  501    0  0.00000000000E+00  0.00000000000E+00  0.99915929761E+03  0.99915929761E+03  0.25500000000E-02 0.  1.
         -2   -1    0    0    0  501 -0.00000000000E+00 -0.00000000000E+00 -0.69800513318E+02  0.69800513364E+02  0.25500000000E-02 0. -1.
    5000001    1    1    2    0    0 -0.13941341176E+03 -0.84370365954E+02  0.28543888472E+03  0.37864734904E+03  0.18800000000E+03 0.  0.
   -5000001    1    1    2    0    0  0.13941341176E+03  0.84370365954E+02  0.64391989958E+03  0.69031246193E+03  0.18800000000E+03 0.  0.
<mgrwt>
<rscale>  0 0.52817358E+03</rscale>
<asrwt>0</asrwt>
<pdfrwt beam="1">  1        2 0.14273704E+00 0.52817358E+03</pdfrwt>
<pdfrwt beam="2">  1       -2 0.99715020E-02 0.52817358E+03</pdfrwt>
<totfact> 0.19451133E+03</totfact>
</mgrwt>
</event>
<event>
 4    1  0.5917727E-005  0.6128881E+03  0.7818608E-02  0.9879022E-01
         -2   -1    0    0    0  501 -0.00000000000E+00  0.00000000000E+00  0.20719595551E+03  0.20719595553E+03  0.25500000000E-02 0. -1.
          2   -1    0    0  501    0  0.00000000000E+00 -0.00000000000E+00 -0.45323253822E+03  0.45323253823E+03  0.25500000000E-02 0.  1.
    5000001    1    1    2    0    0 -0.15139576533E+02  0.20178349441E+03  0.20010986729E+02  0.27693000015E+03  0.18800000000E+03 0.  0.
   -5000001    1    1    2    0    0  0.15139576533E+02 -0.20178349441E+03 -0.26604756944E+03  0.38349849361E+03  0.18800000000E+03 0.  0.
<mgrwt>
<rscale>  0 0.61288808E+03</rscale>
<asrwt>0</asrwt>
<pdfrwt beam="1">  1        2 0.64747505E-01 0.61288808E+03</pdfrwt>
<pdfrwt beam="2">  1       -2 0.29599422E-01 0.61288808E+03</pdfrwt>
<totfact> 0.79247194E+02</totfact>
</mgrwt>
</event>
<event>
 4    1  0.5917727E-005  0.6437043E+03  0.7818608E-02  0.9818665E-01
          2   -1    0    0  501    0  0.00000000000E+00  0.00000000000E+00  0.86496988929E+03  0.86496988929E+03  0.25500000000E-02 0.  1.
         -2   -1    0    0    0  501 -0.00000000000E+00 -0.00000000000E+00 -0.11976001301E+03  0.11976001304E+03  0.25500000000E-02 0. -1.
    5000001    1    1    2    0    0  0.22940530980E+03  0.38050243148E+02  0.19050134084E+03  0.35455518334E+03  0.18800000000E+03 0.  0.
   -5000001    1    1    2    0    0 -0.22940530980E+03 -0.38050243148E+02  0.55470853543E+03  0.63017471899E+03  0.18800000000E+03 0.  0.
<mgrwt>
<rscale>  0 0.64370430E+03</rscale>
<asrwt>0</asrwt>
<pdfrwt beam="1">  1        2 0.12356712E+00 0.64370430E+03</pdfrwt>
<pdfrwt beam="2">  1       -2 0.17108574E-01 0.64370430E+03</pdfrwt>
<totfact> 0.96343500E+02</totfact>
</mgrwt>
</event>
<event>
 4    1  0.5917727E-005  0.5470606E+03  0.7818608E-02  0.1002177E+00
         -2   -1    0    0    0  501 -0.00000000000E+00  0.00000000000E+00  0.25426991717E+02  0.25426991845E+02  0.25500000000E-02 0. -1.
          2   -1    0    0  501    0  0.00000000000E+00 -0.00000000000E+00 -0.29424957657E+04  0.29424957657E+04  0.25500000000E-02 0.  1.
    5000001    1    1    2    0    0 -0.16363835729E+03 -0.87261024215E+02 -0.18453192190E+04  0.18641188316E+04  0.18800000000E+03 0.  0.
   -5000001    1    1    2    0    0  0.16363835729E+03  0.87261024215E+02 -0.10717495550E+04  0.11038039259E+04  0.18800000000E+03 0.  0.
<mgrwt>
<rscale>  0 0.54706057E+03</rscale>
<asrwt>0</asrwt>
<pdfrwt beam="1">  1        2 0.42035632E+00 0.54706057E+03</pdfrwt>
<pdfrwt beam="2">  1       -2 0.36324293E-02 0.54706057E+03</pdfrwt>
<totfact> 0.91410595E+02</totfact>
</mgrwt>
</event>
<event>
 4    1  0.5917727E-005  0.1453858E+04  0.7818608E-02  0.8915730E-01
          2   -1    0    0  501    0  0.00000000000E+00  0.00000000000E+00  0.39567211401E+04  0.39567211401E+04  0.25500000000E-02 0.  1.
         -2   -1    0    0    0  501 -0.00000000000E+00 -0.00000000000E+00 -0.13355147791E+03  0.13355147794E+03  0.25500000000E-02 0. -1.
    5000001    1    1    2    0    0  0.28583270746E+03  0.35529837067E+03  0.40926351161E+03  0.64091956655E+03  0.18800000000E+03 0.  0.
   -5000001    1    1    2    0    0 -0.28583270746E+03 -0.35529837067E+03  0.34139061506E+04  0.34493530515E+04  0.18800000000E+03 0.  0.
<mgrwt>
<rscale>  0 0.14538583E+04</rscale>
<asrwt>0</asrwt>
<pdfrwt beam="1">  1        2 0.56524583E+00 0.14538583E+04</pdfrwt>
<pdfrwt beam="2">  1       -2 0.19078784E-01 0.14538583E+04</pdfrwt>
<totfact> 0.14008898E+01</totfact>
</mgrwt>
</event>
<event>
 4    1  0.5917727E-005  0.4678923E+03  0.7818608E-02  0.1022517E+00
          2   -1    0    0  501    0  0.00000000000E+00  0.00000000000E+00  0.78658655072E+03  0.78658655073E+03  0.25500000000E-02 0.  1.
         -2   -1    0    0    0  501 -0.00000000000E+00 -0.00000000000E+00 -0.69580136371E+02  0.69580136418E+02  0.25500000000E-02 0. -1.
    5000001    1    1    2    0    0  0.40441770931E+02  0.94702464277E+02  0.18701802296E+03  0.28447114878E+03  0.18800000000E+03 0.  0.
   -5000001    1    1    2    0    0 -0.40441770931E+02 -0.94702464277E+02  0.52998839139E+03  0.57169553837E+03  0.18800000000E+03 0.  0.
<mgrwt>
<rscale>  0 0.46789229E+03</rscale>
<asrwt>0</asrwt>
<pdfrwt beam="1">  1        2 0.11236950E+00 0.46789229E+03</pdfrwt>
<pdfrwt beam="2">  1       -2 0.99400198E-02 0.46789229E+03</pdfrwt>
<totfact> 0.26822497E+03</totfact>
</mgrwt>
</event>
<event>
 4    1  0.5917727E-005  0.4538526E+03  0.7818608E-02  0.1026579E+00
         -2   -1    0    0    0  501 -0.00000000000E+00  0.00000000000E+00  0.95206138728E+02  0.95206138762E+02  0.25500000000E-02 0. -1.
          2   -1    0    0  501    0  0.00000000000E+00 -0.00000000000E+00 -0.54088462316E+03  0.54088462316E+03  0.25500000000E-02 0.  1.
    5000001    1    1    2    0    0 -0.11844920249E+03 -0.44610191454E+02 -0.20678240053E+03  0.30679511717E+03  0.18800000000E+03 0.  0.
   -5000001    1    1    2    0    0  0.11844920249E+03  0.44610191454E+02 -0.23889608390E+03  0.32929564476E+03  0.18800000000E+03 0.  0.
<mgrwt>
<rscale>  0 0.45385256E+03</rscale>
<asrwt>0</asrwt>
<pdfrwt beam="1">  1        2 0.77269230E-01 0.45385256E+03</pdfrwt>
<pdfrwt beam="2">  1       -2 0.13600877E-01 0.45385256E+03</pdfrwt>
<totfact> 0.25124700E+03</totfact>
</mgrwt>
</event>
<event>
 4    1  0.5917727E-005  0.6059430E+03  0.7818608E-02  0.9893152E-01
          2   -1    0    0  501    0  0.00000000000E+00  0.00000000000E+00  0.15578466897E+04  0.15578466897E+04  0.25500000000E-02 0.  1.
         -2   -1    0    0    0  501 -0.00000000000E+00 -0.00000000000E+00 -0.58922188434E+02  0.58922188489E+02  0.25500000000E-02 0. -1.
    5000001    1    1    2    0    0  0.17283705957E+03  0.13726755272E+03  0.51483313507E+03  0.59085716308E+03  0.18800000000E+03 0.  0.
   -5000001    1    1    2    0    0 -0.17283705957E+03 -0.13726755272E+03  0.98409136618E+03  0.10259117151E+04  0.18800000000E+03 0.  0.
<mgrwt>
<rscale>  0 0.60594302E+03</rscale>
<asrwt>0</asrwt>
<pdfrwt beam="1">  1        2 0.22254952E+00 0.60594302E+03</pdfrwt>
<pdfrwt beam="2">  1       -2 0.84174558E-02 0.60594302E+03</pdfrwt>
<totfact> 0.12545860E+03</totfact>
</mgrwt>
</event>
<event>
 4    1  0.5917727E-005  0.6744924E+03  0.7818608E-02  0.9761876E-01
         -2   -1    0    0    0  501 -0.00000000000E+00  0.00000000000E+00  0.10757650375E+03  0.10757650378E+03  0.25500000000E-02 0. -1.
          2   -1    0    0  501    0  0.00000000000E+00 -0.00000000000E+00 -0.10572477393E+04  0.10572477393E+04  0.25500000000E-02 0.  1.
    5000001    1    1    2    0    0 -0.17516535278E+03 -0.11370900708E+03 -0.79689648714E+03  0.84498559178E+03  0.18800000000E+03 0.  0.
   -5000001    1    1    2    0    0  0.17516535278E+03  0.11370900708E+03 -0.15277474840E+03  0.31983865128E+03  0.18800000000E+03 0.  0.
<mgrwt>
<rscale>  0 0.67449245E+03</rscale>
<asrwt>0</asrwt>
<pdfrwt beam="1">  1        2 0.15103539E+00 0.67449245E+03</pdfrwt>
<pdfrwt beam="2">  1       -2 0.15368073E-01 0.67449245E+03</pdfrwt>
<totfact> 0.87574693E+02</totfact>
</mgrwt>
</event>
<event>
 4    1  0.5917727E-005  0.5636126E+03  0.7818608E-02  0.9983913E-01
         -2   -1    0    0    0  501 -0.00000000000E+00  0.00000000000E+00  0.54045838615E+02  0.54045838675E+02  0.25500000000E-02 0. -1.
          2   -1    0    0  501    0  0.00000000000E+00 -0.00000000000E+00 -0.14693970834E+04  0.14693970834E+04  0.25500000000E-02 0.  1.
    5000001    1    1    2    0    0 -0.18812961794E+03 -0.38692979564E+02 -0.93672802394E+03  0.97452208320E+03  0.18800000000E+03 0.  0.
   -5000001    1    1    2    0    0  0.18812961794E+03  0.38692979564E+02 -0.47862322080E+03  0.54892083883E+03  0.18800000000E+03 0.  0.
<mgrwt>
<rscale>  0 0.56361262E+03</rscale>
<asrwt>0</asrwt>
<pdfrwt beam="1">  1        2 0.20991384E+00 0.56361262E+03</pdfrwt>
<pdfrwt beam="2">  1       -2 0.77208350E-02 0.56361262E+03</pdfrwt>
<totfact> 0.16028704E+03</totfact>
</mgrwt>
</event>
<event>
 4    1  0.5917727E-005  0.7890400E+03  0.7818608E-02  0.9576018E-01
          2   -1    0    0  501    0  0.00000000000E+00  0.00000000000E+00  0.42001681291E+03  0.42001681292E+03  0.25500000000E-02 0.  1.
         -2   -1    0    0    0  501 -0.00000000000E+00 -0.00000000000E+00 -0.37057098692E+03  0.37057098693E+03  0.25500000000E-02 0. -1.
    5000001    1    1    2    0    0  0.14226719448E+03  0.26129158643E+03 -0.15392095568E+03  0.38412095538E+03  0.18800000000E+03 0.  0.
   -5000001    1    1    2    0    0 -0.14226719448E+03 -0.26129158643E+03  0.20336678167E+03  0.40646684447E+03  0.18800000000E+03 0.  0.
<mgrwt>
<rscale>  0 0.78904004E+03</rscale>
<asrwt>0</asrwt>
<pdfrwt beam="1">  1        2 0.60002402E-01 0.78904004E+03</pdfrwt>
<pdfrwt beam="2">  1       -2 0.52938712E-01 0.78904004E+03</pdfrwt>
<totfact> 0.27736725E+02</totfact>
</mgrwt>
</event>
<event>
 4    1  0.5917727E-005  0.1827244E+04  0.7818608E-02  0.8691944E-01
          2   -1    0    0  501    0  0.00000000000E+00  0.00000000000E+00  0.20129973293E+04  0.20129973293E+04  0.25500000000E-02 0.  1.
         -2   -1    0    0    0  501 -0.00000000000E+00 -0.00000000000E+00 -0.41465796637E+03  0.41465796638E+03  0.25500000000E-02 0. -1.
    5000001    1    1    2    0    0 -0.49521556395E+03 -0.67342503535E+03  0.37772931815E+03  0.93635632684E+03  0.18800000000E+03 0.  0.
   -5000001    1    1    2    0    0  0.49521556395E+03  0.67342503535E+03  0.12206100448E+04  0.14912989688E+04  0.18800000000E+03 0.  0.
<mgrwt>
<rscale>  0 0.18272442E+04</rscale>
<asrwt>0</asrwt>
<pdfrwt beam="1">  1        2 0.28757104E+00 0.18272442E+04</pdfrwt>
<pdfrwt beam="2">  1       -2 0.59236853E-01 0.18272442E+04</pdfrwt>
<totfact> 0.19860359E+01</totfact>
</mgrwt>
</event>
<event>
 4    1  0.5917727E-005  0.5950079E+03  0.7818608E-02  0.9915818E-01
         -2   -1    0    0    0  501 -0.00000000000E+00  0.00000000000E+00  0.10093315687E+03  0.10093315690E+03  0.25500000000E-02 0. -1.
          2   -1    0    0  501    0  0.00000000000E+00 -0.00000000000E+00 -0.87690312340E+03  0.87690312341E+03  0.25500000000E-02 0.  1.
    5000001    1    1    2    0    0  0.21411220086E+03 -0.11243232817E+01 -0.24738727440E+03  0.37734567998E+03  0.18800000000E+03 0.  0.
   -5000001    1    1    2    0    0 -0.21411220086E+03  0.11243232817E+01 -0.52858269213E+03  0.60049060033E+03  0.18800000000E+03 0.  0.
<mgrwt>
<rscale>  0 0.59500790E+03</rscale>
<asrwt>0</asrwt>
<pdfrwt beam="1">  1        2 0.12527187E+00 0.59500790E+03</pdfrwt>
<pdfrwt beam="2">  1       -2 0.14419023E-01 0.59500790E+03</pdfrwt>
<totfact> 0.12651771E+03</totfact>
</mgrwt>
</event>
<event>
 4    1  0.5917727E-005  0.5924312E+03  0.7818608E-02  0.9921235E-01
         -2   -1    0    0    0  501 -0.00000000000E+00  0.00000000000E+00  0.84669611489E+02  0.84669611528E+02  0.25500000000E-02 0. -1.
          2   -1    0    0  501    0  0.00000000000E+00 -0.00000000000E+00 -0.10363065963E+04  0.10363065963E+04  0.25500000000E-02 0.  1.
    5000001    1    1    2    0    0 -0.22846468468E+03 -0.10178527876E+01 -0.50274635141E+03  0.58334813107E+03  0.18800000000E+03 0.  0.
   -5000001    1    1    2    0    0  0.22846468468E+03  0.10178527876E+01 -0.44889063343E+03  0.53762807679E+03  0.18800000000E+03 0.  0.
<mgrwt>
<rscale>  0 0.59243118E+03</rscale>
<asrwt>0</asrwt>
<pdfrwt beam="1">  1        2 0.14804379E+00 0.59243118E+03</pdfrwt>
<pdfrwt beam="2">  1       -2 0.12095659E-01 0.59243118E+03</pdfrwt>
<totfact> 0.13469868E+03</totfact>
</mgrwt>
</event>
<event>
 4    1  0.5917727E-005  0.4219913E+03  0.7818608E-02  0.1036420E+00
         -2   -1    0    0    0  501 -0.00000000000E+00  0.00000000000E+00  0.73117303700E+02  0.73117303744E+02  0.25500000000E-02 0. -1.
          2   -1    0    0  501    0  0.00000000000E+00 -0.00000000000E+00 -0.60887324689E+03  0.60887324690E+03  0.25500000000E-02 0.  1.
    5000001    1    1    2    0    0  0.33128955184E+02  0.59959150846E+02 -0.37608041011E+03  0.42599659894E+03  0.18800000000E+03 0.  0.
   -5000001    1    1    2    0    0 -0.33128955184E+02 -0.59959150846E+02 -0.15967553308E+03  0.25599395170E+03  0.18800000000E+03 0.  0.
<mgrwt>
<rscale>  0 0.42199133E+03</rscale>
<asrwt>0</asrwt>
<pdfrwt beam="1">  1        2 0.86981889E-01 0.42199133E+03</pdfrwt>
<pdfrwt beam="2">  1       -2 0.10445330E-01 0.42199133E+03</pdfrwt>
<totfact> 0.33707025E+03</totfact>
</mgrwt>
</event>
<event>
 4    1  0.5917727E-005  0.7879779E+03  0.7818608E-02  0.9577583E-01
          2   -1    0    0  501    0  0.00000000000E+00  0.00000000000E+00  0.23204475346E+03  0.23204475348E+03  0.25500000000E-02 0.  1.
         -2   -1    0    0    0  501 -0.00000000000E+00 -0.00000000000E+00 -0.66895418506E+03  0.66895418506E+03  0.25500000000E-02 0. -1.
    5000001    1    1    2    0    0 -0.91978453784E+02 -0.32154826465E+03 -0.32091784779E+03  0.50018555306E+03  0.18800000000E+03 0.  0.
   -5000001    1    1    2    0    0  0.91978453784E+02  0.32154826465E+03 -0.11599158381E+03  0.40081338548E+03  0.18800000000E+03 0.  0.
<mgrwt>
<rscale>  0 0.78797794E+03</rscale>
<asrwt>0</asrwt>
<pdfrwt beam="1">  1        2 0.33149251E-01 0.78797794E+03</pdfrwt>
<pdfrwt beam="2">  1       -2 0.95564883E-01 0.78797794E+03</pdfrwt>
<totfact> 0.14725401E+02</totfact>
</mgrwt>
</event>
<event>
 4    1  0.5917727E-005  0.5520457E+03  0.7818608E-02  0.1001022E+00
          2   -1    0    0  501    0  0.00000000000E+00  0.00000000000E+00  0.24058281572E+03  0.24058281573E+03  0.25500000000E-02 0.  1.
         -2   -1    0    0    0  501 -0.00000000000E+00 -0.00000000000E+00 -0.31668349490E+03  0.31668349491E+03  0.25500000000E-02 0. -1.
    5000001    1    1    2    0    0 -0.15154996900E+03  0.80911295398E+02  0.69401479505E+02  0.26395945936E+03  0.18800000000E+03 0.  0.
   -5000001    1    1    2    0    0  0.15154996900E+03 -0.80911295398E+02 -0.14550215869E+03  0.29330685129E+03  0.18800000000E+03 0.  0.
<mgrwt>
<rscale>  0 0.55204568E+03</rscale>
<asrwt>0</asrwt>
<pdfrwt beam="1">  1        2 0.34368974E-01 0.55204568E+03</pdfrwt>
<pdfrwt beam="2">  1       -2 0.45240499E-01 0.55204568E+03</pdfrwt>
<totfact> 0.71120257E+02</totfact>
</mgrwt>
</event>
<event>
 4    1  0.5917727E-005  0.4837308E+03  0.7818608E-02  0.1018115E+00
          2   -1    0    0  501    0  0.00000000000E+00  0.00000000000E+00  0.27600576353E+03  0.27600576354E+03  0.25500000000E-02 0.  1.
         -2   -1    0    0    0  501 -0.00000000000E+00 -0.00000000000E+00 -0.21194804646E+03  0.21194804647E+03  0.25500000000E-02 0. -1.
    5000001    1    1    2    0    0  0.55638194545E+02  0.11980837824E+03  0.10822120832E+03  0.25397930254E+03  0.18800000000E+03 0.  0.
   -5000001    1    1    2    0    0 -0.55638194545E+02 -0.11980837824E+03 -0.44163491246E+02  0.23397450748E+03  0.18800000000E+03 0.  0.
<mgrwt>
<rscale>  0 0.48373084E+03</rscale>
<asrwt>0</asrwt>
<pdfrwt beam="1">  1        2 0.39429395E-01 0.48373084E+03</pdfrwt>
<pdfrwt beam="2">  1       -2 0.30278292E-01 0.48373084E+03</pdfrwt>
<totfact> 0.13156822E+03</totfact>
</mgrwt>
</event>
<event>
 4    1  0.5917727E-005  0.4291903E+03  0.7818608E-02  0.1034116E+00
          2   -1    0    0  501    0  0.00000000000E+00  0.00000000000E+00  0.61379775888E+03  0.61379775888E+03  0.25500000000E-02 0.  1.
         -2   -1    0    0    0  501 -0.00000000000E+00 -0.00000000000E+00 -0.75026481873E+02  0.75026481917E+02  0.25500000000E-02 0. -1.
    5000001    1    1    2    0    0 -0.51293793981E+02  0.78396784803E+02  0.19887825731E+03  0.28926401504E+03  0.18800000000E+03 0.  0.
   -5000001    1    1    2    0    0  0.51293793981E+02 -0.78396784803E+02  0.33989301970E+03  0.39956022576E+03  0.18800000000E+03 0.  0.
<mgrwt>
<rscale>  0 0.42919034E+03</rscale>
<asrwt>0</asrwt>
<pdfrwt beam="1">  1        2 0.87685396E-01 0.42919034E+03</pdfrwt>
<pdfrwt beam="2">  1       -2 0.10718069E-01 0.42919034E+03</pdfrwt>
<totfact> 0.32037076E+03</totfact>
</mgrwt>
</event>
<event>
 4    1  0.5917727E-005  0.7786795E+03  0.7818608E-02  0.9591401E-01
         -2   -1    0    0    0  501 -0.00000000000E+00  0.00000000000E+00  0.27063079445E+03  0.27063079446E+03  0.25500000000E-02 0. -1.
          2   -1    0    0  501    0  0.00000000000E+00 -0.00000000000E+00 -0.56011902580E+03  0.56011902581E+03  0.25500000000E-02 0.  1.
    5000001    1    1    2    0    0  0.25102583870E+03 -0.23001660574E+03 -0.12566394824E+03  0.40872611673E+03  0.18800000000E+03 0.  0.
   -5000001    1    1    2    0    0 -0.25102583870E+03  0.23001660574E+03 -0.16382428311E+03  0.42202370354E+03  0.18800000000E+03 0.  0.
<mgrwt>
<rscale>  0 0.77867954E+03</rscale>
<asrwt>0</asrwt>
<pdfrwt beam="1">  1        2 0.80017003E-01 0.77867954E+03</pdfrwt>
<pdfrwt beam="2">  1       -2 0.38661542E-01 0.77867954E+03</pdfrwt>
<totfact> 0.37389192E+02</totfact>
</mgrwt>
</event>
<event>
 4    1  0.5917727E-005  0.6006654E+03  0.7818608E-02  0.9904026E-01
         -2   -1    0    0    0  501 -0.00000000000E+00  0.00000000000E+00  0.61306685627E+02  0.61306685680E+02  0.25500000000E-02 0. -1.
          2   -1    0    0  501    0  0.00000000000E+00 -0.00000000000E+00 -0.14712871271E+04  0.14712871271E+04  0.25500000000E-02 0.  1.
    5000001    1    1    2    0    0 -0.18357896936E+03  0.11751458478E+03 -0.92365813725E+03  0.96747055259E+03  0.18800000000E+03 0.  0.
   -5000001    1    1    2    0    0  0.18357896936E+03 -0.11751458478E+03 -0.48632230426E+03  0.56512326022E+03  0.18800000000E+03 0.  0.
<mgrwt>
<rscale>  0 0.60066542E+03</rscale>
<asrwt>0</asrwt>
<pdfrwt beam="1">  1        2 0.21018385E+00 0.60066542E+03</pdfrwt>
<pdfrwt beam="2">  1       -2 0.87580989E-02 0.60066542E+03</pdfrwt>
<totfact> 0.13062219E+03</totfact>
</mgrwt>
</event>
<event>
 4    1  0.5917727E-005  0.4544746E+03  0.7818608E-02  0.1026396E+00
          2   -1    0    0  501    0  0.00000000000E+00  0.00000000000E+00  0.48840414885E+04  0.48840414885E+04  0.25500000000E-02 0.  1.
         -2   -1    0    0    0  501 -0.00000000000E+00 -0.00000000000E+00 -0.10572553424E+02  0.10572553731E+02  0.25500000000E-02 0. -1.
    5000001    1    1    2    0    0 -0.11398243880E+03 -0.57210364470E+02  0.24934866237E+04  0.25038140036E+04  0.18800000000E+03 0.  0.
   -5000001    1    1    2    0    0  0.11398243880E+03  0.57210364470E+02  0.23799823114E+04  0.23908000386E+04  0.18800000000E+03 0.  0.
<mgrwt>
<rscale>  0 0.45447460E+03</rscale>
<asrwt>0</asrwt>
<pdfrwt beam="1">  1        2 0.69771921E+00 0.45447460E+03</pdfrwt>
<pdfrwt beam="2">  1       -2 0.15103670E-02 0.45447460E+03</pdfrwt>
<totfact> 0.17400139E+02</totfact>
</mgrwt>
</event>
<event>
 4    1  0.5917727E-005  0.5899379E+03  0.7818608E-02  0.9926504E-01
          2   -1    0    0  501    0  0.00000000000E+00  0.00000000000E+00  0.11151325546E+04  0.11151325546E+04  0.25500000000E-02 0.  1.
         -2   -1    0    0    0  501 -0.00000000000E+00 -0.00000000000E+00 -0.78023612562E+02  0.78023612604E+02  0.25500000000E-02 0. -1.
    5000001    1    1    2    0    0 -0.17016622260E+03  0.12060590734E+03  0.33585166973E+03  0.43777011348E+03  0.18800000000E+03 0.  0.
   -5000001    1    1    2    0    0  0.17016622260E+03 -0.12060590734E+03  0.70125727231E+03  0.75538605372E+03  0.18800000000E+03 0.  0.
<mgrwt>
<rscale>  0 0.58993786E+03</rscale>
<asrwt>0</asrwt>
<pdfrwt beam="1">  1        2 0.15930464E+00 0.58993786E+03</pdfrwt>
<pdfrwt beam="2">  1       -2 0.11146231E-01 0.58993786E+03</pdfrwt>
<totfact> 0.13845601E+03</totfact>
</mgrwt>
</event>
<event>
 4    1  0.5917727E-005  0.6595650E+03  0.7818608E-02  0.9788995E-01
          2   -1    0    0  501    0  0.00000000000E+00  0.00000000000E+00  0.51536898978E+03  0.51536898979E+03  0.25500000000E-02 0.  1.
         -2   -1    0    0    0  501 -0.00000000000E+00 -0.00000000000E+00 -0.21102646628E+03  0.21102646630E+03  0.25500000000E-02 0. -1.
    5000001    1    1    2    0    0 -0.45473459991E+02  0.24598195404E+03  0.37519465160E+02  0.31516133574E+03  0.18800000000E+03 0.  0.
   -5000001    1    1    2    0    0  0.45473459991E+02 -0.24598195404E+03  0.26682305834E+03  0.41123412035E+03  0.18800000000E+03 0.  0.
<mgrwt>
<rscale>  0 0.65956500E+03</rscale>
<asrwt>0</asrwt>
<pdfrwt beam="1">  1        2 0.73624140E-01 0.65956500E+03</pdfrwt>
<pdfrwt beam="2">  1       -2 0.30146639E-01 0.65956500E+03</pdfrwt>
<totfact> 0.66159354E+02</totfact>
</mgrwt>
</event>
<event>
 4    1  0.5917727E-005  0.4924815E+03  0.7818608E-02  0.1015760E+00
         -2   -1    0    0    0  501 -0.00000000000E+00  0.00000000000E+00  0.58709576639E+02  0.58709576695E+02  0.25500000000E-02 0.  1.
          2   -1    0    0  501    0  0.00000000000E+00 -0.00000000000E+00 -0.10327871501E+04  0.10327871501E+04  0.25500000000E-02 0. -1.
    5000001    1    1    2    0    0 -0.10542495235E+03  0.11859050096E+03 -0.46354486194E+03  0.52478182755E+03  0.18800000000E+03 0.  0.
   -5000001    1    1    2    0    0  0.10542495235E+03 -0.11859050096E+03 -0.51053271154E+03  0.56671489927E+03  0.18800000000E+03 0.  0.
<mgrwt>
<rscale>  0 0.49248146E+03</rscale>
<asrwt>0</asrwt>
<pdfrwt beam="1">  1        2 0.14754101E+00 0.49248146E+03</pdfrwt>
<pdfrwt beam="2">  1       -2 0.83870830E-02 0.49248146E+03</pdfrwt>
<totfact> 0.24509793E+03</totfact>
</mgrwt>
</event>
<event>
 4    1  0.5917727E-005  0.5202400E+03  0.7818608E-02  0.1008627E+00
         -2   -1    0    0    0  501 -0.00000000000E+00  0.00000000000E+00  0.10426668108E+03  0.10426668112E+03  0.25500000000E-02 0. -1.
          2   -1    0    0  501    0  0.00000000000E+00 -0.00000000000E+00 -0.64893616574E+03  0.64893616574E+03  0.25500000000E-02 0.  1.
    5000001    1    1    2    0    0  0.15825332932E+03 -0.35706511553E+02 -0.16019481816E+03  0.29550880016E+03  0.18800000000E+03 0.  0.
   -5000001    1    1    2    0    0 -0.15825332932E+03  0.35706511553E+02 -0.38447466649E+03  0.45769404670E+03  0.18800000000E+03 0.  0.
<mgrwt>
<rscale>  0 0.52024002E+03</rscale>
<asrwt>0</asrwt>
<pdfrwt beam="1">  1        2 0.92705164E-01 0.52024002E+03</pdfrwt>
<pdfrwt beam="2">  1       -2 0.14895241E-01 0.52024002E+03</pdfrwt>
<totfact> 0.17475693E+03</totfact>
</mgrwt>
</event>
<event>
 4    1  0.5917727E-005  0.6282962E+03  0.7818608E-02  0.9848379E-01
         -2   -1    0    0    0  501 -0.00000000000E+00  0.00000000000E+00  0.17012939786E+03  0.17012939788E+03  0.25500000000E-02 0. -1.
          2   -1    0    0  501    0  0.00000000000E+00 -0.00000000000E+00 -0.58008221485E+03  0.58008221486E+03  0.25500000000E-02 0.  1.
    5000001    1    1    2    0    0  0.15585705451E+03  0.16914424221E+03 -0.82951224327E+02  0.30842519633E+03  0.18800000000E+03 0.  0.
   -5000001    1    1    2    0    0 -0.15585705451E+03 -0.16914424221E+03 -0.32700159267E+03  0.44178641641E+03  0.18800000000E+03 0.  0.
<mgrwt>
<rscale>  0 0.62829623E+03</rscale>
<asrwt>0</asrwt>
<pdfrwt beam="1">  1        2 0.82868887E-01 0.62829623E+03</pdfrwt>
<pdfrwt beam="2">  1       -2 0.24304200E-01 0.62829623E+03</pdfrwt>
<totfact> 0.85437470E+02</totfact>
</mgrwt>
</event>
<event>
 4    1  0.5917727E-005  0.5414973E+03  0.7818608E-02  0.1003481E+00
          2   -1    0    0  501    0  0.00000000000E+00  0.00000000000E+00  0.45922163805E+03  0.45922163806E+03  0.25500000000E-02 0.  1.
         -2   -1    0    0    0  501 -0.00000000000E+00 -0.00000000000E+00 -0.15962840952E+03  0.15962840954E+03  0.25500000000E-02 0. -1.
    5000001    1    1    2    0    0 -0.14835204171E+03 -0.35421260563E+02  0.11243684089E+02  0.24234977700E+03  0.18800000000E+03 0.  0.
   -5000001    1    1    2    0    0  0.14835204171E+03  0.35421260563E+02  0.28834954444E+03  0.37650027060E+03  0.18800000000E+03 0.  0.
<mgrwt>
<rscale>  0 0.54149726E+03</rscale>
<asrwt>0</asrwt>
<pdfrwt beam="1">  1        2 0.65603092E-01 0.54149726E+03</pdfrwt>
<pdfrwt beam="2">  1       -2 0.22804058E-01 0.54149726E+03</pdfrwt>
<totfact> 0.12511151E+03</totfact>
</mgrwt>
</event>
<event>
 4    1  0.5917727E-005  0.4271912E+03  0.7818608E-02  0.1034751E+00
         -2   -1    0    0    0  501 -0.00000000000E+00  0.00000000000E+00  0.53128793060E+02  0.53128793121E+02  0.25500000000E-02 0. -1.
          2   -1    0    0  501    0  0.00000000000E+00 -0.00000000000E+00 -0.85872603406E+03  0.85872603406E+03  0.25500000000E-02 0.  1.
    5000001    1    1    2    0    0  0.27010739332E+02  0.95813291223E+02 -0.36177825530E+03  0.41968711301E+03  0.18800000000E+03 0.  0.
   -5000001    1    1    2    0    0 -0.27010739332E+02 -0.95813291223E+02 -0.44381898570E+03  0.49216771418E+03  0.18800000000E+03 0.  0.
<mgrwt>
<rscale>  0 0.42719119E+03</rscale>
<asrwt>0</asrwt>
<pdfrwt beam="1">  1        2 0.12267514E+00 0.42719119E+03</pdfrwt>
<pdfrwt beam="2">  1       -2 0.75898281E-02 0.42719119E+03</pdfrwt>
<totfact> 0.36820446E+03</totfact>
</mgrwt>
</event>
<event>
 4    1  0.5917727E-005  0.5379411E+03  0.7818608E-02  0.1004324E+00
          2   -1    0    0  501    0  0.00000000000E+00  0.00000000000E+00  0.11382692422E+04  0.11382692422E+04  0.25500000000E-02 0.  1.
         -2   -1    0    0    0  501 -0.00000000000E+00 -0.00000000000E+00 -0.63557168296E+02  0.63557168347E+02  0.25500000000E-02 0. -1.
    5000001    1    1    2    0    0 -0.33959140469E+01 -0.13026546850E+03  0.85347090941E+03  0.88359335541E+03  0.18800000000E+03 0.  0.
   -5000001    1    1    2    0    0  0.33959140469E+01  0.13026546850E+03  0.22124116449E+03  0.31823305514E+03  0.18800000000E+03 0.  0.
<mgrwt>
<rscale>  0 0.53794115E+03</rscale>
<asrwt>0</asrwt>
<pdfrwt beam="1">  1        2 0.16260988E+00 0.53794115E+03</pdfrwt>
<pdfrwt beam="2">  1       -2 0.90795961E-02 0.53794115E+03</pdfrwt>
<totfact> 0.18736332E+03</totfact>
</mgrwt>
</event>
<event>
 4    1  0.5917727E-005  0.5060190E+03  0.7818608E-02  0.1012220E+00
          2   -1    0    0  501    0  0.00000000000E+00  0.00000000000E+00  0.82140374912E+03  0.82140374912E+03  0.25500000000E-02 0.  1.
         -2   -1    0    0    0  501 -0.00000000000E+00 -0.00000000000E+00 -0.77932193593E+02  0.77932193634E+02  0.25500000000E-02 0. -1.
    5000001    1    1    2    0    0 -0.10018199090E+03  0.11414684076E+03  0.23869066169E+03  0.33968097464E+03  0.18800000000E+03 0.  0.
   -5000001    1    1    2    0    0  0.10018199090E+03 -0.11414684076E+03  0.50478089384E+03  0.55965496812E+03  0.18800000000E+03 0.  0.
<mgrwt>
<rscale>  0 0.50601896E+03</rscale>
<asrwt>0</asrwt>
<pdfrwt beam="1">  1        2 0.11734340E+00 0.50601896E+03</pdfrwt>
<pdfrwt beam="2">  1       -2 0.11133170E-01 0.50601896E+03</pdfrwt>
<totfact> 0.21134300E+03</totfact>
</mgrwt>
</event>
<event>
 4    1  0.5917727E-005  0.4521136E+03  0.7818608E-02  0.1027094E+00
          2   -1    0    0  501    0  0.00000000000E+00  0.00000000000E+00  0.10483700316E+04  0.10483700316E+04  0.25500000000E-02 0.  1.
         -2   -1    0    0    0  501 -0.00000000000E+00 -0.00000000000E+00 -0.48743936017E+02  0.48743936084E+02  0.25500000000E-02 0. -1.
    5000001    1    1    2    0    0  0.63669222572E+02 -0.10445998142E+03  0.43152049191E+03  0.48633280021E+03  0.18800000000E+03 0.  0.
   -5000001    1    1    2    0    0 -0.63669222572E+02  0.10445998142E+03  0.56810560369E+03  0.61078116749E+03  0.18800000000E+03 0.  0.
<mgrwt>
<rscale>  0 0.45211362E+03</rscale>
<asrwt>0</asrwt>
<pdfrwt beam="1">  1        2 0.14976713E+00 0.45211362E+03</pdfrwt>
<pdfrwt beam="2">  1       -2 0.69634203E-02 0.45211362E+03</pdfrwt>
<totfact> 0.32188138E+03</totfact>
</mgrwt>
</event>
<event>
 4    1  0.5917727E-005  0.1036644E+04  0.7818608E-02  0.9269243E-01
         -2   -1    0    0    0  501 -0.00000000000E+00  0.00000000000E+00  0.18508866843E+03  0.18508866845E+03  0.25500000000E-02 0. -1.
          2   -1    0    0  501    0  0.00000000000E+00 -0.00000000000E+00 -0.14515089575E+04  0.14515089575E+04  0.25500000000E-02 0.  1.
    5000001    1    1    2    0    0 -0.38647652808E+03  0.14222121160E+02 -0.10900858150E+04  0.11718350821E+04  0.18800000000E+03 0.  0.
   -5000001    1    1    2    0    0  0.38647652808E+03 -0.14222121160E+02 -0.17633447411E+03  0.46476254393E+03  0.18800000000E+03 0.  0.
<mgrwt>
<rscale>  0 0.10366443E+04</rscale>
<asrwt>0</asrwt>
<pdfrwt beam="1">  1        2 0.20735842E+00 0.10366443E+04</pdfrwt>
<pdfrwt beam="2">  1       -2 0.26441239E-01 0.10366443E+04</pdfrwt>
<totfact> 0.19982124E+02</totfact>
</mgrwt>
</event>
<event>
 4    1  0.5917727E-005  0.5523410E+03  0.7818608E-02  0.1000954E+00
         -2   -1    0    0    0  501 -0.00000000000E+00  0.00000000000E+00  0.31984074235E+02  0.31984074337E+02  0.25500000000E-02 0. -1.
          2   -1    0    0  501    0  0.00000000000E+00 -0.00000000000E+00 -0.23846290064E+04  0.23846290064E+04  0.25500000000E-02 0.  1.
    5000001    1    1    2    0    0  0.88323123567E+02 -0.93928547694E+02 -0.49425672390E+03  0.54429519137E+03  0.18800000000E+03 0.  0.
   -5000001    1    1    2    0    0 -0.88323123567E+02  0.93928547694E+02 -0.18583882083E+04  0.18723178894E+04  0.18800000000E+03 0.  0.
<mgrwt>
<rscale>  0 0.55234102E+03</rscale>
<asrwt>0</asrwt>
<pdfrwt beam="1">  1        2 0.34066117E+00 0.55234102E+03</pdfrwt>
<pdfrwt beam="2">  1       -2 0.45691550E-02 0.55234102E+03</pdfrwt>
<totfact> 0.12543606E+03</totfact>
</mgrwt>
</event>
<event>
 4    1  0.5917727E-005  0.6669283E+03  0.7818608E-02  0.9775523E-01
         -2   -1    0    0    0  501 -0.00000000000E+00  0.00000000000E+00  0.12718182841E+03  0.12718182844E+03  0.25500000000E-02 0. -1.
          2   -1    0    0  501    0  0.00000000000E+00 -0.00000000000E+00 -0.87432571977E+03  0.87432571978E+03  0.25500000000E-02 0.  1.
    5000001    1    1    2    0    0  0.10284765058E+03 -0.25526558307E+03 -0.38975844758E+03  0.51282921581E+03  0.18800000000E+03 0.  0.
   -5000001    1    1    2    0    0 -0.10284765058E+03  0.25526558307E+03 -0.35738544379E+03  0.48867833240E+03  0.18800000000E+03 0.  0.
<mgrwt>
<rscale>  0 0.66692831E+03</rscale>
<asrwt>0</asrwt>
<pdfrwt beam="1">  1        2 0.12490367E+00 0.66692831E+03</pdfrwt>
<pdfrwt beam="2">  1       -2 0.18168833E-01 0.66692831E+03</pdfrwt>
<totfact> 0.85615683E+02</totfact>
</mgrwt>
</event>
<event>
 4    1  0.5917727E-005  0.3958293E+03  0.7818608E-02  0.1045233E+00
          2   -1    0    0  501    0  0.00000000000E+00  0.00000000000E+00  0.18111355473E+04  0.18111355473E+04  0.25500000000E-02 0.  1.
         -2   -1    0    0    0  501 -0.00000000000E+00 -0.00000000000E+00 -0.21627432099E+02  0.21627432249E+02  0.25500000000E-02 0. -1.
    5000001    1    1    2    0    0  0.41678734691E+02  0.17092311249E+02  0.69847859596E+03  0.72473830660E+03  0.18800000000E+03 0.  0.
   -5000001    1    1    2    0    0 -0.41678734691E+02 -0.17092311249E+02  0.10910295193E+04  0.11080246730E+04  0.18800000000E+03 0.  0.
<mgrwt>
<rscale>  0 0.39582931E+03</rscale>
<asrwt>0</asrwt>
<pdfrwt beam="1">  1        2 0.25873371E+00 0.39582931E+03</pdfrwt>
<pdfrwt beam="2">  1       -2 0.30896324E-02 0.39582931E+03</pdfrwt>
<totfact> 0.44307578E+03</totfact>
</mgrwt>
</event>
<event>
 4    1  0.5917727E-005  0.6124622E+03  0.7818608E-02  0.9879883E-01
         -2   -1    0    0    0  501 -0.00000000000E+00  0.00000000000E+00  0.93855147307E+03  0.93855147307E+03  0.25500000000E-02 0. -1.
          2   -1    0    0  501    0  0.00000000000E+00 -0.00000000000E+00 -0.99917251295E+02  0.99917251327E+02  0.25500000000E-02 0.  1.
    5000001    1    1    2    0    0  0.17664879846E+02 -0.18528398531E+03  0.15778618889E+03  0.30803033064E+03  0.18800000000E+03 0.  0.
   -5000001    1    1    2    0    0 -0.17664879846E+02  0.18528398531E+03  0.68084803288E+03  0.73043839376E+03  0.18800000000E+03 0.  0.
<mgrwt>
<rscale>  0 0.61246219E+03</rscale>
<asrwt>0</asrwt>
<pdfrwt beam="1">  1        2 0.14273893E-01 0.61246219E+03</pdfrwt>
<pdfrwt beam="2">  1       -2 0.13407879E+00 0.61246219E+03</pdfrwt>
<totfact> 0.17348302E+02</totfact>
</mgrwt>
</event>
<event>
 4    1  0.5917727E-005  0.5715354E+03  0.7818608E-02  0.9966287E-01
          2   -1    0    0  501    0  0.00000000000E+00  0.00000000000E+00  0.29082644243E+04  0.29082644243E+04  0.25500000000E-02 0.  1.
         -2   -1    0    0    0  501 -0.00000000000E+00 -0.00000000000E+00 -0.28079696065E+02  0.28079696181E+02  0.25500000000E-02 0. -1.
    5000001    1    1    2    0    0  0.19467383391E+03  0.33542973225E+02  0.18789368480E+04  0.18986233727E+04  0.18800000000E+03 0.  0.
   -5000001    1    1    2    0    0 -0.19467383391E+03 -0.33542973225E+02  0.10012478802E+04  0.10377207477E+04  0.18800000000E+03 0.  0.
<mgrwt>
<rscale>  0 0.57153541E+03</rscale>
<asrwt>0</asrwt>
<pdfrwt beam="1">  1        2 0.41546609E+00 0.57153541E+03</pdfrwt>
<pdfrwt beam="2">  1       -2 0.40113876E-02 0.57153541E+03</pdfrwt>
<totfact> 0.81739355E+02</totfact>
</mgrwt>
</event>
<event>
 4    1  0.5917727E-005  0.4926229E+03  0.7818608E-02  0.1015723E+00
         -2   -1    0    0    0  501 -0.00000000000E+00  0.00000000000E+00  0.41538271434E+02  0.41538271512E+02  0.25500000000E-02 0. -1.
          2   -1    0    0  501    0  0.00000000000E+00 -0.00000000000E+00 -0.14605648233E+04  0.14605648233E+04  0.25500000000E-02 0.  1.
    5000001    1    1    2    0    0  0.62162998419E+02 -0.14193047838E+03 -0.59886326314E+03  0.64652123477E+03  0.18800000000E+03 0.  0.
   -5000001    1    1    2    0    0 -0.62162998419E+02  0.14193047838E+03 -0.82016328871E+03  0.85558186003E+03  0.18800000000E+03 0.  0.
<mgrwt>
<rscale>  0 0.49262293E+03</rscale>
<asrwt>0</asrwt>
<pdfrwt beam="1">  1        2 0.20865209E+00 0.49262293E+03</pdfrwt>
<pdfrwt beam="2">  1       -2 0.59340397E-02 0.49262293E+03</pdfrwt>
<totfact> 0.24548162E+03</totfact>
</mgrwt>
</event>
<event>
 4    1  0.5917727E-005  0.5276940E+03  0.7818608E-02  0.1006793E+00
          2   -1    0    0  501    0  0.00000000000E+00  0.00000000000E+00  0.16848500469E+03  0.16848500471E+03  0.25500000000E-02 0.  1.
         -2   -1    0    0    0  501 -0.00000000000E+00 -0.00000000000E+00 -0.41318364725E+03  0.41318364726E+03  0.25500000000E-02 0. -1.
    5000001    1    1    2    0    0 -0.11318040004E+02  0.12719688987E+03  0.25390043997E+02  0.22868275221E+03  0.18800000000E+03 0.  0.
   -5000001    1    1    2    0    0  0.11318040004E+02 -0.12719688987E+03 -0.27008868656E+03  0.35298589976E+03  0.18800000000E+03 0.  0.
<mgrwt>
<rscale>  0 0.52769404E+03</rscale>
<asrwt>0</asrwt>
<pdfrwt beam="1">  1        2 0.24069286E-01 0.52769404E+03</pdfrwt>
<pdfrwt beam="2">  1       -2 0.59026235E-01 0.52769404E+03</pdfrwt>
<totfact> 0.61806019E+02</totfact>
</mgrwt>
</event>
<event>
 4    1  0.5917727E-005  0.7285458E+03  0.7818608E-02  0.9669623E-01
         -2   -1    0    0    0  501 -0.00000000000E+00  0.00000000000E+00  0.27853050466E+03  0.27853050468E+03  0.25500000000E-02 0. -1.
          2   -1    0    0  501    0  0.00000000000E+00 -0.00000000000E+00 -0.47641008828E+03  0.47641008829E+03  0.25500000000E-02 0.  1.
    5000001    1    1    2    0    0 -0.28425173836E+03  0.41413503999E+02  0.27278794746E+02  0.34438679086E+03  0.18800000000E+03 0.  0.
   -5000001    1    1    2    0    0  0.28425173836E+03 -0.41413503999E+02 -0.22515837836E+03  0.41055380210E+03  0.18800000000E+03 0.  0.
<mgrwt>
<rscale>  0 0.72854579E+03</rscale>
<asrwt>0</asrwt>
<pdfrwt beam="1">  1        2 0.68058584E-01 0.72854579E+03</pdfrwt>
<pdfrwt beam="2">  1       -2 0.39790072E-01 0.72854579E+03</pdfrwt>
<totfact> 0.42670990E+02</totfact>
</mgrwt>
</event>
<event>
 4    1  0.5917727E-005  0.4904863E+03  0.7818608E-02  0.1016292E+00
         -2   -1    0    0    0  501 -0.00000000000E+00  0.00000000000E+00  0.94735993301E+02  0.94735993335E+02  0.25500000000E-02 0. -1.
          2   -1    0    0  501    0  0.00000000000E+00 -0.00000000000E+00 -0.63486103211E+03  0.63486103212E+03  0.25500000000E-02 0.  1.
    5000001    1    1    2    0    0  0.53659380547E+02 -0.69967268766E+02 -0.75971507834E+02  0.22111177676E+03  0.18800000000E+03 0.  0.
   -5000001    1    1    2    0    0 -0.53659380547E+02  0.69967268766E+02 -0.46415353098E+03  0.50848524869E+03  0.18800000000E+03 0.  0.
<mgrwt>
<rscale>  0 0.49048625E+03</rscale>
<asrwt>0</asrwt>
<pdfrwt beam="1">  1        2 0.90694431E-01 0.49048625E+03</pdfrwt>
<pdfrwt beam="2">  1       -2 0.13533714E-01 0.49048625E+03</pdfrwt>
<totfact> 0.21043224E+03</totfact>
</mgrwt>
</event>
<event>
 4    1  0.5917727E-005  0.7636759E+03  0.7818608E-02  0.9614136E-01
          2   -1    0    0  501    0  0.00000000000E+00  0.00000000000E+00  0.25712160896E+04  0.25712160896E+04  0.25500000000E-02 0.  1.
         -2   -1    0    0    0  501 -0.00000000000E+00 -0.00000000000E+00 -0.56704769420E+02  0.56704769478E+02  0.25500000000E-02 0. -1.
    5000001    1    1    2    0    0 -0.23780421900E+03 -0.37391682492E+02  0.20457757483E+04  0.20684514489E+04  0.18800000000E+03 0.  0.
   -5000001    1    1    2    0    0  0.23780421900E+03  0.37391682492E+02  0.46873557194E+03  0.55946941015E+03  0.18800000000E+03 0.  0.
<mgrwt>
<rscale>  0 0.76367589E+03</rscale>
<asrwt>0</asrwt>
<pdfrwt beam="1">  1        2 0.36731661E+00 0.76367589E+03</pdfrwt>
<pdfrwt beam="2">  1       -2 0.81006809E-02 0.76367589E+03</pdfrwt>
<totfact> 0.40277434E+02</totfact>
</mgrwt>
</event>
<event>
 4    1  0.5917727E-005  0.4123614E+03  0.7818608E-02  0.1039581E+00
          2   -1    0    0  501    0  0.00000000000E+00  0.00000000000E+00  0.18184124586E+04  0.18184124586E+04  0.25500000000E-02 0.  1.
         -2   -1    0    0    0  501 -0.00000000000E+00 -0.00000000000E+00 -0.23377803542E+02  0.23377803681E+02  0.25500000000E-02 0. -1.
    5000001    1    1    2    0    0  0.39780353782E+02 -0.77381534951E+01  0.56555085900E+03  0.59735594890E+03  0.18800000000E+03 0.  0.
   -5000001    1    1    2    0    0 -0.39780353782E+02  0.77381534951E+01  0.12294837961E+04  0.12444343134E+04  0.18800000000E+03 0.  0.
<mgrwt>
<rscale>  0 0.41236144E+03</rscale>
<asrwt>0</asrwt>
<pdfrwt beam="1">  1        2 0.25977322E+00 0.41236144E+03</pdfrwt>
<pdfrwt beam="2">  1       -2 0.33396861E-02 0.41236144E+03</pdfrwt>
<totfact> 0.39066465E+03</totfact>
</mgrwt>
</event>
<event>
 4    1  0.5917727E-005  0.1562023E+04  0.7818608E-02  0.8844225E-01
          2   -1    0    0  501    0  0.00000000000E+00  0.00000000000E+00  0.23233756581E+04  0.23233756581E+04  0.25500000000E-02 0.  1.
         -2   -1    0    0    0  501 -0.00000000000E+00 -0.00000000000E+00 -0.26253988198E+03  0.26253988199E+03  0.25500000000E-02 0. -1.
    5000001    1    1    2    0    0  0.41253967879E+03 -0.63563794226E+03  0.10639468396E+04  0.13196785433E+04  0.18800000000E+03 0.  0.
   -5000001    1    1    2    0    0 -0.41253967879E+03  0.63563794226E+03  0.99688893652E+03  0.12662369968E+04  0.18800000000E+03 0.  0.
<mgrwt>
<rscale>  0 0.15620228E+04</rscale>
<asrwt>0</asrwt>
<pdfrwt beam="1">  1        2 0.33191081E+00 0.15620228E+04</pdfrwt>
<pdfrwt beam="2">  1       -2 0.37505697E-01 0.15620228E+04</pdfrwt>
<totfact> 0.35268150E+01</totfact>
</mgrwt>
</event>
<event>
 4    1  0.5917727E-005  0.4994176E+03  0.7818608E-02  0.1013931E+00
         -2   -1    0    0    0  501 -0.00000000000E+00  0.00000000000E+00  0.20133967534E+02  0.20133967695E+02  0.25500000000E-02 0. -1.
          2   -1    0    0  501    0  0.00000000000E+00 -0.00000000000E+00 -0.30969799697E+04  0.30969799697E+04  0.25500000000E-02 0.  1.
    5000001    1    1    2    0    0 -0.14088224466E+03  0.42425464131E+02 -0.10813524017E+04  0.11073909624E+04  0.18800000000E+03 0.  0.
   -5000001    1    1    2    0    0  0.14088224466E+03 -0.42425464131E+02 -0.19954936004E+04  0.20097229750E+04  0.18800000000E+03 0.  0.
<mgrwt>
<rscale>  0 0.49941764E+03</rscale>
<asrwt>0</asrwt>
<pdfrwt beam="1">  1        2 0.44242541E+00 0.49941764E+03</pdfrwt>
<pdfrwt beam="2">  1       -2 0.28762831E-02 0.49941764E+03</pdfrwt>
<totfact> 0.10788979E+03</totfact>
</mgrwt>
</event>
<event>
 4    1  0.5917727E-005  0.5347374E+03  0.7818608E-02  0.1005090E+00
          2   -1    0    0  501    0  0.00000000000E+00  0.00000000000E+00  0.66965245020E+03  0.66965245020E+03  0.25500000000E-02 0.  1.
         -2   -1    0    0    0  501 -0.00000000000E+00 -0.00000000000E+00 -0.10675094431E+03  0.10675094434E+03  0.25500000000E-02 0. -1.
    5000001    1    1    2    0    0  0.17813828208E+03  0.50790847084E+01  0.18532673480E+03  0.31851066431E+03  0.18800000000E+03 0.  0.
   -5000001    1    1    2    0    0 -0.17813828208E+03 -0.50790847084E+01  0.37757477108E+03  0.45789273024E+03  0.18800000000E+03 0.  0.
<mgrwt>
<rscale>  0 0.53473744E+03</rscale>
<asrwt>0</asrwt>
<pdfrwt beam="1">  1        2 0.95664639E-01 0.53473744E+03</pdfrwt>
<pdfrwt beam="2">  1       -2 0.15250134E-01 0.53473744E+03</pdfrwt>
<totfact> 0.16177122E+03</totfact>
</mgrwt>
</event>
<event>
 4    1  0.5917727E-005  0.4257367E+03  0.7818608E-02  0.1035215E+00
         -2   -1    0    0    0  501 -0.00000000000E+00  0.00000000000E+00  0.53449674154E+03  0.53449674154E+03  0.25500000000E-02 0. -1.
          2   -1    0    0  501    0  0.00000000000E+00 -0.00000000000E+00 -0.84776820613E+02  0.84776820652E+02  0.25500000000E-02 0.  1.
    5000001    1    1    2    0    0  0.88769141140E+02 -0.32614222820E+02  0.27143616092E+03  0.34346067811E+03  0.18800000000E+03 0.  0.
   -5000001    1    1    2    0    0 -0.88769141140E+02  0.32614222820E+02  0.17828376000E+03  0.27581288409E+03  0.18800000000E+03 0.  0.
<mgrwt>
<rscale>  0 0.42573670E+03</rscale>
<asrwt>0</asrwt>
<pdfrwt beam="1">  1        2 0.12110974E-01 0.42573670E+03</pdfrwt>
<pdfrwt beam="2">  1       -2 0.76356677E-01 0.42573670E+03</pdfrwt>
<totfact> 0.80376787E+02</totfact>
</mgrwt>
</event>
<event>
 4    1  0.5917727E-005  0.4044591E+03  0.7818608E-02  0.1042247E+00
          2   -1    0    0  501    0  0.00000000000E+00  0.00000000000E+00  0.39310032718E+03  0.39310032719E+03  0.25500000000E-02 0.  1.
         -2   -1    0    0    0  501 -0.00000000000E+00 -0.00000000000E+00 -0.10403649648E+03  0.10403649651E+03  0.25500000000E-02 0. -1.
    5000001    1    1    2    0    0  0.22739052784E+02 -0.58288083240E+02  0.19428120800E+03  0.27749550077E+03  0.18800000000E+03 0.  0.
   -5000001    1    1    2    0    0 -0.22739052784E+02  0.58288083240E+02  0.94782622702E+02  0.21964132292E+03  0.18800000000E+03 0.  0.
<mgrwt>
<rscale>  0 0.40445905E+03</rscale>
<asrwt>0</asrwt>
<pdfrwt beam="1">  1        2 0.56157190E-01 0.40445905E+03</pdfrwt>
<pdfrwt beam="2">  1       -2 0.14862357E-01 0.40445905E+03</pdfrwt>
<totfact> 0.30902916E+03</totfact>
</mgrwt>
</event>
<event>
 4    1  0.5917727E-005  0.8505205E+03  0.7818608E-02  0.9489639E-01
         -2   -1    0    0    0  501 -0.00000000000E+00  0.00000000000E+00  0.28948852453E+03  0.28948852454E+03  0.25500000000E-02 0. -1.
          2   -1    0    0  501    0  0.00000000000E+00 -0.00000000000E+00 -0.62470961605E+03  0.62470961605E+03  0.25500000000E-02 0.  1.
    5000001    1    1    2    0    0 -0.30863448508E+03 -0.18410250270E+03 -0.30156315381E+02  0.40669691447E+03  0.18800000000E+03 0.  0.
   -5000001    1    1    2    0    0  0.30863448508E+03  0.18410250270E+03 -0.30506477614E+03  0.50750122613E+03  0.18800000000E+03 0.  0.
<mgrwt>
<rscale>  0 0.85052046E+03</rscale>
<asrwt>0</asrwt>
<pdfrwt beam="1">  1        2 0.89244230E-01 0.85052046E+03</pdfrwt>
<pdfrwt beam="2">  1       -2 0.41355504E-01 0.85052046E+03</pdfrwt>
<totfact> 0.28739751E+02</totfact>
</mgrwt>
</event>
<event>
 4    1  0.5917727E-005  0.8096862E+03  0.7818608E-02  0.9546102E-01
          2   -1    0    0  501    0  0.00000000000E+00  0.00000000000E+00  0.25511384260E+04  0.25511384260E+04  0.25500000000E-02 0.  1.
         -2   -1    0    0    0  501 -0.00000000000E+00 -0.00000000000E+00 -0.64245012653E+02  0.64245012704E+02  0.25500000000E-02 0. -1.
    5000001    1    1    2    0    0 -0.26007883995E+03  0.88603926318E+02  0.19875128281E+04  0.20152029428E+04  0.18800000000E+03 0.  0.
   -5000001    1    1    2    0    0  0.26007883995E+03 -0.88603926318E+02  0.49938058520E+03  0.60018049587E+03  0.18800000000E+03 0.  0.
<mgrwt>
<rscale>  0 0.80968616E+03</rscale>
<asrwt>0</asrwt>
<pdfrwt beam="1">  1        2 0.36444821E+00 0.80968616E+03</pdfrwt>
<pdfrwt beam="2">  1       -2 0.91778623E-02 0.80968616E+03</pdfrwt>
<totfact> 0.33616452E+02</totfact>
</mgrwt>
</event>
<event>
 4    1  0.5917727E-005  0.4780281E+03  0.7818608E-02  0.1019679E+00
          2   -1    0    0  501    0  0.00000000000E+00  0.00000000000E+00  0.12110843743E+04  0.12110843743E+04  0.25500000000E-02 0.  1.
         -2   -1    0    0    0  501 -0.00000000000E+00 -0.00000000000E+00 -0.47170712963E+02  0.47170713032E+02  0.25500000000E-02 0. -1.
    5000001    1    1    2    0    0 -0.69153870681E+02 -0.12236638438E+03  0.70049032067E+03  0.73877363191E+03  0.18800000000E+03 0.  0.
   -5000001    1    1    2    0    0  0.69153870681E+02  0.12236638438E+03  0.46342334071E+03  0.51948145547E+03  0.18800000000E+03 0.  0.
<mgrwt>
<rscale>  0 0.47802809E+03</rscale>
<asrwt>0</asrwt>
<pdfrwt beam="1">  1        2 0.17301207E+00 0.47802809E+03</pdfrwt>
<pdfrwt beam="2">  1       -2 0.67386728E-02 0.47802809E+03</pdfrwt>
<totfact> 0.27375113E+03</totfact>
</mgrwt>
</event>
<event>
 4    1  0.5917727E-005  0.6484343E+03  0.7818608E-02  0.9809722E-01
         -2   -1    0    0    0  501 -0.00000000000E+00  0.00000000000E+00  0.95692842384E+02  0.95692842418E+02  0.25500000000E-02 0. -1.
          2   -1    0    0  501    0  0.00000000000E+00 -0.00000000000E+00 -0.10984807614E+04  0.10984807614E+04  0.25500000000E-02 0.  1.
    5000001    1    1    2    0    0 -0.21266940320E+03  0.22906274180E+02 -0.78681499299E+03  0.83676448637E+03  0.18800000000E+03 0.  0.
   -5000001    1    1    2    0    0  0.21266940320E+03 -0.22906274180E+02 -0.21597292600E+03  0.35740911743E+03  0.18800000000E+03 0.  0.
<mgrwt>
<rscale>  0 0.64843426E+03</rscale>
<asrwt>0</asrwt>
<pdfrwt beam="1">  1        2 0.15692582E+00 0.64843426E+03</pdfrwt>
<pdfrwt beam="2">  1       -2 0.13670407E-01 0.64843426E+03</pdfrwt>
<totfact> 0.10089446E+03</totfact>
</mgrwt>
</event>
<event>
 4    1  0.5917727E-005  0.6871716E+03  0.7818608E-02  0.9739425E-01
          2   -1    0    0  501    0  0.00000000000E+00  0.00000000000E+00  0.21652218765E+03  0.21652218767E+03  0.25500000000E-02 0.  1.
         -2   -1    0    0    0  501 -0.00000000000E+00 -0.00000000000E+00 -0.54521532595E+03  0.54521532596E+03  0.25500000000E-02 0. -1.
    5000001    1    1    2    0    0 -0.26867377754E+03  0.90585242735E+02 -0.21769269060E+03  0.40388784641E+03  0.18800000000E+03 0.  0.
   -5000001    1    1    2    0    0  0.26867377754E+03 -0.90585242735E+02 -0.11100044770E+03  0.35784966722E+03  0.18800000000E+03 0.  0.
<mgrwt>
<rscale>  0 0.68717164E+03</rscale>
<asrwt>0</asrwt>
<pdfrwt beam="1">  1        2 0.30931741E-01 0.68717164E+03</pdfrwt>
<pdfrwt beam="2">  1       -2 0.77887903E-01 0.68717164E+03</pdfrwt>
<totfact> 0.25477118E+02</totfact>
</mgrwt>
</event>
<event>
 4    1  0.5917727E-005  0.5232091E+03  0.7818608E-02  0.1007892E+00
         -2   -1    0    0    0  501 -0.00000000000E+00  0.00000000000E+00  0.26768947770E+02  0.26768947891E+02  0.25500000000E-02 0. -1.
          2   -1    0    0  501    0  0.00000000000E+00 -0.00000000000E+00 -0.25565794242E+04  0.25565794242E+04  0.25500000000E-02 0.  1.
    5000001    1    1    2    0    0 -0.82831849900E+02  0.16047950653E+03 -0.11569381176E+04  0.11859446005E+04  0.18800000000E+03 0.  0.
   -5000001    1    1    2    0    0  0.82831849900E+02 -0.16047950653E+03 -0.13728723588E+04  0.13974037717E+04  0.18800000000E+03 0.  0.
<mgrwt>
<rscale>  0 0.52320910E+03</rscale>
<asrwt>0</asrwt>
<pdfrwt beam="1">  1        2 0.36522548E+00 0.52320910E+03</pdfrwt>
<pdfrwt beam="2">  1       -2 0.38241370E-02 0.52320910E+03</pdfrwt>
<totfact> 0.13497106E+03</totfact>
</mgrwt>
</event>
<event>
 4    1  0.5917727E-005  0.9316882E+03  0.7818608E-02  0.9386814E-01
          2   -1    0    0  501    0  0.00000000000E+00  0.00000000000E+00  0.11412671721E+04  0.11412671721E+04  0.25500000000E-02 0.  1.
         -2   -1    0    0    0  501 -0.00000000000E+00 -0.00000000000E+00 -0.19014891220E+03  0.19014891221E+03  0.25500000000E-02 0. -1.
    5000001    1    1    2    0    0 -0.50782399707E+02  0.39649494485E+03  0.68693873635E+03  0.81671042659E+03  0.18800000000E+03 0.  0.
   -5000001    1    1    2    0    0  0.50782399707E+02 -0.39649494485E+03  0.26417952353E+03  0.51470565769E+03  0.18800000000E+03 0.  0.
<mgrwt>
<rscale>  0 0.93168817E+03</rscale>
<asrwt>0</asrwt>
<pdfrwt beam="1">  1        2 0.16303816E+00 0.93168817E+03</pdfrwt>
<pdfrwt beam="2">  1       -2 0.27164131E-01 0.93168817E+03</pdfrwt>
<totfact> 0.28426888E+02</totfact>
</mgrwt>
</event>
<event>
 4    1  0.5917727E-005  0.5705120E+03  0.7818608E-02  0.9968546E-01
         -2   -1    0    0    0  501 -0.00000000000E+00  0.00000000000E+00  0.67325214471E+02  0.67325214519E+02  0.25500000000E-02 0. -1.
          2   -1    0    0  501    0  0.00000000000E+00 -0.00000000000E+00 -0.12086259205E+04  0.12086259205E+04  0.25500000000E-02 0.  1.
    5000001    1    1    2    0    0 -0.19120464597E+03  0.96549460255E+02 -0.59767266402E+03  0.66214622874E+03  0.18800000000E+03 0.  0.
   -5000001    1    1    2    0    0  0.19120464597E+03 -0.96549460255E+02 -0.54362804201E+03  0.61380490629E+03  0.18800000000E+03 0.  0.
<mgrwt>
<rscale>  0 0.57051205E+03</rscale>
<asrwt>0</asrwt>
<pdfrwt beam="1">  1        2 0.17266083E+00 0.57051205E+03</pdfrwt>
<pdfrwt beam="2">  1       -2 0.96178885E-02 0.57051205E+03</pdfrwt>
<totfact> 0.15576941E+03</totfact>
</mgrwt>
</event>
<event>
 4    1  0.5917727E-005  0.7699359E+03  0.7818608E-02  0.9604583E-01
          2   -1    0    0  501    0  0.00000000000E+00  0.00000000000E+00  0.11113589879E+04  0.11113589879E+04  0.25500000000E-02 0.  1.
         -2   -1    0    0    0  501 -0.00000000000E+00 -0.00000000000E+00 -0.13335052805E+03  0.13335052807E+03  0.25500000000E-02 0. -1.
    5000001    1    1    2    0    0 -0.14927097082E+03 -0.28633088677E+03  0.63883034014E+03  0.74007797085E+03  0.18800000000E+03 0.  0.
   -5000001    1    1    2    0    0  0.14927097082E+03  0.28633088677E+03  0.33917811971E+03  0.50463154513E+03  0.18800000000E+03 0.  0.
<mgrwt>
<rscale>  0 0.76993586E+03</rscale>
<asrwt>0</asrwt>
<pdfrwt beam="1">  1        2 0.15876557E+00 0.76993586E+03</pdfrwt>
<pdfrwt beam="2">  1       -2 0.19050076E-01 0.76993586E+03</pdfrwt>
<totfact> 0.56114871E+02</totfact>
</mgrwt>
</event>
<event>
 4    1  0.5917727E-005  0.4761750E+03  0.7818608E-02  0.1020192E+00
         -2   -1    0    0    0  501 -0.00000000000E+00  0.00000000000E+00  0.88820143094E+03  0.88820143094E+03  0.25500000000E-02 0. -1.
          2   -1    0    0  501    0  0.00000000000E+00 -0.00000000000E+00 -0.63820730173E+02  0.63820730224E+02  0.25500000000E-02 0.  1.
    5000001    1    1    2    0    0 -0.12989263409E+03 -0.62082064332E+02  0.46178716922E+03  0.51895825339E+03  0.18800000000E+03 0.  0.
   -5000001    1    1    2    0    0  0.12989263409E+03  0.62082064332E+02  0.36259353154E+03  0.43306390778E+03  0.18800000000E+03 0.  0.
<mgrwt>
<rscale>  0 0.47617503E+03</rscale>
<asrwt>0</asrwt>
<pdfrwt beam="1">  1        2 0.91172479E-02 0.47617503E+03</pdfrwt>
<pdfrwt beam="2">  1       -2 0.12688591E+00 0.47617503E+03</pdfrwt>
<totfact> 0.34983443E+02</totfact>
</mgrwt>
</event>
<event>
 4    1  0.5917727E-005  0.4869175E+03  0.7818608E-02  0.1017251E+00
          2   -1    0    0  501    0  0.00000000000E+00  0.00000000000E+00  0.18580838983E+03  0.18580838985E+03  0.25500000000E-02 0.  1.
         -2   -1    0    0    0  501 -0.00000000000E+00 -0.00000000000E+00 -0.31899617876E+03  0.31899617877E+03  0.25500000000E-02 0. -1.
    5000001    1    1    2    0    0 -0.14555535122E+03 -0.42791039238E+02 -0.35306930186E+02  0.24414752226E+03  0.18800000000E+03 0.  0.
   -5000001    1    1    2    0    0  0.14555535122E+03  0.42791039238E+02 -0.97880858740E+02  0.26065704636E+03  0.18800000000E+03 0.  0.
<mgrwt>
<rscale>  0 0.48691751E+03</rscale>
<asrwt>0</asrwt>
<pdfrwt beam="1">  1        2 0.26544056E-01 0.48691751E+03</pdfrwt>
<pdfrwt beam="2">  1       -2 0.45570883E-01 0.48691751E+03</pdfrwt>
<totfact> 0.93634733E+02</totfact>
</mgrwt>
</event>
<event>
 4    1  0.5917727E-005  0.4555995E+03  0.7818608E-02  0.1026065E+00
          2   -1    0    0  501    0  0.00000000000E+00  0.00000000000E+00  0.60202525545E+03  0.60202525546E+03  0.25500000000E-02 0.  1.
         -2   -1    0    0    0  501 -0.00000000000E+00 -0.00000000000E+00 -0.86196935832E+02  0.86196935870E+02  0.25500000000E-02 0. -1.
    5000001    1    1    2    0    0 -0.63849925505E+02  0.98537574002E+02  0.17852190354E+03  0.28460593198E+03  0.18800000000E+03 0.  0.
   -5000001    1    1    2    0    0  0.63849925505E+02 -0.98537574002E+02  0.33730641608E+03  0.40361625935E+03  0.18800000000E+03 0.  0.
<mgrwt>
<rscale>  0 0.45559953E+03</rscale>
<asrwt>0</asrwt>
<pdfrwt beam="1">  1        2 0.86003605E-01 0.45559953E+03</pdfrwt>
<pdfrwt beam="2">  1       -2 0.12313848E-01 0.45559953E+03</pdfrwt>
<totfact> 0.26158255E+03</totfact>
</mgrwt>
</event>
<event>
 4    1  0.5917727E-005  0.4941545E+03  0.7818608E-02  0.1015316E+00
         -2   -1    0    0    0  501 -0.00000000000E+00  0.00000000000E+00  0.18798762386E+02  0.18798762559E+02  0.25500000000E-02 0. -1.
          2   -1    0    0  501    0  0.00000000000E+00 -0.00000000000E+00 -0.32474031834E+04  0.32474031834E+04  0.25500000000E-02 0.  1.
    5000001    1    1    2    0    0  0.93173255330E+02  0.12707917357E+03 -0.14190324509E+04  0.14400789800E+04  0.18800000000E+03 0.  0.
   -5000001    1    1    2    0    0 -0.93173255330E+02 -0.12707917357E+03 -0.18095719701E+04  0.18261229660E+04  0.18800000000E+03 0.  0.
<mgrwt>
<rscale>  0 0.49415447E+03</rscale>
<asrwt>0</asrwt>
<pdfrwt beam="1">  1        2 0.46391438E+00 0.49415447E+03</pdfrwt>
<pdfrwt beam="2">  1       -2 0.26855396E-02 0.49415447E+03</pdfrwt>
<totfact> 0.98761167E+02</totfact>
</mgrwt>
</event>
<event>
 4    1  0.5917727E-005  0.4772261E+03  0.7818608E-02  0.1019900E+00
          2   -1    0    0  501    0  0.00000000000E+00  0.00000000000E+00  0.10204126295E+04  0.10204126295E+04  0.25500000000E-02 0.  1.
         -2   -1    0    0    0  501 -0.00000000000E+00 -0.00000000000E+00 -0.55797225233E+02  0.55797225291E+02  0.25500000000E-02 0. -1.
    5000001    1    1    2    0    0 -0.19141880093E+02  0.96085177458E+02  0.23533765507E+03  0.31674372100E+03  0.18800000000E+03 0.  0.
   -5000001    1    1    2    0    0  0.19141880093E+02 -0.96085177458E+02  0.72927774919E+03  0.75946613378E+03  0.18800000000E+03 0.  0.
<mgrwt>
<rscale>  0 0.47722612E+03</rscale>
<asrwt>0</asrwt>
<pdfrwt beam="1">  1        2 0.14577324E+00 0.47722612E+03</pdfrwt>
<pdfrwt beam="2">  1       -2 0.79710317E-02 0.47722612E+03</pdfrwt>
<totfact> 0.27027438E+03</totfact>
</mgrwt>
</event>
<event>
 4    1  0.5917727E-005  0.7716253E+03  0.7818608E-02  0.9602021E-01
          2   -1    0    0  501    0  0.00000000000E+00  0.00000000000E+00  0.96835996195E+03  0.96835996196E+03  0.25500000000E-02 0.  1.
         -2   -1    0    0    0  501 -0.00000000000E+00 -0.00000000000E+00 -0.15371495003E+03  0.15371495005E+03  0.25500000000E-02 0. -1.
    5000001    1    1    2    0    0  0.11721371163E+03 -0.24377852801E+03  0.69939144511E+03  0.77308435400E+03  0.18800000000E+03 0.  0.
   -5000001    1    1    2    0    0 -0.11721371163E+03  0.24377852801E+03  0.11525356681E+03  0.34899055800E+03  0.18800000000E+03 0.  0.
<mgrwt>
<rscale>  0 0.77162531E+03</rscale>
<asrwt>0</asrwt>
<pdfrwt beam="1">  1        2 0.13833714E+00 0.77162531E+03</pdfrwt>
<pdfrwt beam="2">  1       -2 0.21959279E-01 0.77162531E+03</pdfrwt>
<totfact> 0.53333251E+02</totfact>
</mgrwt>
</event>
<event>
 4    1  0.5917727E-005  0.6722897E+03  0.7818608E-02  0.9765830E-01
         -2   -1    0    0    0  501 -0.00000000000E+00  0.00000000000E+00  0.31474918477E+03  0.31474918478E+03  0.25500000000E-02 0. -1.
          2   -1    0    0  501    0  0.00000000000E+00 -0.00000000000E+00 -0.35899492352E+03  0.35899492353E+03  0.25500000000E-02 0.  1.
    5000001    1    1    2    0    0  0.58096750372E+02 -0.26824129997E+03  0.26155326201E+02  0.33370155603E+03  0.18800000000E+03 0.  0.
   -5000001    1    1    2    0    0 -0.58096750372E+02  0.26824129997E+03 -0.70401064953E+02  0.34004255228E+03  0.18800000000E+03 0.  0.
<mgrwt>
<rscale>  0 0.67228970E+03</rscale>
<asrwt>0</asrwt>
<pdfrwt beam="1">  1        2 0.51284989E-01 0.67228970E+03</pdfrwt>
<pdfrwt beam="2">  1       -2 0.44964169E-01 0.67228970E+03</pdfrwt>
<totfact> 0.46135838E+02</totfact>
</mgrwt>
</event>
<event>
 4    1  0.5917727E-005  0.5097365E+03  0.7818608E-02  0.1011268E+00
         -2   -1    0    0    0  501 -0.00000000000E+00  0.00000000000E+00  0.98897745924E+02  0.98897745957E+02  0.25500000000E-02 0. -1.
          2   -1    0    0  501    0  0.00000000000E+00 -0.00000000000E+00 -0.65681813003E+03  0.65681813004E+03  0.25500000000E-02 0.  1.
    5000001    1    1    2    0    0  0.11817722431E+03  0.11436865081E+03 -0.20383382920E+03  0.32239459449E+03  0.18800000000E+03 0.  0.
   -5000001    1    1    2    0    0 -0.11817722431E+03 -0.11436865081E+03 -0.35408655491E+03  0.43332128150E+03  0.18800000000E+03 0.  0.
<mgrwt>
<rscale>  0 0.50973653E+03</rscale>
<asrwt>0</asrwt>
<pdfrwt beam="1">  1        2 0.93831159E-01 0.50973653E+03</pdfrwt>
<pdfrwt beam="2">  1       -2 0.14128250E-01 0.50973653E+03</pdfrwt>
<totfact> 0.18817018E+03</totfact>
</mgrwt>
</event>
<event>
 4    1  0.5917727E-005  0.1372860E+04  0.7818608E-02  0.8973701E-01
         -2   -1    0    0    0  501 -0.00000000000E+00  0.00000000000E+00  0.68464018486E+03  0.68464018486E+03  0.25500000000E-02 0. -1.
          2   -1    0    0  501    0  0.00000000000E+00 -0.00000000000E+00 -0.68822481943E+03  0.68822481943E+03  0.25500000000E-02 0.  1.
    5000001    1    1    2    0    0 -0.60405534917E+03  0.79458023466E+02 -0.25604881373E+03  0.68709638142E+03  0.18800000000E+03 0.  0.
   -5000001    1    1    2    0    0  0.60405534917E+03 -0.79458023466E+02  0.25246417916E+03  0.68576862287E+03  0.18800000000E+03 0.  0.
<mgrwt>
<rscale>  0 0.13728603E+04</rscale>
<asrwt>0</asrwt>
<pdfrwt beam="1">  1        2 0.98317832E-01 0.13728603E+04</pdfrwt>
<pdfrwt beam="2">  1       -2 0.97805740E-01 0.13728603E+04</pdfrwt>
<totfact> 0.39085641E+01</totfact>
</mgrwt>
</event>
<event>
 4    1  0.5917727E-005  0.5723296E+03  0.7818608E-02  0.9964537E-01
         -2   -1    0    0    0  501 -0.00000000000E+00  0.00000000000E+00  0.15862400421E+02  0.15862400626E+02  0.25500000000E-02 0.  1.
          2   -1    0    0  501    0  0.00000000000E+00 -0.00000000000E+00 -0.51625406750E+04  0.51625406750E+04  0.25500000000E-02 0. -1.
    5000001    1    1    2    0    0 -0.20233265146E+03  0.56170464587E+02 -0.21252455058E+04  0.21438530926E+04  0.18800000000E+03 0.  0.
   -5000001    1    1    2    0    0  0.20233265146E+03 -0.56170464587E+02 -0.30214327688E+04  0.30345499830E+04  0.18800000000E+03 0.  0.
<mgrwt>
<rscale>  0 0.57232958E+03</rscale>
<asrwt>0</asrwt>
<pdfrwt beam="1">  1        2 0.73750474E+00 0.57232958E+03</pdfrwt>
<pdfrwt beam="2">  1       -2 0.22660605E-02 0.57232958E+03</pdfrwt>
<totfact> 0.50296424E+01</totfact>
</mgrwt>
</event>
<event>
 4    1  0.5917727E-005  0.6428798E+03  0.7818608E-02  0.9820232E-01
          2   -1    0    0  501    0  0.00000000000E+00  0.00000000000E+00  0.87787735747E+03  0.87787735748E+03  0.25500000000E-02 0.  1.
         -2   -1    0    0    0  501 -0.00000000000E+00 -0.00000000000E+00 -0.11769707270E+03  0.11769707272E+03  0.25500000000E-02 0. -1.
    5000001    1    1    2    0    0 -0.85171624289E+02  0.17970366966E+03  0.11896569043E+03  0.29840316683E+03  0.18800000000E+03 0.  0.
   -5000001    1    1    2    0    0  0.85171624289E+02 -0.17970366966E+03  0.64121459434E+03  0.69717126337E+03  0.18800000000E+03 0.  0.
<mgrwt>
<rscale>  0 0.64287976E+03</rscale>
<asrwt>0</asrwt>
<pdfrwt beam="1">  1        2 0.12541106E+00 0.64287976E+03</pdfrwt>
<pdfrwt beam="2">  1       -2 0.16813867E-01 0.64287976E+03</pdfrwt>
<totfact> 0.97322301E+02</totfact>
</mgrwt>
</event>
<event>
 4    1  0.5917727E-005  0.1927750E+04  0.7818608E-02  0.8641165E-01
          2   -1    0    0  501    0  0.00000000000E+00  0.00000000000E+00  0.11879761098E+04  0.11879761098E+04  0.25500000000E-02 0.  1.
         -2   -1    0    0    0  501 -0.00000000000E+00 -0.00000000000E+00 -0.78204850364E+03  0.78204850364E+03  0.25500000000E-02 0. -1.
    5000001    1    1    2    0    0 -0.70629432231E+03  0.47170779356E+03  0.62721970820E+03  0.10724311048E+04  0.18800000000E+03 0.  0.
   -5000001    1    1    2    0    0  0.70629432231E+03 -0.47170779356E+03 -0.22129210206E+03  0.89759350860E+03  0.18800000000E+03 0.  0.
<mgrwt>
<rscale>  0 0.19277499E+04</rscale>
<asrwt>0</asrwt>
<pdfrwt beam="1">  1        2 0.16971087E+00 0.19277499E+04</pdfrwt>
<pdfrwt beam="2">  1       -2 0.11172121E+00 0.19277499E+04</pdfrwt>
<totfact> 0.12887234E+01</totfact>
</mgrwt>
</event>
<event>
 4    1  0.5917727E-005  0.6445718E+03  0.7818608E-02  0.9817019E-01
         -2   -1    0    0    0  501 -0.00000000000E+00  0.00000000000E+00  0.91938140162E+02  0.91938140197E+02  0.25500000000E-02 0. -1.
          2   -1    0    0  501    0  0.00000000000E+00 -0.00000000000E+00 -0.11297617199E+04  0.11297617199E+04  0.25500000000E-02 0.  1.
    5000001    1    1    2    0    0  0.15471086578E+03 -0.15882663643E+03 -0.78265285770E+03  0.83489571091E+03  0.18800000000E+03 0.  0.
   -5000001    1    1    2    0    0 -0.15471086578E+03  0.15882663643E+03 -0.25517072199E+03  0.38680414914E+03  0.18800000000E+03 0.  0.
<mgrwt>
<rscale>  0 0.64457177E+03</rscale>
<asrwt>0</asrwt>
<pdfrwt beam="1">  1        2 0.16139452E+00 0.64457177E+03</pdfrwt>
<pdfrwt beam="2">  1       -2 0.13134021E-01 0.64457177E+03</pdfrwt>
<totfact> 0.10345433E+03</totfact>
</mgrwt>
</event>
<event>
 4    1  0.5917727E-005  0.6516555E+03  0.7818608E-02  0.9803678E-01
         -2   -1    0    0    0  501 -0.00000000000E+00  0.00000000000E+00  0.58924779020E+02  0.58924779075E+02  0.25500000000E-02 0. -1.
          2   -1    0    0  501    0  0.00000000000E+00 -0.00000000000E+00 -0.18016823228E+04  0.18016823228E+04  0.25500000000E-02 0.  1.
    5000001    1    1    2    0    0  0.25435294959E+02 -0.22881872920E+03 -0.12524679978E+04  0.12872548507E+04  0.18800000000E+03 0.  0.
   -5000001    1    1    2    0    0 -0.25435294959E+02  0.22881872920E+03 -0.49028954597E+03  0.57335225119E+03  0.18800000000E+03 0.  0.
<mgrwt>
<rscale>  0 0.65165553E+03</rscale>
<asrwt>0</asrwt>
<pdfrwt beam="1">  1        2 0.25738316E+00 0.65165553E+03</pdfrwt>
<pdfrwt beam="2">  1       -2 0.84178267E-02 0.65165553E+03</pdfrwt>
<totfact> 0.93975361E+02</totfact>
</mgrwt>
</event>
<event>
 4    1  0.5917727E-005  0.4905687E+03  0.7818608E-02  0.1016270E+00
         -2   -1    0    0    0  501 -0.00000000000E+00  0.00000000000E+00  0.18538245304E+02  0.18538245480E+02  0.25500000000E-02 0. -1.
          2   -1    0    0  501    0  0.00000000000E+00 -0.00000000000E+00 -0.32454205760E+04  0.32454205760E+04  0.25500000000E-02 0.  1.
    5000001    1    1    2    0    0  0.63955881730E+02 -0.40241258518E+02 -0.25332192252E+04  0.25413093784E+04  0.18800000000E+03 0.  0.
   -5000001    1    1    2    0    0 -0.63955881730E+02  0.40241258518E+02 -0.69366310550E+03  0.72264944311E+03  0.18800000000E+03 0.  0.
<mgrwt>
<rscale>  0 0.49056866E+03</rscale>
<asrwt>0</asrwt>
<pdfrwt beam="1">  1        2 0.46363115E+00 0.49056866E+03</pdfrwt>
<pdfrwt beam="2">  1       -2 0.26483228E-02 0.49056866E+03</pdfrwt>
<totfact> 0.10115982E+03</totfact>
</mgrwt>
</event>
<event>
 4    1  0.5917727E-005  0.7898938E+03  0.7818608E-02  0.9574762E-01
          2   -1    0    0  501    0  0.00000000000E+00  0.00000000000E+00  0.58647043463E+03  0.58647043463E+03  0.25500000000E-02 0. -1.
         -2   -1    0    0    0  501 -0.00000000000E+00 -0.00000000000E+00 -0.26596915836E+03  0.26596915838E+03  0.25500000000E-02 0.  1.
    5000001    1    1    2    0    0  0.25976283334E+03  0.10120014875E+03 -0.63327360555E+02  0.34215866829E+03  0.18800000000E+03 0.  0.
   -5000001    1    1    2    0    0 -0.25976283334E+03 -0.10120014875E+03  0.38382863682E+03  0.51028092472E+03  0.18800000000E+03 0.  0.
<mgrwt>
<rscale>  0 0.78989379E+03</rscale>
<asrwt>0</asrwt>
<pdfrwt beam="1">  1        2 0.83781490E-01 0.78989379E+03</pdfrwt>
<pdfrwt beam="2">  1       -2 0.37995594E-01 0.78989379E+03</pdfrwt>
<totfact> 0.36620817E+02</totfact>
</mgrwt>
</event>
<event>
 4    1  0.5917727E-005  0.8712781E+03  0.7818608E-02  0.9462215E-01
          2   -1    0    0  501    0  0.00000000000E+00  0.00000000000E+00  0.13647198118E+04  0.13647198118E+04  0.25500000000E-02 0.  1.
         -2   -1    0    0    0  501 -0.00000000000E+00 -0.00000000000E+00 -0.13906252757E+03  0.13906252760E+03  0.25500000000E-02 0. -1.
    5000001    1    1    2    0    0  0.30314157833E+03  0.13616467974E+03  0.97487413995E+03  0.10469762296E+04  0.18800000000E+03 0.  0.
   -5000001    1    1    2    0    0 -0.30314157833E+03 -0.13616467974E+03  0.25078314425E+03  0.45680610981E+03  0.18800000000E+03 0.  0.
<mgrwt>
<rscale>  0 0.87127811E+03</rscale>
<asrwt>0</asrwt>
<pdfrwt beam="1">  1        2 0.19495997E+00 0.87127811E+03</pdfrwt>
<pdfrwt beam="2">  1       -2 0.19866076E-01 0.87127811E+03</pdfrwt>
<totfact> 0.37429896E+02</totfact>
</mgrwt>
</event>
<event>
 4    1  0.5917727E-005  0.9747249E+03  0.7818608E-02  0.9336709E-01
         -2   -1    0    0    0  501 -0.00000000000E+00  0.00000000000E+00  0.38527523757E+03  0.38527523758E+03  0.25500000000E-02 0. -1.
          2   -1    0    0  501    0  0.00000000000E+00 -0.00000000000E+00 -0.61649988101E+03  0.61649988101E+03  0.25500000000E-02 0.  1.
    5000001    1    1    2    0    0  0.26061354333E+03 -0.36249218456E+03 -0.17055750034E+03  0.51356972628E+03  0.18800000000E+03 0.  0.
   -5000001    1    1    2    0    0 -0.26061354333E+03  0.36249218456E+03 -0.60667143095E+02  0.48820539231E+03  0.18800000000E+03 0.  0.
<mgrwt>
<rscale>  0 0.97472486E+03</rscale>
<asrwt>0</asrwt>
<pdfrwt beam="1">  1        2 0.88071411E-01 0.97472486E+03</pdfrwt>
<pdfrwt beam="2">  1       -2 0.55039320E-01 0.97472486E+03</pdfrwt>
<totfact> 0.16305714E+02</totfact>
</mgrwt>
</event>
<event>
 4    1  0.5917727E-005  0.1250659E+04  0.7818608E-02  0.9069635E-01
          2   -1    0    0  501    0  0.00000000000E+00  0.00000000000E+00  0.50206547051E+03  0.50206547052E+03  0.25500000000E-02 0.  1.
         -2   -1    0    0    0  501 -0.00000000000E+00 -0.00000000000E+00 -0.77885628906E+03  0.77885628906E+03  0.25500000000E-02 0. -1.
    5000001    1    1    2    0    0  0.19312565867E+02  0.59598857822E+03 -0.14949691150E+03  0.64285977251E+03  0.18800000000E+03 0.  0.
   -5000001    1    1    2    0    0 -0.19312565867E+02 -0.59598857822E+03 -0.12729390705E+03  0.63806198707E+03  0.18800000000E+03 0.  0.
<mgrwt>
<rscale>  0 0.12506588E+04</rscale>
<asrwt>0</asrwt>
<pdfrwt beam="1">  1        2 0.71723639E-01 0.12506588E+04</pdfrwt>
<pdfrwt beam="2">  1       -2 0.11126518E+00 0.12506588E+04</pdfrwt>
<totfact> 0.42046512E+01</totfact>
</mgrwt>
</event>
<event>
 4    1  0.5917727E-005  0.6182672E+03  0.7818608E-02  0.9868216E-01
          2   -1    0    0  501    0  0.00000000000E+00  0.00000000000E+00  0.29056312885E+04  0.29056312885E+04  0.25500000000E-02 0.  1.
         -2   -1    0    0    0  501 -0.00000000000E+00 -0.00000000000E+00 -0.32889094716E+02  0.32889094815E+02  0.25500000000E-02 0. -1.
    5000001    1    1    2    0    0 -0.14032244235E+03 -0.14526818324E+03  0.20988134691E+04  0.21168739242E+04  0.18800000000E+03 0.  0.
   -5000001    1    1    2    0    0  0.14032244235E+03  0.14526818324E+03  0.77392872472E+03  0.82164645915E+03  0.18800000000E+03 0.  0.
<mgrwt>
<rscale>  0 0.61826720E+03</rscale>
<asrwt>0</asrwt>
<pdfrwt beam="1">  1        2 0.41508994E+00 0.61826720E+03</pdfrwt>
<pdfrwt beam="2">  1       -2 0.46984449E-02 0.61826720E+03</pdfrwt>
<totfact> 0.63998466E+02</totfact>
</mgrwt>
</event>
<event>
 4    1  0.5917727E-005  0.5611992E+03  0.7818608E-02  0.9989345E-01
         -2   -1    0    0    0  501 -0.00000000000E+00  0.00000000000E+00  0.57086550654E+02  0.57086550711E+02  0.25500000000E-02 0. -1.
          2   -1    0    0  501    0  0.00000000000E+00 -0.00000000000E+00 -0.13792414532E+04  0.13792414532E+04  0.25500000000E-02 0.  1.
    5000001    1    1    2    0    0  0.14064962671E+03 -0.11451692817E+03 -0.39887174700E+03  0.47680091746E+03  0.18800000000E+03 0.  0.
   -5000001    1    1    2    0    0 -0.14064962671E+03  0.11451692817E+03 -0.92328315549E+03  0.95952708641E+03  0.18800000000E+03 0.  0.
<mgrwt>
<rscale>  0 0.56119921E+03</rscale>
<asrwt>0</asrwt>
<pdfrwt beam="1">  1        2 0.19703447E+00 0.56119921E+03</pdfrwt>
<pdfrwt beam="2">  1       -2 0.81552224E-02 0.56119921E+03</pdfrwt>
<totfact> 0.16392674E+03</totfact>
</mgrwt>
</event>
<event>
 4    1  0.5917727E-005  0.5142620E+03  0.7818608E-02  0.1010122E+00
          2   -1    0    0  501    0  0.00000000000E+00  0.00000000000E+00  0.32546703073E+03  0.32546703074E+03  0.25500000000E-02 0.  1.
         -2   -1    0    0    0  501 -0.00000000000E+00 -0.00000000000E+00 -0.20314297172E+03  0.20314297174E+03  0.25500000000E-02 0. -1.
    5000001    1    1    2    0    0  0.15118204082E+03  0.78535928190E+02  0.10414299236E+03  0.27425109725E+03  0.18800000000E+03 0.  0.
   -5000001    1    1    2    0    0 -0.15118204082E+03 -0.78535928190E+02  0.18181066652E+02  0.25435890523E+03  0.18800000000E+03 0.  0.
<mgrwt>
<rscale>  0 0.51426196E+03</rscale>
<asrwt>0</asrwt>
<pdfrwt beam="1">  1        2 0.46495290E-01 0.51426196E+03</pdfrwt>
<pdfrwt beam="2">  1       -2 0.29020424E-01 0.51426196E+03</pdfrwt>
<totfact> 0.11870282E+03</totfact>
</mgrwt>
</event>
<event>
 4    1  0.5917727E-005  0.7123865E+03  0.7818608E-02  0.9696281E-01
         -2   -1    0    0    0  501 -0.00000000000E+00  0.00000000000E+00  0.35294339377E+02  0.35294339469E+02  0.25500000000E-02 0. -1.
          2   -1    0    0  501    0  0.00000000000E+00 -0.00000000000E+00 -0.35947301506E+04  0.35947301506E+04  0.25500000000E-02 0.  1.
    5000001    1    1    2    0    0  0.29122591242E+03  0.55559290635E+02 -0.20867351025E+04  0.21160592513E+04  0.18800000000E+03 0.  0.
   -5000001    1    1    2    0    0 -0.29122591242E+03 -0.55559290635E+02 -0.14727007086E+04  0.15139652387E+04  0.18800000000E+03 0.  0.
<mgrwt>
<rscale>  0 0.71238649E+03</rscale>
<asrwt>0</asrwt>
<pdfrwt beam="1">  1        2 0.51353264E+00 0.71238649E+03</pdfrwt>
<pdfrwt beam="2">  1       -2 0.50420508E-02 0.71238649E+03</pdfrwt>
<totfact> 0.22994997E+02</totfact>
</mgrwt>
</event>
<event>
 4    1  0.5917727E-005  0.4627195E+03  0.7818608E-02  0.1023995E+00
         -2   -1    0    0    0  501 -0.00000000000E+00  0.00000000000E+00  0.54305570433E+03  0.54305570434E+03  0.25500000000E-02 0. -1.
          2   -1    0    0  501    0  0.00000000000E+00 -0.00000000000E+00 -0.98566917681E+02  0.98566917714E+02  0.25500000000E-02 0.  1.
    5000001    1    1    2    0    0 -0.12738870198E+03 -0.43623009338E+02  0.21219932409E+03  0.31385251550E+03  0.18800000000E+03 0.  0.
   -5000001    1    1    2    0    0  0.12738870198E+03  0.43623009338E+02  0.23228946256E+03  0.32777010656E+03  0.18800000000E+03 0.  0.
<mgrwt>
<rscale>  0 0.46271947E+03</rscale>
<asrwt>0</asrwt>
<pdfrwt beam="1">  1        2 0.14080988E-01 0.46271947E+03</pdfrwt>
<pdfrwt beam="2">  1       -2 0.77579387E-01 0.46271947E+03</pdfrwt>
<totfact> 0.64563085E+02</totfact>
</mgrwt>
</event>
<event>
 4    1  0.5917727E-005  0.1083699E+04  0.7818608E-02  0.9221227E-01
          2   -1    0    0  501    0  0.00000000000E+00  0.00000000000E+00  0.11626925936E+04  0.11626925936E+04  0.25500000000E-02 0.  1.
         -2   -1    0    0    0  501 -0.00000000000E+00 -0.00000000000E+00 -0.25251799243E+03  0.25251799245E+03  0.25500000000E-02 0. -1.
    5000001    1    1    2    0    0 -0.42582898885E+02  0.50030744167E+03  0.55738213872E+03  0.77339491079E+03  0.18800000000E+03 0.  0.
   -5000001    1    1    2    0    0  0.42582898885E+02 -0.50030744167E+03  0.35279246249E+03  0.64181567530E+03  0.18800000000E+03 0.  0.
<mgrwt>
<rscale>  0 0.10836989E+04</rscale>
<asrwt>0</asrwt>
<pdfrwt beam="1">  1        2 0.16609894E+00 0.10836989E+04</pdfrwt>
<pdfrwt beam="2">  1       -2 0.36074000E-01 0.10836989E+04</pdfrwt>
<totfact> 0.16102754E+02</totfact>
</mgrwt>
</event>
<event>
 4    1  0.5917727E-005  0.6431602E+03  0.7818608E-02  0.9819699E-01
          2   -1    0    0  501    0  0.00000000000E+00  0.00000000000E+00  0.83151426232E+02  0.83151426271E+02  0.25500000000E-02 0.  1.
         -2   -1    0    0    0  501 -0.00000000000E+00 -0.00000000000E+00 -0.12436799165E+04  0.12436799165E+04  0.25500000000E-02 0. -1.
    5000001    1    1    2    0    0 -0.34120155617E+02  0.25834545207E+03 -0.55390953241E+03  0.64036421490E+03  0.18800000000E+03 0.  0.
   -5000001    1    1    2    0    0  0.34120155617E+02 -0.25834545207E+03 -0.60661895786E+03  0.68646712788E+03  0.18800000000E+03 0.  0.
<mgrwt>
<rscale>  0 0.64316019E+03</rscale>
<asrwt>0</asrwt>
<pdfrwt beam="1">  1        2 0.11878776E-01 0.64316019E+03</pdfrwt>
<pdfrwt beam="2">  1       -2 0.17766855E+00 0.64316019E+03</pdfrwt>
<totfact> 0.10259352E+02</totfact>
</mgrwt>
</event>
<event>
 4    1  0.5917727E-005  0.7065318E+03  0.7818608E-02  0.9706127E-01
         -2   -1    0    0    0  501 -0.00000000000E+00  0.00000000000E+00  0.17360472480E+03  0.17360472482E+03  0.25500000000E-02 0. -1.
          2   -1    0    0  501    0  0.00000000000E+00 -0.00000000000E+00 -0.71885600036E+03  0.71885600037E+03  0.25500000000E-02 0.  1.
    5000001    1    1    2    0    0  0.10651926031E+03  0.20260544380E+03 -0.29463846418E+02  0.29767001347E+03  0.18800000000E+03 0.  0.
   -5000001    1    1    2    0    0 -0.10651926031E+03 -0.20260544380E+03 -0.51578742915E+03  0.59479071171E+03  0.18800000000E+03 0.  0.
<mgrwt>
<rscale>  0 0.70653181E+03</rscale>
<asrwt>0</asrwt>
<pdfrwt beam="1">  1        2 0.10269371E+00 0.70653181E+03</pdfrwt>
<pdfrwt beam="2">  1       -2 0.24800675E-01 0.70653181E+03</pdfrwt>
<totfact> 0.63549087E+02</totfact>
</mgrwt>
</event>
<event>
 4    1  0.5917727E-005  0.4905042E+03  0.7818608E-02  0.1016288E+00
         -2   -1    0    0    0  501 -0.00000000000E+00  0.00000000000E+00  0.84523274160E+02  0.84523274199E+02  0.25500000000E-02 0. -1.
          2   -1    0    0  501    0  0.00000000000E+00 -0.00000000000E+00 -0.71162159965E+03  0.71162159966E+03  0.25500000000E-02 0.  1.
    5000001    1    1    2    0    0 -0.11893622179E+03 -0.10282689212E+03 -0.29855022547E+03  0.38625824486E+03  0.18800000000E+03 0.  0.
   -5000001    1    1    2    0    0  0.11893622179E+03  0.10282689212E+03 -0.32854810002E+03  0.40988662899E+03  0.18800000000E+03 0.  0.
<mgrwt>
<rscale>  0 0.49050418E+03</rscale>
<asrwt>0</asrwt>
<pdfrwt beam="1">  1        2 0.10166023E+00 0.49050418E+03</pdfrwt>
<pdfrwt beam="2">  1       -2 0.12074754E-01 0.49050418E+03</pdfrwt>
<totfact> 0.22142334E+03</totfact>
</mgrwt>
</event>
<event>
 4    1  0.5917727E-005  0.1057670E+04  0.7818608E-02  0.9247461E-01
          2   -1    0    0  501    0  0.00000000000E+00  0.00000000000E+00  0.14497028313E+04  0.14497028313E+04  0.25500000000E-02 0.  1.
         -2   -1    0    0    0  501 -0.00000000000E+00 -0.00000000000E+00 -0.19291293388E+03  0.19291293390E+03  0.25500000000E-02 0. -1.
    5000001    1    1    2    0    0 -0.27114182900E+03 -0.34756885970E+03  0.28112063414E+03  0.55560310889E+03  0.18800000000E+03 0.  0.
   -5000001    1    1    2    0    0  0.27114182900E+03  0.34756885970E+03  0.97566926328E+03  0.10870126563E+04  0.18800000000E+03 0.  0.
<mgrwt>
<rscale>  0 0.10576699E+04</rscale>
<asrwt>0</asrwt>
<pdfrwt beam="1">  1        2 0.20710040E+00 0.10576699E+04</pdfrwt>
<pdfrwt beam="2">  1       -2 0.27558991E-01 0.10576699E+04</pdfrwt>
<totfact> 0.18541472E+02</totfact>
</mgrwt>
</event>
<event>
 4    1  0.5917727E-005  0.7273965E+03  0.7818608E-02  0.9671495E-01
          2   -1    0    0  501    0  0.00000000000E+00  0.00000000000E+00  0.27016025165E+04  0.27016025165E+04  0.25500000000E-02 0.  1.
         -2   -1    0    0    0  501 -0.00000000000E+00 -0.00000000000E+00 -0.48962207465E+02  0.48962207532E+02  0.25500000000E-02 0. -1.
    5000001    1    1    2    0    0 -0.74523944540E+01 -0.16936277899E+03  0.23137834845E+04  0.23275904498E+04  0.18800000000E+03 0.  0.
   -5000001    1    1    2    0    0  0.74523944540E+01  0.16936277899E+03  0.33885682456E+03  0.42297427421E+03  0.18800000000E+03 0.  0.
<mgrwt>
<rscale>  0 0.72739652E+03</rscale>
<asrwt>0</asrwt>
<pdfrwt beam="1">  1        2 0.38594337E+00 0.72739652E+03</pdfrwt>
<pdfrwt beam="2">  1       -2 0.69945983E-02 0.72739652E+03</pdfrwt>
<totfact> 0.43630052E+02</totfact>
</mgrwt>
</event>
<event>
 4    1  0.5917727E-005  0.5697429E+03  0.7818608E-02  0.9970248E-01
          2   -1    0    0  501    0  0.00000000000E+00  0.00000000000E+00  0.12072053489E+03  0.12072053492E+03  0.25500000000E-02 0.  1.
         -2   -1    0    0    0  501 -0.00000000000E+00 -0.00000000000E+00 -0.67222825590E+03  0.67222825591E+03  0.25500000000E-02 0. -1.
    5000001    1    1    2    0    0  0.18015560244E+03  0.83639333947E+01 -0.11535769841E+03  0.28491647031E+03  0.18800000000E+03 0.  0.
   -5000001    1    1    2    0    0 -0.18015560244E+03 -0.83639333947E+01 -0.43615002261E+03  0.50803232052E+03  0.18800000000E+03 0.  0.
<mgrwt>
<rscale>  0 0.56974294E+03</rscale>
<asrwt>0</asrwt>
<pdfrwt beam="1">  1        2 0.17245791E-01 0.56974294E+03</pdfrwt>
<pdfrwt beam="2">  1       -2 0.96032606E-01 0.56974294E+03</pdfrwt>
<totfact> 0.31136969E+02</totfact>
</mgrwt>
</event>
<event>
 4    1  0.5917727E-005  0.7009507E+03  0.7818608E-02  0.9715608E-01
          2   -1    0    0  501    0  0.00000000000E+00  0.00000000000E+00  0.22251609745E+04  0.22251609745E+04  0.25500000000E-02 0.  1.
         -2   -1    0    0    0  501 -0.00000000000E+00 -0.00000000000E+00 -0.55201839752E+02  0.55201839811E+02  0.25500000000E-02 0. -1.
    5000001    1    1    2    0    0 -0.10656466233E+03 -0.22375635951E+03  0.16102150080E+04  0.16399875938E+04  0.18800000000E+03 0.  0.
   -5000001    1    1    2    0    0  0.10656466233E+03  0.22375635951E+03  0.55974412677E+03  0.64037522058E+03  0.18800000000E+03 0.  0.
<mgrwt>
<rscale>  0 0.70095072E+03</rscale>
<asrwt>0</asrwt>
<pdfrwt beam="1">  1        2 0.31788015E+00 0.70095072E+03</pdfrwt>
<pdfrwt beam="2">  1       -2 0.78859768E-02 0.70095072E+03</pdfrwt>
<totfact> 0.63564688E+02</totfact>
</mgrwt>
</event>
<event>
 4    1  0.5917727E-005  0.5305211E+03  0.7818608E-02  0.1006106E+00
          2   -1    0    0  501    0  0.00000000000E+00  0.00000000000E+00  0.52296966823E+03  0.52296966824E+03  0.25500000000E-02 0.  1.
         -2   -1    0    0    0  501 -0.00000000000E+00 -0.00000000000E+00 -0.13454536774E+03  0.13454536776E+03  0.25500000000E-02 0. -1.
    5000001    1    1    2    0    0 -0.12562218853E+03 -0.13864555771E+03  0.19911065175E+03  0.33165128760E+03  0.18800000000E+03 0.  0.
   -5000001    1    1    2    0    0  0.12562218853E+03  0.13864555771E+03  0.18931364875E+03  0.32586374841E+03  0.18800000000E+03 0.  0.
<mgrwt>
<rscale>  0 0.53052105E+03</rscale>
<asrwt>0</asrwt>
<pdfrwt beam="1">  1        2 0.74709952E-01 0.53052105E+03</pdfrwt>
<pdfrwt beam="2">  1       -2 0.19220767E-01 0.53052105E+03</pdfrwt>
<totfact> 0.14562570E+03</totfact>
</mgrwt>
</event>
<event>
 4    1  0.5917727E-005  0.1391310E+04  0.7818608E-02  0.8960133E-01
          2   -1    0    0  501    0  0.00000000000E+00  0.00000000000E+00  0.13021523914E+04  0.13021523914E+04  0.25500000000E-02 0.  1.
         -2   -1    0    0    0  501 -0.00000000000E+00 -0.00000000000E+00 -0.37164307329E+03  0.37164307330E+03  0.25500000000E-02 0. -1.
    5000001    1    1    2    0    0  0.22192236114E+03 -0.38899196209E+03 -0.13388559602E+03  0.50381904864E+03  0.18800000000E+03 0.  0.
   -5000001    1    1    2    0    0 -0.22192236114E+03  0.38899196209E+03  0.10643949141E+04  0.11699764160E+04  0.18800000000E+03 0.  0.
<mgrwt>
<rscale>  0 0.13913101E+04</rscale>
<asrwt>0</asrwt>
<pdfrwt beam="1">  1        2 0.18602177E+00 0.13913101E+04</pdfrwt>
<pdfrwt beam="2">  1       -2 0.53091868E-01 0.13913101E+04</pdfrwt>
<totfact> 0.61048975E+01</totfact>
</mgrwt>
</event>
<event>
 4    1  0.5917727E-005  0.7487170E+03  0.7818608E-02  0.9637365E-01
         -2   -1    0    0    0  501 -0.00000000000E+00  0.00000000000E+00  0.24371275287E+03  0.24371275288E+03  0.25500000000E-02 0. -1.
          2   -1    0    0  501    0  0.00000000000E+00 -0.00000000000E+00 -0.57503875756E+03  0.57503875757E+03  0.25500000000E-02 0.  1.
    5000001    1    1    2    0    0 -0.23442784426E+03 -0.19917520482E+03 -0.55366653306E+02  0.36474188501E+03  0.18800000000E+03 0.  0.
   -5000001    1    1    2    0    0  0.23442784426E+03  0.19917520482E+03 -0.27595935138E+03  0.45400962544E+03  0.18800000000E+03 0.  0.
<mgrwt>
<rscale>  0 0.74871698E+03</rscale>
<asrwt>0</asrwt>
<pdfrwt beam="1">  1        2 0.82148393E-01 0.74871698E+03</pdfrwt>
<pdfrwt beam="2">  1       -2 0.34816108E-01 0.74871698E+03</pdfrwt>
<totfact> 0.44369381E+02</totfact>
</mgrwt>
</event>
<event>
 4    1  0.5917727E-005  0.4516048E+03  0.7818608E-02  0.1027245E+00
         -2   -1    0    0    0  501 -0.00000000000E+00  0.00000000000E+00  0.34015974164E+02  0.34015974260E+02  0.25500000000E-02 0. -1.
          2   -1    0    0  501    0  0.00000000000E+00 -0.00000000000E+00 -0.14989053244E+04  0.14989053244E+04  0.25500000000E-02 0.  1.
    5000001    1    1    2    0    0 -0.68201687569E+02 -0.10239528097E+03 -0.80883429630E+03  0.83946005422E+03  0.18800000000E+03 0.  0.
   -5000001    1    1    2    0    0  0.68201687569E+02  0.10239528097E+03 -0.65605505391E+03  0.69346124442E+03  0.18800000000E+03 0.  0.
<mgrwt>
<rscale>  0 0.45160480E+03</rscale>
<asrwt>0</asrwt>
<pdfrwt beam="1">  1        2 0.21412929E+00 0.45160480E+03</pdfrwt>
<pdfrwt beam="2">  1       -2 0.48594258E-02 0.45160480E+03</pdfrwt>
<totfact> 0.31965809E+03</totfact>
</mgrwt>
</event>
<event>
 4    1  0.5917727E-005  0.7538525E+03  0.7818608E-02  0.9629326E-01
         -2   -1    0    0    0  501 -0.00000000000E+00  0.00000000000E+00  0.19194104555E+03  0.19194104557E+03  0.25500000000E-02 0. -1.
          2   -1    0    0  501    0  0.00000000000E+00 -0.00000000000E+00 -0.74019296091E+03  0.74019296091E+03  0.25500000000E-02 0.  1.
    5000001    1    1    2    0    0 -0.80050234163E+02  0.29835294682E+03 -0.40560712049E+03  0.54340008930E+03  0.18800000000E+03 0.  0.
   -5000001    1    1    2    0    0  0.80050234163E+02 -0.29835294682E+03 -0.14264479487E+03  0.38873391718E+03  0.18800000000E+03 0.  0.
<mgrwt>
<rscale>  0 0.75385253E+03</rscale>
<asrwt>0</asrwt>
<pdfrwt beam="1">  1        2 0.10574185E+00 0.75385253E+03</pdfrwt>
<pdfrwt beam="2">  1       -2 0.27420150E-01 0.75385253E+03</pdfrwt>
<totfact> 0.51001365E+02</totfact>
</mgrwt>
</event>
<event>
 4    1  0.5917727E-005  0.7195964E+03  0.7818608E-02  0.9684294E-01
          2   -1    0    0  501    0  0.00000000000E+00  0.00000000000E+00  0.22183009955E+03  0.22183009957E+03  0.25500000000E-02 0.  1.
         -2   -1    0    0    0  501 -0.00000000000E+00 -0.00000000000E+00 -0.58357604057E+03  0.58357604057E+03  0.25500000000E-02 0. -1.
    5000001    1    1    2    0    0 -0.21805938518E+03  0.21520431037E+03 -0.19849677746E+03  0.41061875424E+03  0.18800000000E+03 0.  0.
   -5000001    1    1    2    0    0  0.21805938518E+03 -0.21520431037E+03 -0.16324916355E+03  0.39478738590E+03  0.18800000000E+03 0.  0.
<mgrwt>
<rscale>  0 0.71959636E+03</rscale>
<asrwt>0</asrwt>
<pdfrwt beam="1">  1        2 0.31690014E-01 0.71959636E+03</pdfrwt>
<pdfrwt beam="2">  1       -2 0.83368006E-01 0.71959636E+03</pdfrwt>
<totfact> 0.21258187E+02</totfact>
</mgrwt>
</event>
<event>
 4    1  0.5917727E-005  0.5298674E+03  0.7818608E-02  0.1006264E+00
          2   -1    0    0  501    0  0.00000000000E+00  0.00000000000E+00  0.44950199707E+03  0.44950199708E+03  0.25500000000E-02 0.  1.
         -2   -1    0    0    0  501 -0.00000000000E+00 -0.00000000000E+00 -0.15615030267E+03  0.15615030269E+03  0.25500000000E-02 0. -1.
    5000001    1    1    2    0    0  0.88724464910E+02  0.15015749640E+03  0.70627506632E+02  0.26599163350E+03  0.18800000000E+03 0.  0.
   -5000001    1    1    2    0    0 -0.88724464910E+02 -0.15015749640E+03  0.22272418777E+03  0.33966066628E+03  0.18800000000E+03 0.  0.
<mgrwt>
<rscale>  0 0.52986743E+03</rscale>
<asrwt>0</asrwt>
<pdfrwt beam="1">  1        2 0.64214572E-01 0.52986743E+03</pdfrwt>
<pdfrwt beam="2">  1       -2 0.22307186E-01 0.52986743E+03</pdfrwt>
<totfact> 0.13322847E+03</totfact>
</mgrwt>
</event>
<event>
 4    1  0.5917727E-005  0.4282400E+03  0.7818608E-02  0.1034417E+00
          2   -1    0    0  501    0  0.00000000000E+00  0.00000000000E+00  0.31488366356E+03  0.31488366357E+03  0.25500000000E-02 0.  1.
         -2   -1    0    0    0  501 -0.00000000000E+00 -0.00000000000E+00 -0.14560101566E+03  0.14560101568E+03  0.25500000000E-02 0. -1.
    5000001    1    1    2    0    0 -0.18071297722E+00  0.73603511403E+02  0.16132635932E+03  0.25843317078E+03  0.18800000000E+03 0.  0.
   -5000001    1    1    2    0    0  0.18071297722E+00 -0.73603511403E+02  0.79562885872E+01  0.20205150847E+03  0.18800000000E+03 0.  0.
<mgrwt>
<rscale>  0 0.42824003E+03</rscale>
<asrwt>0</asrwt>
<pdfrwt beam="1">  1        2 0.44983379E-01 0.42824003E+03</pdfrwt>
<pdfrwt beam="2">  1       -2 0.20800146E-01 0.42824003E+03</pdfrwt>
<totfact> 0.22258103E+03</totfact>
</mgrwt>
</event>
<event>
 4    1  0.5917727E-005  0.6123561E+03  0.7818608E-02  0.9880098E-01
         -2   -1    0    0    0  501 -0.00000000000E+00  0.00000000000E+00  0.25082139489E+02  0.25082139619E+02  0.25500000000E-02 0. -1.
          2   -1    0    0  501    0  0.00000000000E+00 -0.00000000000E+00 -0.37375199678E+04  0.37375199678E+04  0.25500000000E-02 0.  1.
    5000001    1    1    2    0    0 -0.13938611650E+02  0.18307721616E+03 -0.89074639729E+03  0.92870054176E+03  0.18800000000E+03 0.  0.
   -5000001    1    1    2    0    0  0.13938611650E+02 -0.18307721616E+03 -0.28216914310E+04  0.28339015656E+04  0.18800000000E+03 0.  0.
<mgrwt>
<rscale>  0 0.61235610E+03</rscale>
<asrwt>0</asrwt>
<pdfrwt beam="1">  1        2 0.53393107E+00 0.61235610E+03</pdfrwt>
<pdfrwt beam="2">  1       -2 0.35831652E-02 0.61235610E+03</pdfrwt>
<totfact> 0.32205390E+02</totfact>
</mgrwt>
</event>
<event>
 4    1  0.5917727E-005  0.7470893E+03  0.7818608E-02  0.9639928E-01
         -2   -1    0    0    0  501 -0.00000000000E+00  0.00000000000E+00  0.65373216582E+02  0.65373216632E+02  0.25500000000E-02 0. -1.
          2   -1    0    0  501    0  0.00000000000E+00 -0.00000000000E+00 -0.21344461007E+04  0.21344461007E+04  0.25500000000E-02 0.  1.
    5000001    1    1    2    0    0 -0.13822058055E+03  0.23396126785E+03 -0.15474985430E+04  0.15823838170E+04  0.18800000000E+03 0.  0.
   -5000001    1    1    2    0    0  0.13822058055E+03 -0.23396126785E+03 -0.52157434109E+03  0.61743550030E+03  0.18800000000E+03 0.  0.
<mgrwt>
<rscale>  0 0.74708930E+03</rscale>
<asrwt>0</asrwt>
<pdfrwt beam="1">  1        2 0.30492083E+00 0.74708930E+03</pdfrwt>
<pdfrwt beam="2">  1       -2 0.93390323E-02 0.74708930E+03</pdfrwt>
<totfact> 0.53668270E+02</totfact>
</mgrwt>
</event>
<event>
 4    1  0.5917727E-005  0.5743759E+03  0.7818608E-02  0.9960042E-01
          2   -1    0    0  501    0  0.00000000000E+00  0.00000000000E+00  0.12491383052E+04  0.12491383052E+04  0.25500000000E-02 0.  1.
         -2   -1    0    0    0  501 -0.00000000000E+00 -0.00000000000E+00 -0.66027043034E+02  0.66027043084E+02  0.25500000000E-02 0. -1.
    5000001    1    1    2    0    0  0.79125794128E+01 -0.20980039886E+03  0.46501637979E+03  0.54374906873E+03  0.18800000000E+03 0.  0.
   -5000001    1    1    2    0    0 -0.79125794128E+01  0.20980039886E+03  0.71809488242E+03  0.77141627960E+03  0.18800000000E+03 0.  0.
<mgrwt>
<rscale>  0 0.57437587E+03</rscale>
<asrwt>0</asrwt>
<pdfrwt beam="1">  1        2 0.17844834E+00 0.57437587E+03</pdfrwt>
<pdfrwt beam="2">  1       -2 0.94324344E-02 0.57437587E+03</pdfrwt>
<totfact> 0.15262608E+03</totfact>
</mgrwt>
</event>
<event>
 4    1  0.5917727E-005  0.5923593E+03  0.7818608E-02  0.9921386E-01
         -2   -1    0    0    0  501 -0.00000000000E+00  0.00000000000E+00  0.98505543878E+02  0.98505543911E+02  0.25500000000E-02 0.  1.
          2   -1    0    0  501    0  0.00000000000E+00 -0.00000000000E+00 -0.89053248202E+03  0.89053248202E+03  0.25500000000E-02 0. -1.
    5000001    1    1    2    0    0 -0.92443027534E+02 -0.18424582566E+03 -0.23000075566E+03  0.36157514463E+03  0.18800000000E+03 0.  0.
   -5000001    1    1    2    0    0  0.92443027534E+02  0.18424582566E+03 -0.56202618248E+03  0.62746288130E+03  0.18800000000E+03 0.  0.
<mgrwt>
<rscale>  0 0.59235930E+03</rscale>
<asrwt>0</asrwt>
<pdfrwt beam="1">  1        2 0.12721892E+00 0.59235930E+03</pdfrwt>
<pdfrwt beam="2">  1       -2 0.14072221E-01 0.59235930E+03</pdfrwt>
<totfact> 0.12911603E+03</totfact>
</mgrwt>
</event>
<event>
 4    1  0.5917727E-005  0.4957206E+03  0.7818608E-02  0.1014902E+00
         -2   -1    0    0    0  501 -0.00000000000E+00  0.00000000000E+00  0.32332793273E+02  0.32332793373E+02  0.25500000000E-02 0. -1.
          2   -1    0    0  501    0  0.00000000000E+00 -0.00000000000E+00 -0.19000752257E+04  0.19000752257E+04  0.25500000000E-02 0.  1.
    5000001    1    1    2    0    0  0.36781350164E+02  0.12808529895E+03 -0.12896968127E+04  0.13101223532E+04  0.18800000000E+03 0.  0.
   -5000001    1    1    2    0    0 -0.36781350164E+02 -0.12808529895E+03 -0.57804561966E+03  0.62228566586E+03  0.18800000000E+03 0.  0.
<mgrwt>
<rscale>  0 0.49572065E+03</rscale>
<asrwt>0</asrwt>
<pdfrwt beam="1">  1        2 0.27143925E+00 0.49572065E+03</pdfrwt>
<pdfrwt beam="2">  1       -2 0.46189717E-02 0.49572065E+03</pdfrwt>
<totfact> 0.21648703E+03</totfact>
</mgrwt>
</event>
<event>
 4    1  0.5917727E-005  0.6618391E+03  0.7818608E-02  0.9784814E-01
         -2   -1    0    0    0  501 -0.00000000000E+00  0.00000000000E+00  0.16822144024E+03  0.16822144026E+03  0.25500000000E-02 0. -1.
          2   -1    0    0  501    0  0.00000000000E+00 -0.00000000000E+00 -0.65097388279E+03  0.65097388280E+03  0.25500000000E-02 0.  1.
    5000001    1    1    2    0    0  0.76506051372E+02 -0.25358132750E+03 -0.31972821035E+03  0.45577054978E+03  0.18800000000E+03 0.  0.
   -5000001    1    1    2    0    0 -0.76506051372E+02  0.25358132750E+03 -0.16302423220E+03  0.36342477328E+03  0.18800000000E+03 0.  0.
<mgrwt>
<rscale>  0 0.66183915E+03</rscale>
<asrwt>0</asrwt>
<pdfrwt beam="1">  1        2 0.92996267E-01 0.66183915E+03</pdfrwt>
<pdfrwt beam="2">  1       -2 0.24031635E-01 0.66183915E+03</pdfrwt>
<totfact> 0.75986426E+02</totfact>
</mgrwt>
</event>
<event>
 4    1  0.5917727E-005  0.4206384E+03  0.7818608E-02  0.1036859E+00
          2   -1    0    0  501    0  0.00000000000E+00  0.00000000000E+00  0.95906657409E+02  0.95906657443E+02  0.25500000000E-02 0.  1.
         -2   -1    0    0    0  501 -0.00000000000E+00 -0.00000000000E+00 -0.46122109721E+03  0.46122109722E+03  0.25500000000E-02 0. -1.
    5000001    1    1    2    0    0 -0.52282882201E+02 -0.77150403161E+02 -0.20159727008E+03  0.29098306442E+03  0.18800000000E+03 0.  0.
   -5000001    1    1    2    0    0  0.52282882201E+02  0.77150403161E+02 -0.16371716973E+03  0.26614469024E+03  0.18800000000E+03 0.  0.
<mgrwt>
<rscale>  0 0.42063844E+03</rscale>
<asrwt>0</asrwt>
<pdfrwt beam="1">  1        2 0.13700951E-01 0.42063844E+03</pdfrwt>
<pdfrwt beam="2">  1       -2 0.65888727E-01 0.42063844E+03</pdfrwt>
<totfact> 0.95128537E+02</totfact>
</mgrwt>
</event>
<event>
 4    1  0.5917727E-005  0.4390028E+03  0.7818608E-02  0.1031053E+00
         -2   -1    0    0    0  501 -0.00000000000E+00  0.00000000000E+00  0.17018873361E+02  0.17018873552E+02  0.25500000000E-02 0. -1.
          2   -1    0    0  501    0  0.00000000000E+00 -0.00000000000E+00 -0.28310261276E+04  0.28310261276E+04  0.25500000000E-02 0.  1.
    5000001    1    1    2    0    0 -0.27273646441E+02 -0.10852246249E+03 -0.12916972112E+04  0.13100941424E+04  0.18800000000E+03 0.  0.
   -5000001    1    1    2    0    0  0.27273646441E+02  0.10852246249E+03 -0.15223100431E+04  0.15379508588E+04  0.18800000000E+03 0.  0.
<mgrwt>
<rscale>  0 0.43900285E+03</rscale>
<asrwt>0</asrwt>
<pdfrwt beam="1">  1        2 0.40443201E+00 0.43900285E+03</pdfrwt>
<pdfrwt beam="2">  1       -2 0.24312694E-02 0.43900285E+03</pdfrwt>
<totfact> 0.19410964E+03</totfact>
</mgrwt>
</event>
<event>
 4    1  0.5917727E-005  0.4654995E+03  0.7818608E-02  0.1023198E+00
          2   -1    0    0  501    0  0.00000000000E+00  0.00000000000E+00  0.40484535954E+03  0.40484535955E+03  0.25500000000E-02 0.  1.
         -2   -1    0    0    0  501 -0.00000000000E+00 -0.00000000000E+00 -0.13381021364E+03  0.13381021366E+03  0.25500000000E-02 0. -1.
    5000001    1    1    2    0    0 -0.10647835154E+03 -0.30783186608E+02  0.41915158979E+02  0.22222989105E+03  0.18800000000E+03 0.  0.
   -5000001    1    1    2    0    0  0.10647835154E+03  0.30783186608E+02  0.22911998693E+03  0.31642568216E+03  0.18800000000E+03 0.  0.
<mgrwt>
<rscale>  0 0.46549949E+03</rscale>
<asrwt>0</asrwt>
<pdfrwt beam="1">  1        2 0.57835051E-01 0.46549949E+03</pdfrwt>
<pdfrwt beam="2">  1       -2 0.19115745E-01 0.46549949E+03</pdfrwt>
<totfact> 0.19571059E+03</totfact>
</mgrwt>
</event>
<event>
 4    1  0.5917727E-005  0.5699373E+03  0.7818608E-02  0.9969817E-01
          2   -1    0    0  501    0  0.00000000000E+00  0.00000000000E+00  0.10739296440E+04  0.10739296440E+04  0.25500000000E-02 0.  1.
         -2   -1    0    0    0  501 -0.00000000000E+00 -0.00000000000E+00 -0.75616806671E+02  0.75616806714E+02  0.25500000000E-02 0. -1.
    5000001    1    1    2    0    0 -0.89826919878E+02  0.18580144792E+03  0.61453127821E+03  0.67496944041E+03  0.18800000000E+03 0.  0.
   -5000001    1    1    2    0    0  0.89826919878E+02 -0.18580144792E+03  0.38378155907E+03  0.47457701026E+03  0.18800000000E+03 0.  0.
<mgrwt>
<rscale>  0 0.56993730E+03</rscale>
<asrwt>0</asrwt>
<pdfrwt beam="1">  1        2 0.15341851E+00 0.56993730E+03</pdfrwt>
<pdfrwt beam="2">  1       -2 0.10802401E-01 0.56993730E+03</pdfrwt>
<totfact> 0.15406044E+03</totfact>
</mgrwt>
</event>
<event>
 4    1  0.5917727E-005  0.5750078E+03  0.7818608E-02  0.9958658E-01
         -2   -1    0    0    0  501 -0.00000000000E+00  0.00000000000E+00  0.24847847347E+02  0.24847847478E+02  0.25500000000E-02 0. -1.
          2   -1    0    0  501    0  0.00000000000E+00 -0.00000000000E+00 -0.33265851345E+04  0.33265851345E+04  0.25500000000E-02 0.  1.
    5000001    1    1    2    0    0 -0.16503016277E+02  0.19048593560E+03 -0.22553838611E+04  0.22712678403E+04  0.18800000000E+03 0.  0.
   -5000001    1    1    2    0    0  0.16503016277E+02 -0.19048593560E+03 -0.10463534260E+04  0.10801651417E+04  0.18800000000E+03 0.  0.
<mgrwt>
<rscale>  0 0.57500776E+03</rscale>
<asrwt>0</asrwt>
<pdfrwt beam="1">  1        2 0.47522616E+00 0.57500776E+03</pdfrwt>
<pdfrwt beam="2">  1       -2 0.35496946E-02 0.57500776E+03</pdfrwt>
<totfact> 0.57801765E+02</totfact>
</mgrwt>
</event>
<event>
 4    1  0.5917727E-005  0.5038729E+03  0.7818608E-02  0.1012773E+00
         -2   -1    0    0    0  501 -0.00000000000E+00  0.00000000000E+00  0.19110264614E+03  0.19110264615E+03  0.25500000000E-02 0. -1.
          2   -1    0    0  501    0  0.00000000000E+00 -0.00000000000E+00 -0.33213546947E+03  0.33213546948E+03  0.25500000000E-02 0.  1.
    5000001    1    1    2    0    0 -0.14472010912E+03 -0.17129258910E+02  0.15683804583E+02  0.23838477976E+03  0.18800000000E+03 0.  0.
   -5000001    1    1    2    0    0  0.14472010912E+03  0.17129258910E+02 -0.15671662792E+03  0.28485333588E+03  0.18800000000E+03 0.  0.
<mgrwt>
<rscale>  0 0.50387287E+03</rscale>
<asrwt>0</asrwt>
<pdfrwt beam="1">  1        2 0.47447924E-01 0.50387287E+03</pdfrwt>
<pdfrwt beam="2">  1       -2 0.27300378E-01 0.50387287E+03</pdfrwt>
<totfact> 0.12975920E+03</totfact>
</mgrwt>
</event>
<event>
 4    1  0.5917727E-005  0.8641634E+03  0.7818608E-02  0.9471522E-01
         -2   -1    0    0    0  501 -0.00000000000E+00  0.00000000000E+00  0.72665525670E+02  0.72665525714E+02  0.25500000000E-02 0. -1.
          2   -1    0    0  501    0  0.00000000000E+00 -0.00000000000E+00 -0.25692322822E+04  0.25692322822E+04  0.25500000000E-02 0.  1.
    5000001    1    1    2    0    0 -0.20499245697E+03  0.32831721383E+03 -0.13681196802E+04  0.14341929995E+04  0.18800000000E+03 0.  0.
   -5000001    1    1    2    0    0  0.20499245697E+03 -0.32831721383E+03 -0.11284470763E+04  0.12077048084E+04  0.18800000000E+03 0.  0.
<mgrwt>
<rscale>  0 0.86416344E+03</rscale>
<asrwt>0</asrwt>
<pdfrwt beam="1">  1        2 0.36703313E+00 0.86416344E+03</pdfrwt>
<pdfrwt beam="2">  1       -2 0.10380791E-01 0.86416344E+03</pdfrwt>
<totfact> 0.26798067E+02</totfact>
</mgrwt>
</event>
<event>
 4    1  0.5917727E-005  0.6004136E+03  0.7818608E-02  0.9904548E-01
         -2   -1    0    0    0  501 -0.00000000000E+00  0.00000000000E+00  0.32718531285E+02  0.32718531384E+02  0.25500000000E-02 0. -1.
          2   -1    0    0  501    0  0.00000000000E+00 -0.00000000000E+00 -0.27545286363E+04  0.27545286363E+04  0.25500000000E-02 0.  1.
    5000001    1    1    2    0    0  0.17943178480E+03  0.39816591870E+02 -0.20336095024E+04  0.20505347436E+04  0.18800000000E+03 0.  0.
   -5000001    1    1    2    0    0 -0.17943178480E+03 -0.39816591870E+02 -0.68820060260E+03  0.73671242408E+03  0.18800000000E+03 0.  0.
<mgrwt>
<rscale>  0 0.60041363E+03</rscale>
<asrwt>0</asrwt>
<pdfrwt beam="1">  1        2 0.39350394E+00 0.60041363E+03</pdfrwt>
<pdfrwt beam="2">  1       -2 0.46740777E-02 0.60041363E+03</pdfrwt>
<totfact> 0.77748959E+02</totfact>
</mgrwt>
</event>
<event>
 4    1  0.5917727E-005  0.6352769E+03  0.7818608E-02  0.9834805E-01
         -2   -1    0    0    0  501 -0.00000000000E+00  0.00000000000E+00  0.58996420339E+03  0.58996420340E+03  0.25500000000E-02 0. -1.
          2   -1    0    0  501    0  0.00000000000E+00 -0.00000000000E+00 -0.17101744453E+03  0.17101744455E+03  0.25500000000E-02 0.  1.
    5000001    1    1    2    0    0  0.12186095061E+03 -0.22512720256E+03  0.21453031196E+03  0.38327484051E+03  0.18800000000E+03 0.  0.
   -5000001    1    1    2    0    0 -0.12186095061E+03  0.22512720256E+03  0.20441644691E+03  0.37770680744E+03  0.18800000000E+03 0.  0.
<mgrwt>
<rscale>  0 0.63527685E+03</rscale>
<asrwt>0</asrwt>
<pdfrwt beam="1">  1        2 0.24431064E-01 0.63527685E+03</pdfrwt>
<pdfrwt beam="2">  1       -2 0.84280599E-01 0.63527685E+03</pdfrwt>
<totfact> 0.27933198E+02</totfact>
</mgrwt>
</event>
<event>
 4    1  0.5917727E-005  0.6253321E+03  0.7818608E-02  0.9854200E-01
          2   -1    0    0  501    0  0.00000000000E+00  0.00000000000E+00  0.16901415817E+03  0.16901415819E+03  0.25500000000E-02 0.  1.
         -2   -1    0    0    0  501 -0.00000000000E+00 -0.00000000000E+00 -0.57841348509E+03  0.57841348510E+03  0.25500000000E-02 0. -1.
    5000001    1    1    2    0    0  0.18631862219E+03 -0.15969031328E+03 -0.14863186710E+03  0.34300299860E+03  0.18800000000E+03 0.  0.
   -5000001    1    1    2    0    0 -0.18631862219E+03  0.15969031328E+03 -0.26076745982E+03  0.40442464469E+03  0.18800000000E+03 0.  0.
<mgrwt>
<rscale>  0 0.62533213E+03</rscale>
<asrwt>0</asrwt>
<pdfrwt beam="1">  1        2 0.24144880E-01 0.62533213E+03</pdfrwt>
<pdfrwt beam="2">  1       -2 0.82630497E-01 0.62533213E+03</pdfrwt>
<totfact> 0.29615051E+02</totfact>
</mgrwt>
</event>
<event>
 4    1  0.5917727E-005  0.6614911E+03  0.7818608E-02  0.9785453E-01
         -2   -1    0    0    0  501 -0.00000000000E+00  0.00000000000E+00  0.22870853251E+04  0.22870853251E+04  0.25500000000E-02 0. -1.
          2   -1    0    0  501    0  0.00000000000E+00 -0.00000000000E+00 -0.47830580011E+02  0.47830580079E+02  0.25500000000E-02 0.  1.
    5000001    1    1    2    0    0 -0.21845800716E+03 -0.55027342086E+02  0.16583863534E+04  0.16841440575E+04  0.18800000000E+03 0.  0.
   -5000001    1    1    2    0    0  0.21845800716E+03  0.55027342086E+02  0.58086839170E+03  0.65077184769E+03  0.18800000000E+03 0.  0.
<mgrwt>
<rscale>  0 0.66149110E+03</rscale>
<asrwt>0</asrwt>
<pdfrwt beam="1">  1        2 0.68329393E-02 0.66149110E+03</pdfrwt>
<pdfrwt beam="2">  1       -2 0.32672651E+00 0.66149110E+03</pdfrwt>
<totfact> 0.25097152E+01</totfact>
</mgrwt>
</event>
<event>
 4    1  0.5917727E-005  0.4951252E+03  0.7818608E-02  0.1015059E+00
         -2   -1    0    0    0  501 -0.00000000000E+00  0.00000000000E+00  0.37243002183E+03  0.37243002183E+03  0.25500000000E-02 0. -1.
          2   -1    0    0  501    0  0.00000000000E+00 -0.00000000000E+00 -0.16456040196E+03  0.16456040198E+03  0.25500000000E-02 0.  1.
    5000001    1    1    2    0    0 -0.10217368221E+03  0.10187096301E+03  0.18158530156E+03  0.29855380786E+03  0.18800000000E+03 0.  0.
   -5000001    1    1    2    0    0  0.10217368221E+03 -0.10187096301E+03  0.26284318301E+02  0.23843661596E+03  0.18800000000E+03 0.  0.
<mgrwt>
<rscale>  0 0.49512517E+03</rscale>
<asrwt>0</asrwt>
<pdfrwt beam="1">  1        2 0.23508629E-01 0.49512517E+03</pdfrwt>
<pdfrwt beam="2">  1       -2 0.53204290E-01 0.49512517E+03</pdfrwt>
<totfact> 0.78716791E+02</totfact>
</mgrwt>
</event>
<event>
 4    1  0.5917727E-005  0.9500466E+03  0.7818608E-02  0.9365096E-01
          2   -1    0    0  501    0  0.00000000000E+00  0.00000000000E+00  0.20101097482E+04  0.20101097482E+04  0.25500000000E-02 0.  1.
         -2   -1    0    0    0  501 -0.00000000000E+00 -0.00000000000E+00 -0.11225612011E+03  0.11225612014E+03  0.25500000000E-02 0. -1.
    5000001    1    1    2    0    0 -0.19429435193E+03  0.38364069095E+03  0.11126723573E+04  0.12076068274E+04  0.18800000000E+03 0.  0.
   -5000001    1    1    2    0    0  0.19429435193E+03 -0.38364069095E+03  0.78518127081E+03  0.91475904094E+03  0.18800000000E+03 0.  0.
<mgrwt>
<rscale>  0 0.95004657E+03</rscale>
<asrwt>0</asrwt>
<pdfrwt beam="1">  1        2 0.28715852E+00 0.95004657E+03</pdfrwt>
<pdfrwt beam="2">  1       -2 0.16036589E-01 0.95004657E+03</pdfrwt>
<totfact> 0.24937096E+02</totfact>
</mgrwt>
</event>
<event>
 4    1  0.5917727E-005  0.5348107E+03  0.7818608E-02  0.1005072E+00
          2   -1    0    0  501    0  0.00000000000E+00  0.00000000000E+00  0.12981850895E+04  0.12981850895E+04  0.25500000000E-02 0.  1.
         -2   -1    0    0    0  501 -0.00000000000E+00 -0.00000000000E+00 -0.55081224748E+02  0.55081224807E+02  0.25500000000E-02 0. -1.
    5000001    1    1    2    0    0  0.18065838409E+03  0.61684988162E+00  0.77175829685E+03  0.81461199415E+03  0.18800000000E+03 0.  0.
   -5000001    1    1    2    0    0 -0.18065838409E+03 -0.61684988162E+00  0.47134556787E+03  0.53865432013E+03  0.18800000000E+03 0.  0.
<mgrwt>
<rscale>  0 0.53481071E+03</rscale>
<asrwt>0</asrwt>
<pdfrwt beam="1">  1        2 0.18545499E+00 0.53481071E+03</pdfrwt>
<pdfrwt beam="2">  1       -2 0.78687474E-02 0.53481071E+03</pdfrwt>
<totfact> 0.19192397E+03</totfact>
</mgrwt>
</event>
<event>
 4    1  0.5917727E-005  0.6678418E+03  0.7818608E-02  0.9773864E-01
          2   -1    0    0  501    0  0.00000000000E+00  0.00000000000E+00  0.33331448667E+03  0.33331448668E+03  0.25500000000E-02 0.  1.
         -2   -1    0    0    0  501 -0.00000000000E+00 -0.00000000000E+00 -0.33452844314E+03  0.33452844315E+03  0.25500000000E-02 0. -1.
    5000001    1    1    2    0    0  0.17871057662E+03 -0.20410941294E+03 -0.51213915717E+02  0.33401345454E+03  0.18800000000E+03 0.  0.
   -5000001    1    1    2    0    0 -0.17871057662E+03  0.20410941294E+03  0.49999959248E+02  0.33382947529E+03  0.18800000000E+03 0.  0.
<mgrwt>
<rscale>  0 0.66784183E+03</rscale>
<asrwt>0</asrwt>
<pdfrwt beam="1">  1        2 0.47616355E-01 0.66784183E+03</pdfrwt>
<pdfrwt beam="2">  1       -2 0.47789778E-01 0.66784183E+03</pdfrwt>
<totfact> 0.44348329E+02</totfact>
</mgrwt>
</event>
<event>
 4    1  0.5917727E-005  0.5816677E+03  0.7818608E-02  0.9944187E-01
          2   -1    0    0  501    0  0.00000000000E+00  0.00000000000E+00  0.27405170011E+04  0.27405170011E+04  0.25500000000E-02 0.  1.
         -2   -1    0    0    0  501 -0.00000000000E+00 -0.00000000000E+00 -0.30864370194E+02  0.30864370300E+02  0.25500000000E-02 0. -1.
    5000001    1    1    2    0    0 -0.20370936557E+03  0.79785094694E+02  0.11780132975E+04  0.12128159366E+04  0.18800000000E+03 0.  0.
   -5000001    1    1    2    0    0  0.20370936557E+03 -0.79785094694E+02  0.15316393333E+04  0.15585654348E+04  0.18800000000E+03 0.  0.
<mgrwt>
<rscale>  0 0.58166771E+03</rscale>
<asrwt>0</asrwt>
<pdfrwt beam="1">  1        2 0.39150254E+00 0.58166771E+03</pdfrwt>
<pdfrwt beam="2">  1       -2 0.44091944E-02 0.58166771E+03</pdfrwt>
<totfact> 0.86672004E+02</totfact>
</mgrwt>
</event>
<event>
 4    1  0.5917727E-005  0.6318824E+03  0.7818608E-02  0.9841382E-01
         -2   -1    0    0    0  501 -0.00000000000E+00  0.00000000000E+00  0.48138297855E+02  0.48138297922E+02  0.25500000000E-02 0. -1.
          2   -1    0    0  501    0  0.00000000000E+00 -0.00000000000E+00 -0.20735845583E+04  0.20735845583E+04  0.25500000000E-02 0.  1.
    5000001    1    1    2    0    0  0.91460015948E+02  0.41615907637E+02 -0.22971894083E+03  0.31338731637E+03  0.18800000000E+03 0.  0.
   -5000001    1    1    2    0    0 -0.91460015948E+02 -0.41615907637E+02 -0.17957273196E+04  0.18083355398E+04  0.18800000000E+03 0.  0.
<mgrwt>
<rscale>  0 0.63188237E+03</rscale>
<asrwt>0</asrwt>
<pdfrwt beam="1">  1        2 0.29622631E+00 0.63188237E+03</pdfrwt>
<pdfrwt beam="2">  1       -2 0.68769010E-02 0.63188237E+03</pdfrwt>
<totfact> 0.94654057E+02</totfact>
</mgrwt>
</event>
<event>
 4    1  0.5917727E-005  0.5588929E+03  0.7818608E-02  0.9994563E-01
         -2   -1    0    0    0  501 -0.00000000000E+00  0.00000000000E+00  0.62348787904E+02  0.62348787956E+02  0.25500000000E-02 0. -1.
          2   -1    0    0  501    0  0.00000000000E+00 -0.00000000000E+00 -0.12524754982E+04  0.12524754982E+04  0.25500000000E-02 0.  1.
    5000001    1    1    2    0    0 -0.69292949457E+02 -0.18735542126E+03 -0.72049565482E+03  0.77094847774E+03  0.18800000000E+03 0.  0.
   -5000001    1    1    2    0    0  0.69292949457E+02  0.18735542126E+03 -0.46963105551E+03  0.54387580845E+03  0.18800000000E+03 0.  0.
<mgrwt>
<rscale>  0 0.55889294E+03</rscale>
<asrwt>0</asrwt>
<pdfrwt beam="1">  1        2 0.17892506E+00 0.55889294E+03</pdfrwt>
<pdfrwt beam="2">  1       -2 0.89069705E-02 0.55889294E+03</pdfrwt>
<totfact> 0.16671515E+03</totfact>
</mgrwt>
</event>
<event>
 4    1  0.5917727E-005  0.8618139E+03  0.7818608E-02  0.9474617E-01
         -2   -1    0    0    0  501 -0.00000000000E+00  0.00000000000E+00  0.14294605509E+03  0.14294605511E+03  0.25500000000E-02 0. -1.
          2   -1    0    0  501    0  0.00000000000E+00 -0.00000000000E+00 -0.12989570802E+04  0.12989570802E+04  0.25500000000E-02 0.  1.
    5000001    1    1    2    0    0  0.15366952980E+03  0.24404474343E+03 -0.14440187875E+03  0.37332032327E+03  0.18800000000E+03 0.  0.
   -5000001    1    1    2    0    0 -0.15366952980E+03 -0.24404474343E+03 -0.10116091463E+04  0.10685828120E+04  0.18800000000E+03 0.  0.
<mgrwt>
<rscale>  0 0.86181388E+03</rscale>
<asrwt>0</asrwt>
<pdfrwt beam="1">  1        2 0.18556529E+00 0.86181388E+03</pdfrwt>
<pdfrwt beam="2">  1       -2 0.20420866E-01 0.86181388E+03</pdfrwt>
<totfact> 0.38757411E+02</totfact>
</mgrwt>
</event>
<event>
 4    1  0.5917727E-005  0.4752435E+03  0.7818608E-02  0.1020451E+00
          2   -1    0    0  501    0  0.00000000000E+00  0.00000000000E+00  0.32044093713E+03  0.32044093714E+03  0.25500000000E-02 0.  1.
         -2   -1    0    0    0  501 -0.00000000000E+00 -0.00000000000E+00 -0.17620752893E+03  0.17620752895E+03  0.25500000000E-02 0. -1.
    5000001    1    1    2    0    0 -0.12372589839E+03 -0.30512494994E+02 -0.89409066928E+00  0.22712091423E+03  0.18800000000E+03 0.  0.
   -5000001    1    1    2    0    0  0.12372589839E+03  0.30512494994E+02  0.14512749887E+03  0.26952755186E+03  0.18800000000E+03 0.  0.
<mgrwt>
<rscale>  0 0.47524354E+03</rscale>
<asrwt>0</asrwt>
<pdfrwt beam="1">  1        2 0.45777277E-01 0.47524354E+03</pdfrwt>
<pdfrwt beam="2">  1       -2 0.25172504E-01 0.47524354E+03</pdfrwt>
<totfact> 0.15615436E+03</totfact>
</mgrwt>
</event>
<event>
 4    1  0.5917727E-005  0.6008511E+03  0.7818608E-02  0.9903642E-01
          2   -1    0    0  501    0  0.00000000000E+00  0.00000000000E+00  0.34640446466E+03  0.34640446466E+03  0.25500000000E-02 0.  1.
         -2   -1    0    0    0  501 -0.00000000000E+00 -0.00000000000E+00 -0.26054949245E+03  0.26054949246E+03  0.25500000000E-02 0. -1.
    5000001    1    1    2    0    0  0.74564179458E+02  0.21426414818E+03  0.10219681299E+03  0.31186075521E+03  0.18800000000E+03 0.  0.
   -5000001    1    1    2    0    0 -0.74564179458E+02 -0.21426414818E+03 -0.16341840782E+02  0.29509320191E+03  0.18800000000E+03 0.  0.
<mgrwt>
<rscale>  0 0.60085109E+03</rscale>
<asrwt>0</asrwt>
<pdfrwt beam="1">  1        2 0.49486352E-01 0.60085109E+03</pdfrwt>
<pdfrwt beam="2">  1       -2 0.37221356E-01 0.60085109E+03</pdfrwt>
<totfact> 0.69496823E+02</totfact>
</mgrwt>
</event>
<event>
 4    1  0.5917727E-005  0.1206126E+04  0.7818608E-02  0.9107511E-01
         -2   -1    0    0    0  501 -0.00000000000E+00  0.00000000000E+00  0.23291793307E+03  0.23291793308E+03  0.25500000000E-02 0. -1.
          2   -1    0    0  501    0  0.00000000000E+00 -0.00000000000E+00 -0.15614304498E+04  0.15614304498E+04  0.25500000000E-02 0.  1.
    5000001    1    1    2    0    0  0.30715032719E+03  0.22310774147E+03 -0.25719895106E+02  0.42441006209E+03  0.18800000000E+03 0.  0.
   -5000001    1    1    2    0    0 -0.30715032719E+03 -0.22310774147E+03 -0.13027926216E+04  0.13699383208E+04  0.18800000000E+03 0.  0.
<mgrwt>
<rscale>  0 0.12061263E+04</rscale>
<asrwt>0</asrwt>
<pdfrwt beam="1">  1        2 0.22306149E+00 0.12061263E+04</pdfrwt>
<pdfrwt beam="2">  1       -2 0.33273991E-01 0.12061263E+04</pdfrwt>
<totfact> 0.11275295E+02</totfact>
</mgrwt>
</event>
<event>
 4    1  0.5917727E-005  0.5199843E+03  0.7818608E-02  0.1008690E+00
          2   -1    0    0  501    0  0.00000000000E+00  0.00000000000E+00  0.30623785838E+04  0.30623785838E+04  0.25500000000E-02 0.  1.
         -2   -1    0    0    0  501 -0.00000000000E+00 -0.00000000000E+00 -0.22073007483E+02  0.22073007631E+02  0.25500000000E-02 0. -1.
    5000001    1    1    2    0    0 -0.81868182978E+02 -0.15120605525E+03  0.18275923674E+04  0.18452651657E+04  0.18800000000E+03 0.  0.
   -5000001    1    1    2    0    0  0.81868182978E+02  0.15120605525E+03  0.12127132089E+04  0.12391864257E+04  0.18800000000E+03 0.  0.
<mgrwt>
<rscale>  0 0.51998425E+03</rscale>
<asrwt>0</asrwt>
<pdfrwt beam="1">  1        2 0.43748308E+00 0.51998425E+03</pdfrwt>
<pdfrwt beam="2">  1       -2 0.31532837E-02 0.51998425E+03</pdfrwt>
<totfact> 0.97860343E+02</totfact>
</mgrwt>
</event>
<event>
 4    1  0.5917727E-005  0.6777559E+03  0.7818608E-02  0.9756047E-01
         -2   -1    0    0    0  501 -0.00000000000E+00  0.00000000000E+00  0.23079349435E+03  0.23079349436E+03  0.25500000000E-02 0. -1.
          2   -1    0    0  501    0  0.00000000000E+00 -0.00000000000E+00 -0.49758023022E+03  0.49758023023E+03  0.25500000000E-02 0.  1.
    5000001    1    1    2    0    0  0.24489824677E+03  0.12618610146E+03 -0.19784035930E+03  0.38779233004E+03  0.18800000000E+03 0.  0.
   -5000001    1    1    2    0    0 -0.24489824677E+03 -0.12618610146E+03 -0.68946376570E+02  0.34058139455E+03  0.18800000000E+03 0.  0.
<mgrwt>
<rscale>  0 0.67775594E+03</rscale>
<asrwt>0</asrwt>
<pdfrwt beam="1">  1        2 0.71082890E-01 0.67775594E+03</pdfrwt>
<pdfrwt beam="2">  1       -2 0.32970499E-01 0.67775594E+03</pdfrwt>
<totfact> 0.58252189E+02</totfact>
</mgrwt>
</event>
<event>
 4    1  0.5917727E-005  0.8219386E+03  0.7818608E-02  0.9528794E-01
          2   -1    0    0  501    0  0.00000000000E+00  0.00000000000E+00  0.48348788748E+03  0.48348788749E+03  0.25500000000E-02 0.  1.
         -2   -1    0    0    0  501 -0.00000000000E+00 -0.00000000000E+00 -0.34932778175E+03  0.34932778176E+03  0.25500000000E-02 0. -1.
    5000001    1    1    2    0    0  0.78990784867E+02 -0.35646036957E+03  0.83043290705E+02  0.41897938768E+03  0.18800000000E+03 0.  0.
   -5000001    1    1    2    0    0 -0.78990784867E+02  0.35646036957E+03  0.51116815028E+02  0.41383628157E+03  0.18800000000E+03 0.  0.
<mgrwt>
<rscale>  0 0.82193857E+03</rscale>
<asrwt>0</asrwt>
<pdfrwt beam="1">  1        2 0.69069698E-01 0.82193857E+03</pdfrwt>
<pdfrwt beam="2">  1       -2 0.49903969E-01 0.82193857E+03</pdfrwt>
<totfact> 0.26658978E+02</totfact>
</mgrwt>
</event>
<event>
 4    1  0.5917727E-005  0.4641429E+03  0.7818608E-02  0.1023586E+00
         -2   -1    0    0    0  501 -0.00000000000E+00  0.00000000000E+00  0.22495811538E+03  0.22495811540E+03  0.25500000000E-02 0. -1.
          2   -1    0    0  501    0  0.00000000000E+00 -0.00000000000E+00 -0.23940966383E+03  0.23940966384E+03  0.25500000000E-02 0.  1.
    5000001    1    1    2    0    0  0.11044944245E+02  0.12604821630E+03  0.42828493290E+02  0.23062615520E+03  0.18800000000E+03 0.  0.
   -5000001    1    1    2    0    0 -0.11044944245E+02 -0.12604821630E+03 -0.57280041739E+02  0.23374162404E+03  0.18800000000E+03 0.  0.
<mgrwt>
<rscale>  0 0.46414285E+03</rscale>
<asrwt>0</asrwt>
<pdfrwt beam="1">  1        2 0.34201380E-01 0.46414285E+03</pdfrwt>
<pdfrwt beam="2">  1       -2 0.32136874E-01 0.46414285E+03</pdfrwt>
<totfact> 0.13781927E+03</totfact>
</mgrwt>
</event>
<event>
 4    1  0.5917727E-005  0.4811459E+03  0.7818608E-02  0.1018821E+00
         -2   -1    0    0    0  501 -0.00000000000E+00  0.00000000000E+00  0.36269351052E+02  0.36269351142E+02  0.25500000000E-02 0. -1.
          2   -1    0    0  501    0  0.00000000000E+00 -0.00000000000E+00 -0.15957091799E+04  0.15957091799E+04  0.25500000000E-02 0.  1.
    5000001    1    1    2    0    0 -0.11861144769E+03 -0.86246951972E+02 -0.67117386890E+03  0.71226790925E+03  0.18800000000E+03 0.  0.
   -5000001    1    1    2    0    0  0.11861144769E+03  0.86246951972E+02 -0.88826595999E+03  0.91971062184E+03  0.18800000000E+03 0.  0.
<mgrwt>
<rscale>  0 0.48114587E+03</rscale>
<asrwt>0</asrwt>
<pdfrwt beam="1">  1        2 0.22795841E+00 0.48114587E+03</pdfrwt>
<pdfrwt beam="2">  1       -2 0.51813369E-02 0.48114587E+03</pdfrwt>
<totfact> 0.25817099E+03</totfact>
</mgrwt>
</event>
<event>
 4    1  0.5917727E-005  0.4456077E+03  0.7818608E-02  0.1029040E+00
         -2   -1    0    0    0  501 -0.00000000000E+00  0.00000000000E+00  0.95572019325E+02  0.95572019359E+02  0.25500000000E-02 0. -1.
          2   -1    0    0  501    0  0.00000000000E+00 -0.00000000000E+00 -0.51941517469E+03  0.51941517469E+03  0.25500000000E-02 0.  1.
    5000001    1    1    2    0    0 -0.96609141063E+02 -0.53939406474E+02 -0.27448134675E+03  0.35060917761E+03  0.18800000000E+03 0.  0.
   -5000001    1    1    2    0    0  0.96609141063E+02  0.53939406474E+02 -0.14936180861E+03  0.26437801644E+03  0.18800000000E+03 0.  0.
<mgrwt>
<rscale>  0 0.44560771E+03</rscale>
<asrwt>0</asrwt>
<pdfrwt beam="1">  1        2 0.74202166E-01 0.44560771E+03</pdfrwt>
<pdfrwt beam="2">  1       -2 0.13653146E-01 0.44560771E+03</pdfrwt>
<totfact> 0.26137664E+03</totfact>
</mgrwt>
</event>
<event>
 4    1  0.5917727E-005  0.6013099E+03  0.7818608E-02  0.9902692E-01
         -2   -1    0    0    0  501 -0.00000000000E+00  0.00000000000E+00  0.82917960239E+02  0.82917960278E+02  0.25500000000E-02 0. -1.
          2   -1    0    0  501    0  0.00000000000E+00 -0.00000000000E+00 -0.10901546439E+04  0.10901546439E+04  0.25500000000E-02 0.  1.
    5000001    1    1    2    0    0 -0.22745518057E+03 -0.56008116743E+02 -0.52954581342E+03  0.60879843693E+03  0.18800000000E+03 0.  0.
   -5000001    1    1    2    0    0  0.22745518057E+03  0.56008116743E+02 -0.47769087025E+03  0.56427416726E+03  0.18800000000E+03 0.  0.
<mgrwt>
<rscale>  0 0.60130990E+03</rscale>
<asrwt>0</asrwt>
<pdfrwt beam="1">  1        2 0.15573637E+00 0.60130990E+03</pdfrwt>
<pdfrwt beam="2">  1       -2 0.11845424E-01 0.60130990E+03</pdfrwt>
<totfact> 0.12953575E+03</totfact>
</mgrwt>
</event>
<event>
 4    1  0.5917727E-005  0.7304528E+03  0.7818608E-02  0.9666526E-01
         -2   -1    0    0    0  501 -0.00000000000E+00  0.00000000000E+00  0.15137499727E+04  0.15137499727E+04  0.25500000000E-02 0.  1.
          2   -1    0    0  501    0  0.00000000000E+00 -0.00000000000E+00 -0.88119136858E+02  0.88119136895E+02  0.25500000000E-02 0. -1.
    5000001    1    1    2    0    0 -0.37494610824E+02 -0.16472967089E+03  0.12909669882E+04  0.13154776604E+04  0.18800000000E+03 0.  0.
   -5000001    1    1    2    0    0  0.37494610824E+02  0.16472967089E+03  0.13466384759E+03  0.28639144917E+03  0.18800000000E+03 0.  0.
<mgrwt>
<rscale>  0 0.73045285E+03</rscale>
<asrwt>0</asrwt>
<pdfrwt beam="1">  1        2 0.12588448E-01 0.73045285E+03</pdfrwt>
<pdfrwt beam="2">  1       -2 0.21625000E+00 0.73045285E+03</pdfrwt>
<totfact> 0.53086597E+01</totfact>
</mgrwt>
</event>
<event>
 4    1  0.5917727E-005  0.5049566E+03  0.7818608E-02  0.1012493E+00
         -2   -1    0    0    0  501 -0.00000000000E+00  0.00000000000E+00  0.46806221046E+02  0.46806221116E+02  0.25500000000E-02 0. -1.
          2   -1    0    0  501    0  0.00000000000E+00 -0.00000000000E+00 -0.13618979989E+04  0.13618979989E+04  0.25500000000E-02 0.  1.
    5000001    1    1    2    0    0  0.10105419997E+03 -0.52162490601E+02 -0.31057842949E+03  0.38044163497E+03  0.18800000000E+03 0.  0.
   -5000001    1    1    2    0    0 -0.10105419997E+03  0.52162490601E+02 -0.10045133484E+04  0.10282625850E+04  0.18800000000E+03 0.  0.
<mgrwt>
<rscale>  0 0.50495663E+03</rscale>
<asrwt>0</asrwt>
<pdfrwt beam="1">  1        2 0.19455683E+00 0.50495663E+03</pdfrwt>
<pdfrwt beam="2">  1       -2 0.66866038E-02 0.50495663E+03</pdfrwt>
<totfact> 0.22949333E+03</totfact>
</mgrwt>
</event>
<event>
 4    1  0.5917727E-005  0.4474115E+03  0.7818608E-02  0.1028497E+00
         -2   -1    0    0    0  501 -0.00000000000E+00  0.00000000000E+00  0.97650495542E+02  0.97650495575E+02  0.25500000000E-02 0. -1.
          2   -1    0    0  501    0  0.00000000000E+00 -0.00000000000E+00 -0.51248335103E+03  0.51248335104E+03  0.25500000000E-02 0.  1.
    5000001    1    1    2    0    0  0.11280190826E+03 -0.43824037012E+02 -0.19726292719E+03  0.29816351080E+03  0.18800000000E+03 0.  0.
   -5000001    1    1    2    0    0 -0.11280190826E+03  0.43824037012E+02 -0.21756992830E+03  0.31197033581E+03  0.18800000000E+03 0.  0.
<mgrwt>
<rscale>  0 0.44741146E+03</rscale>
<asrwt>0</asrwt>
<pdfrwt beam="1">  1        2 0.73211906E-01 0.44741146E+03</pdfrwt>
<pdfrwt beam="2">  1       -2 0.13950071E-01 0.44741146E+03</pdfrwt>
<totfact> 0.25609533E+03</totfact>
</mgrwt>
</event>
<event>
 4    1  0.5917727E-005  0.6991564E+03  0.7818608E-02  0.9718676E-01
         -2   -1    0    0    0  501 -0.00000000000E+00  0.00000000000E+00  0.45265018381E+02  0.45265018453E+02  0.25500000000E-02 0. -1.
          2   -1    0    0  501    0  0.00000000000E+00 -0.00000000000E+00 -0.26997647587E+04  0.26997647587E+04  0.25500000000E-02 0.  1.
    5000001    1    1    2    0    0 -0.11600740247E+03  0.23753074340E+03 -0.18388979987E+04  0.18672890567E+04  0.18800000000E+03 0.  0.
   -5000001    1    1    2    0    0  0.11600740247E+03 -0.23753074340E+03 -0.81560174164E+03  0.87774072052E+03  0.18800000000E+03 0.  0.
<mgrwt>
<rscale>  0 0.69915635E+03</rscale>
<asrwt>0</asrwt>
<pdfrwt beam="1">  1        2 0.38568058E+00 0.69915635E+03</pdfrwt>
<pdfrwt beam="2">  1       -2 0.64664329E-02 0.69915635E+03</pdfrwt>
<totfact> 0.49630703E+02</totfact>
</mgrwt>
</event>
<event>
 4    1  0.5917727E-005  0.4502147E+03  0.7818608E-02  0.1027658E+00
          2   -1    0    0  501    0  0.00000000000E+00  0.00000000000E+00  0.33109233877E+03  0.33109233878E+03  0.25500000000E-02 0.  1.
         -2   -1    0    0    0  501 -0.00000000000E+00 -0.00000000000E+00 -0.15304890208E+03  0.15304890211E+03  0.25500000000E-02 0. -1.
    5000001    1    1    2    0    0 -0.23889867041E+02  0.74923652230E+02  0.19185772456E+03  0.27988866695E+03  0.18800000000E+03 0.  0.
   -5000001    1    1    2    0    0  0.23889867041E+02 -0.74923652230E+02 -0.13814287879E+02  0.20425257394E+03  0.18800000000E+03 0.  0.
<mgrwt>
<rscale>  0 0.45021470E+03</rscale>
<asrwt>0</asrwt>
<pdfrwt beam="1">  1        2 0.47298905E-01 0.45021470E+03</pdfrwt>
<pdfrwt beam="2">  1       -2 0.21864129E-01 0.45021470E+03</pdfrwt>
<totfact> 0.19324150E+03</totfact>
</mgrwt>
</event>
<event>
 4    1  0.5917727E-005  0.6089704E+03  0.7818608E-02  0.9886968E-01
          2   -1    0    0  501    0  0.00000000000E+00  0.00000000000E+00  0.24358916516E+04  0.24358916516E+04  0.25500000000E-02 0.  1.
         -2   -1    0    0    0  501 -0.00000000000E+00 -0.00000000000E+00 -0.38060496638E+02  0.38060496724E+02  0.25500000000E-02 0. -1.
    5000001    1    1    2    0    0 -0.91717391648E+02  0.18276503154E+03  0.17055442234E+04  0.17280162715E+04  0.18800000000E+03 0.  0.
   -5000001    1    1    2    0    0  0.91717391648E+02 -0.18276503154E+03  0.69228693156E+03  0.74593587680E+03  0.18800000000E+03 0.  0.
<mgrwt>
<rscale>  0 0.60897043E+03</rscale>
<asrwt>0</asrwt>
<pdfrwt beam="1">  1        2 0.34798450E+00 0.60897043E+03</pdfrwt>
<pdfrwt beam="2">  1       -2 0.54372141E-02 0.60897043E+03</pdfrwt>
<totfact> 0.89851573E+02</totfact>
</mgrwt>
</event>
<event>
 4    1  0.5917727E-005  0.4764820E+03  0.7818608E-02  0.1020107E+00
         -2   -1    0    0    0  501 -0.00000000000E+00  0.00000000000E+00  0.63732413336E+03  0.63732413336E+03  0.25500000000E-02 0. -1.
          2   -1    0    0  501    0  0.00000000000E+00 -0.00000000000E+00 -0.89057941023E+02  0.89057941060E+02  0.25500000000E-02 0.  1.
    5000001    1    1    2    0    0 -0.48420464855E+02  0.45933601600E+02  0.75598651317E+02  0.21333915078E+03  0.18800000000E+03 0.  0.
   -5000001    1    1    2    0    0  0.48420464855E+02 -0.45933601600E+02  0.47266754102E+03  0.51304292365E+03  0.18800000000E+03 0.  0.
<mgrwt>
<rscale>  0 0.47648200E+03</rscale>
<asrwt>0</asrwt>
<pdfrwt beam="1">  1        2 0.12722562E-01 0.47648200E+03</pdfrwt>
<pdfrwt beam="2">  1       -2 0.91046309E-01 0.47648200E+03</pdfrwt>
<totfact> 0.50951954E+02</totfact>
</mgrwt>
</event>
<event>
 4    1  0.5917727E-005  0.1081992E+04  0.7818608E-02  0.9222924E-01
          2   -1    0    0  501    0  0.00000000000E+00  0.00000000000E+00  0.59901369813E+03  0.59901369814E+03  0.25500000000E-02 0.  1.
         -2   -1    0    0    0  501 -0.00000000000E+00 -0.00000000000E+00 -0.48859758413E+03  0.48859758413E+03  0.25500000000E-02 0. -1.
    5000001    1    1    2    0    0 -0.29570099990E+03  0.41216238936E+03  0.59194663588E+02  0.54421036809E+03  0.18800000000E+03 0.  0.
   -5000001    1    1    2    0    0  0.29570099990E+03 -0.41216238936E+03  0.51221450415E+02  0.54340091418E+03  0.18800000000E+03 0.  0.
<mgrwt>
<rscale>  0 0.10819920E+04</rscale>
<asrwt>0</asrwt>
<pdfrwt beam="1">  1        2 0.85573386E-01 0.10819920E+04</pdfrwt>
<pdfrwt beam="2">  1       -2 0.69799655E-01 0.10819920E+04</pdfrwt>
<totfact> 0.10118355E+02</totfact>
</mgrwt>
</event>
<event>
 4    1  0.5917727E-005  0.4096716E+03  0.7818608E-02  0.1040481E+00
         -2   -1    0    0    0  501 -0.00000000000E+00  0.00000000000E+00  0.21732355057E+02  0.21732355207E+02  0.25500000000E-02 0. -1.
          2   -1    0    0  501    0  0.00000000000E+00 -0.00000000000E+00 -0.19306561100E+04  0.19306561100E+04  0.25500000000E-02 0.  1.
    5000001    1    1    2    0    0 -0.81166789336E+02  0.22728108583E+01 -0.93288887980E+03  0.95510150006E+03  0.18800000000E+03 0.  0.
   -5000001    1    1    2    0    0  0.81166789336E+02 -0.22728108583E+01 -0.97603487510E+03  0.99728696511E+03  0.18800000000E+03 0.  0.
<mgrwt>
<rscale>  0 0.40967160E+03</rscale>
<asrwt>0</asrwt>
<pdfrwt beam="1">  1        2 0.27580791E+00 0.40967160E+03</pdfrwt>
<pdfrwt beam="2">  1       -2 0.31046234E-02 0.40967160E+03</pdfrwt>
<totfact> 0.38366411E+03</totfact>
</mgrwt>
</event>
<event>
 4    1  0.5917727E-005  0.6515169E+03  0.7818608E-02  0.9803937E-01
         -2   -1    0    0    0  501 -0.00000000000E+00  0.00000000000E+00  0.96201813944E+02  0.96201813977E+02  0.25500000000E-02 0. -1.
          2   -1    0    0  501    0  0.00000000000E+00 -0.00000000000E+00 -0.11030827649E+04  0.11030827649E+04  0.25500000000E-02 0.  1.
    5000001    1    1    2    0    0 -0.13279562872E+03  0.22880665244E+03 -0.55509331525E+03  0.64300836063E+03  0.18800000000E+03 0.  0.
   -5000001    1    1    2    0    0  0.13279562872E+03 -0.22880665244E+03 -0.45178763570E+03  0.55627621824E+03  0.18800000000E+03 0.  0.
<mgrwt>
<rscale>  0 0.65151689E+03</rscale>
<asrwt>0</asrwt>
<pdfrwt beam="1">  1        2 0.15758324E+00 0.65151689E+03</pdfrwt>
<pdfrwt beam="2">  1       -2 0.13743117E-01 0.65151689E+03</pdfrwt>
<totfact> 0.99379006E+02</totfact>
</mgrwt>
</event>
<event>
 4    1  0.5917727E-005  0.6326480E+03  0.7818608E-02  0.9839895E-01
         -2   -1    0    0    0  501 -0.00000000000E+00  0.00000000000E+00  0.51236834471E+03  0.51236834471E+03  0.25500000000E-02 0. -1.
          2   -1    0    0  501    0  0.00000000000E+00 -0.00000000000E+00 -0.19529089808E+03  0.19529089810E+03  0.25500000000E-02 0.  1.
    5000001    1    1    2    0    0  0.30352316559E-01  0.16611973116E+03 -0.56973797991E+02  0.25726597066E+03  0.18800000000E+03 0.  0.
   -5000001    1    1    2    0    0 -0.30352316559E-01 -0.16611973116E+03  0.37405124462E+03  0.45039327215E+03  0.18800000000E+03 0.  0.
<mgrwt>
<rscale>  0 0.63264800E+03</rscale>
<asrwt>0</asrwt>
<pdfrwt beam="1">  1        2 0.27898700E-01 0.63264800E+03</pdfrwt>
<pdfrwt beam="2">  1       -2 0.73195478E-01 0.63264800E+03</pdfrwt>
<totfact> 0.32891298E+02</totfact>
</mgrwt>
</event>
<event>
 4    1  0.5917727E-005  0.5929378E+03  0.7818608E-02  0.9920167E-01
          2   -1    0    0  501    0  0.00000000000E+00  0.00000000000E+00  0.72145427953E+03  0.72145427953E+03  0.25500000000E-02 0.  1.
         -2   -1    0    0    0  501 -0.00000000000E+00 -0.00000000000E+00 -0.12182866664E+03  0.12182866667E+03  0.25500000000E-02 0. -1.
    5000001    1    1    2    0    0 -0.21618131952E+03  0.41251538522E+01  0.40811057192E+03  0.49864779025E+03  0.18800000000E+03 0.  0.
   -5000001    1    1    2    0    0  0.21618131952E+03 -0.41251538522E+01  0.19151504097E+03  0.34463515595E+03  0.18800000000E+03 0.  0.
<mgrwt>
<rscale>  0 0.59293781E+03</rscale>
<asrwt>0</asrwt>
<pdfrwt beam="1">  1        2 0.10306490E+00 0.59293781E+03</pdfrwt>
<pdfrwt beam="2">  1       -2 0.17404095E-01 0.59293781E+03</pdfrwt>
<totfact> 0.11801400E+03</totfact>
</mgrwt>
</event>
<event>
 4    1  0.5917727E-005  0.5892567E+03  0.7818608E-02  0.9927949E-01
         -2   -1    0    0    0  501 -0.00000000000E+00  0.00000000000E+00  0.15469021581E+03  0.15469021583E+03  0.25500000000E-02 0. -1.
          2   -1    0    0  501    0  0.00000000000E+00 -0.00000000000E+00 -0.56115943253E+03  0.56115943254E+03  0.25500000000E-02 0.  1.
    5000001    1    1    2    0    0 -0.11721127415E+03  0.12145521955E+03 -0.38736134766E+03  0.46247450396E+03  0.18800000000E+03 0.  0.
   -5000001    1    1    2    0    0  0.11721127415E+03 -0.12145521955E+03 -0.19107869065E+02  0.25337514441E+03  0.18800000000E+03 0.  0.
<mgrwt>
<rscale>  0 0.58925673E+03</rscale>
<asrwt>0</asrwt>
<pdfrwt beam="1">  1        2 0.80165632E-01 0.58925673E+03</pdfrwt>
<pdfrwt beam="2">  1       -2 0.22098602E-01 0.58925673E+03</pdfrwt>
<totfact> 0.10521734E+03</totfact>
</mgrwt>
</event>
<event>
 4    1  0.5917727E-005  0.6162420E+03  0.7818608E-02  0.9872270E-01
          2   -1    0    0  501    0  0.00000000000E+00  0.00000000000E+00  0.34378821368E+04  0.34378821368E+04  0.25500000000E-02 0.  1.
         -2   -1    0    0    0  501 -0.00000000000E+00 -0.00000000000E+00 -0.27615420043E+02  0.27615420161E+02  0.25500000000E-02 0. -1.
    5000001    1    1    2    0    0 -0.16136908977E+03  0.13704438633E+03  0.23886588167E+04  0.24053806538E+04  0.18800000000E+03 0.  0.
   -5000001    1    1    2    0    0  0.16136908977E+03 -0.13704438633E+03  0.10216079000E+04  0.10601169031E+04  0.18800000000E+03 0.  0.
<mgrwt>
<rscale>  0 0.61624203E+03</rscale>
<asrwt>0</asrwt>
<pdfrwt beam="1">  1        2 0.49112602E+00 0.61624203E+03</pdfrwt>
<pdfrwt beam="2">  1       -2 0.39450600E-02 0.61624203E+03</pdfrwt>
<totfact> 0.42178230E+02</totfact>
</mgrwt>
</event>
<event>
 4    1  0.5917727E-005  0.6289664E+03  0.7818608E-02  0.9847068E-01
          2   -1    0    0  501    0  0.00000000000E+00  0.00000000000E+00  0.12570863073E+04  0.12570863073E+04  0.25500000000E-02 0.  1.
         -2   -1    0    0    0  501 -0.00000000000E+00 -0.00000000000E+00 -0.78673733735E+02  0.78673733777E+02  0.25500000000E-02 0. -1.
    5000001    1    1    2    0    0  0.23079912621E+03 -0.90887250919E+02  0.49359218656E+03  0.58352889875E+03  0.18800000000E+03 0.  0.
   -5000001    1    1    2    0    0 -0.23079912621E+03  0.90887250919E+02  0.68482038701E+03  0.75223114234E+03  0.18800000000E+03 0.  0.
<mgrwt>
<rscale>  0 0.62896637E+03</rscale>
<asrwt>0</asrwt>
<pdfrwt beam="1">  1        2 0.17958376E+00 0.62896637E+03</pdfrwt>
<pdfrwt beam="2">  1       -2 0.11239105E-01 0.62896637E+03</pdfrwt>
<totfact> 0.11347872E+03</totfact>
</mgrwt>
</event>
<event>
 4    1  0.5917727E-005  0.5706524E+03  0.7818608E-02  0.9968236E-01
          2   -1    0    0  501    0  0.00000000000E+00  0.00000000000E+00  0.15984324968E+04  0.15984324968E+04  0.25500000000E-02 0.  1.
         -2   -1    0    0    0  501 -0.00000000000E+00 -0.00000000000E+00 -0.50931791931E+02  0.50931791995E+02  0.25500000000E-02 0. -1.
    5000001    1    1    2    0    0 -0.19489208808E+03 -0.83051139696E+02  0.67418697435E+03  0.73126773085E+03  0.18800000000E+03 0.  0.
   -5000001    1    1    2    0    0  0.19489208808E+03  0.83051139696E+02  0.87331373053E+03  0.91809655796E+03  0.18800000000E+03 0.  0.
<mgrwt>
<rscale>  0 0.57065237E+03</rscale>
<asrwt>0</asrwt>
<pdfrwt beam="1">  1        2 0.22834748E+00 0.57065237E+03</pdfrwt>
<pdfrwt beam="2">  1       -2 0.72759708E-02 0.57065237E+03</pdfrwt>
<totfact> 0.15095954E+03</totfact>
</mgrwt>
</event>
<event>
 4    1  0.5917727E-005  0.4943816E+03  0.7818608E-02  0.1015256E+00
         -2   -1    0    0    0  501 -0.00000000000E+00  0.00000000000E+00  0.86033012434E+02  0.86033012472E+02  0.25500000000E-02 0. -1.
          2   -1    0    0  501    0  0.00000000000E+00 -0.00000000000E+00 -0.71023089369E+03  0.71023089370E+03  0.25500000000E-02 0.  1.
    5000001    1    1    2    0    0 -0.41905709243E+02  0.14386878886E+03 -0.40469223397E+03  0.47071660382E+03  0.18800000000E+03 0.  0.
   -5000001    1    1    2    0    0  0.41905709243E+02 -0.14386878886E+03 -0.21950564729E+03  0.32554730235E+03  0.18800000000E+03 0.  0.
<mgrwt>
<rscale>  0 0.49438165E+03</rscale>
<asrwt>0</asrwt>
<pdfrwt beam="1">  1        2 0.10146155E+00 0.49438165E+03</pdfrwt>
<pdfrwt beam="2">  1       -2 0.12290431E-01 0.49438165E+03</pdfrwt>
<totfact> 0.21560430E+03</totfact>
</mgrwt>
</event>
<event>
 4    1  0.5917727E-005  0.4533606E+03  0.7818608E-02  0.1026725E+00
          2   -1    0    0  501    0  0.00000000000E+00  0.00000000000E+00  0.16483574253E+03  0.16483574255E+03  0.25500000000E-02 0.  1.
         -2   -1    0    0    0  501 -0.00000000000E+00 -0.00000000000E+00 -0.31172825165E+03  0.31172825166E+03  0.25500000000E-02 0. -1.
    5000001    1    1    2    0    0 -0.48962380018E+02  0.10238699428E+03 -0.14359540794E+02  0.22006955188E+03  0.18800000000E+03 0.  0.
   -5000001    1    1    2    0    0  0.48962380018E+02 -0.10238699428E+03 -0.13253296832E+03  0.25649444233E+03  0.18800000000E+03 0.  0.
<mgrwt>
<rscale>  0 0.45336060E+03</rscale>
<asrwt>0</asrwt>
<pdfrwt beam="1">  1        2 0.23547963E-01 0.45336060E+03</pdfrwt>
<pdfrwt beam="2">  1       -2 0.44532607E-01 0.45336060E+03</pdfrwt>
<totfact> 0.11225036E+03</totfact>
</mgrwt>
</event>
<event>
 4    1  0.5917727E-005  0.4361732E+03  0.7818608E-02  0.1031927E+00
          2   -1    0    0  501    0  0.00000000000E+00  0.00000000000E+00  0.69986947393E+03  0.69986947393E+03  0.25500000000E-02 0.  1.
         -2   -1    0    0    0  501 -0.00000000000E+00 -0.00000000000E+00 -0.67958054928E+02  0.67958054976E+02  0.25500000000E-02 0. -1.
    5000001    1    1    2    0    0 -0.78697384537E+02  0.54399933448E+02  0.41341643461E+03  0.46412259102E+03  0.18800000000E+03 0.  0.
   -5000001    1    1    2    0    0  0.78697384537E+02 -0.54399933448E+02  0.21849498439E+03  0.30370493788E+03  0.18800000000E+03 0.  0.
<mgrwt>
<rscale>  0 0.43617321E+03</rscale>
<asrwt>0</asrwt>
<pdfrwt beam="1">  1        2 0.99981357E-01 0.43617321E+03</pdfrwt>
<pdfrwt beam="2">  1       -2 0.97082932E-02 0.43617321E+03</pdfrwt>
<totfact> 0.32155717E+03</totfact>
</mgrwt>
</event>
<event>
 4    1  0.5917727E-005  0.4576510E+03  0.7818608E-02  0.1025465E+00
         -2   -1    0    0    0  501 -0.00000000000E+00  0.00000000000E+00  0.12010430808E+02  0.12010431079E+02  0.25500000000E-02 0. -1.
          2   -1    0    0  501    0  0.00000000000E+00 -0.00000000000E+00 -0.43596355468E+04  0.43596355468E+04  0.25500000000E-02 0.  1.
    5000001    1    1    2    0    0  0.55719977831E+02  0.10922146907E+03 -0.17484315080E+04  0.17627792781E+04  0.18800000000E+03 0.  0.
   -5000001    1    1    2    0    0 -0.55719977831E+02 -0.10922146907E+03 -0.25991936080E+04  0.26088666998E+04  0.18800000000E+03 0.  0.
<mgrwt>
<rscale>  0 0.45765097E+03</rscale>
<asrwt>0</asrwt>
<pdfrwt beam="1">  1        2 0.62280407E+00 0.45765097E+03</pdfrwt>
<pdfrwt beam="2">  1       -2 0.17157786E-02 0.45765097E+03</pdfrwt>
<totfact> 0.38033794E+02</totfact>
</mgrwt>
</event>
<event>
 4    1  0.5917727E-005  0.6847791E+03  0.7818608E-02  0.9743622E-01
          2   -1    0    0  501    0  0.00000000000E+00  0.00000000000E+00  0.82374364797E+03  0.82374364797E+03  0.25500000000E-02 0.  1.
         -2   -1    0    0    0  501 -0.00000000000E+00 -0.00000000000E+00 -0.14231443723E+03  0.14231443725E+03  0.25500000000E-02 0. -1.
    5000001    1    1    2    0    0  0.24053050133E+03 -0.15148706064E+03  0.38714897350E+03  0.51578249224E+03  0.18800000000E+03 0.  0.
   -5000001    1    1    2    0    0 -0.24053050133E+03  0.15148706064E+03  0.29428023723E+03  0.45027559299E+03  0.18800000000E+03 0.  0.
<mgrwt>
<rscale>  0 0.68477913E+03</rscale>
<asrwt>0</asrwt>
<pdfrwt beam="1">  1        2 0.11767766E+00 0.68477913E+03</pdfrwt>
<pdfrwt beam="2">  1       -2 0.20330635E-01 0.68477913E+03</pdfrwt>
<totfact> 0.76120154E+02</totfact>
</mgrwt>
</event>
<event>
 4    1  0.5917727E-005  0.5051148E+03  0.7818608E-02  0.1012452E+00
          2   -1    0    0  501    0  0.00000000000E+00  0.00000000000E+00  0.21710504891E+03  0.21710504893E+03  0.25500000000E-02 0.  1.
         -2   -1    0    0    0  501 -0.00000000000E+00 -0.00000000000E+00 -0.29379899110E+03  0.29379899111E+03  0.25500000000E-02 0. -1.
    5000001    1    1    2    0    0  0.14642742337E+02  0.15808242140E+03 -0.95891758113E+02  0.26409030867E+03  0.18800000000E+03 0.  0.
   -5000001    1    1    2    0    0 -0.14642742337E+02 -0.15808242140E+03  0.19197815929E+02  0.24681373137E+03  0.18800000000E+03 0.  0.
<mgrwt>
<rscale>  0 0.50511482E+03</rscale>
<asrwt>0</asrwt>
<pdfrwt beam="1">  1        2 0.31015007E-01 0.50511482E+03</pdfrwt>
<pdfrwt beam="2">  1       -2 0.41971284E-01 0.50511482E+03</pdfrwt>
<totfact> 0.92437313E+02</totfact>
</mgrwt>
</event>
<event>
 4    1  0.5917727E-005  0.6608500E+03  0.7818608E-02  0.9786630E-01
          2   -1    0    0  501    0  0.00000000000E+00  0.00000000000E+00  0.12579757571E+04  0.12579757571E+04  0.25500000000E-02 0.  1.
         -2   -1    0    0    0  501 -0.00000000000E+00 -0.00000000000E+00 -0.86790762071E+02  0.86790762108E+02  0.25500000000E-02 0. -1.
    5000001    1    1    2    0    0  0.64622040394E+01 -0.15534863205E+03  0.10390690865E+04  0.10673254068E+04  0.18800000000E+03 0.  0.
   -5000001    1    1    2    0    0 -0.64622040394E+01  0.15534863205E+03  0.13211590858E+03  0.27744111242E+03  0.18800000000E+03 0.  0.
<mgrwt>
<rscale>  0 0.66084998E+03</rscale>
<asrwt>0</asrwt>
<pdfrwt beam="1">  1        2 0.17971083E+00 0.66084998E+03</pdfrwt>
<pdfrwt beam="2">  1       -2 0.12398680E-01 0.66084998E+03</pdfrwt>
<totfact> 0.96329553E+02</totfact>
</mgrwt>
</event>
<event>
 4    1  0.5917727E-005  0.1005843E+04  0.7818608E-02  0.9302160E-01
          2   -1    0    0  501    0  0.00000000000E+00  0.00000000000E+00  0.26363742239E+03  0.26363742241E+03  0.25500000000E-02 0.  1.
         -2   -1    0    0    0  501 -0.00000000000E+00 -0.00000000000E+00 -0.95938503546E+03  0.95938503546E+03  0.25500000000E-02 0. -1.
    5000001    1    1    2    0    0  0.38527482330E+03 -0.20241819027E+03 -0.14377334419E+03  0.49540345954E+03  0.18800000000E+03 0.  0.
   -5000001    1    1    2    0    0 -0.38527482330E+03  0.20241819027E+03 -0.55197426888E+03  0.72761899833E+03  0.18800000000E+03 0.  0.
<mgrwt>
<rscale>  0 0.10058425E+04</rscale>
<asrwt>0</asrwt>
<pdfrwt beam="1">  1        2 0.37662489E-01 0.10058425E+04</pdfrwt>
<pdfrwt beam="2">  1       -2 0.13705500E+00 0.10058425E+04</pdfrwt>
<totfact> 0.52179071E+01</totfact>
</mgrwt>
</event>
<event>
 4    1  0.5917727E-005  0.5437453E+03  0.7818608E-02  0.1002952E+00
          2   -1    0    0  501    0  0.00000000000E+00  0.00000000000E+00  0.19826267706E+04  0.19826267707E+04  0.25500000000E-02 0. -1.
         -2   -1    0    0    0  501 -0.00000000000E+00 -0.00000000000E+00 -0.37281215526E+02  0.37281215613E+02  0.25500000000E-02 0.  1.
    5000001    1    1    2    0    0 -0.18964129770E+02 -0.19536668812E+03  0.99701963364E+03  0.10334021148E+04  0.18800000000E+03 0.  0.
   -5000001    1    1    2    0    0  0.18964129770E+02  0.19536668812E+03  0.94832592149E+03  0.98650587145E+03  0.18800000000E+03 0.  0.
<mgrwt>
<rscale>  0 0.54374529E+03</rscale>
<asrwt>0</asrwt>
<pdfrwt beam="1">  1        2 0.28323245E+00 0.54374529E+03</pdfrwt>
<pdfrwt beam="2">  1       -2 0.53258870E-02 0.54374529E+03</pdfrwt>
<totfact> 0.15764741E+03</totfact>
</mgrwt>
</event>
<event>
 4    1  0.5917727E-005  0.4958171E+03  0.7818608E-02  0.1014877E+00
          2   -1    0    0  501    0  0.00000000000E+00  0.00000000000E+00  0.16933559297E+03  0.16933559298E+03  0.25500000000E-02 0. -1.
         -2   -1    0    0    0  501 -0.00000000000E+00 -0.00000000000E+00 -0.36293999729E+03  0.36293999730E+03  0.25500000000E-02 0.  1.
    5000001    1    1    2    0    0  0.10506134100E+03  0.74980806370E+02 -0.20118713319E+03  0.30410568764E+03  0.18800000000E+03 0.  0.
   -5000001    1    1    2    0    0 -0.10506134100E+03 -0.74980806370E+02  0.75827288569E+01  0.22816990265E+03  0.18800000000E+03 0.  0.
<mgrwt>
<rscale>  0 0.49581714E+03</rscale>
<asrwt>0</asrwt>
<pdfrwt beam="1">  1        2 0.24190799E-01 0.49581714E+03</pdfrwt>
<pdfrwt beam="2">  1       -2 0.51848571E-01 0.49581714E+03</pdfrwt>
<totfact> 0.80301755E+02</totfact>
</mgrwt>
</event>
<event>
 4    1  0.5917727E-005  0.5970872E+03  0.7818608E-02  0.9911468E-01
         -2   -1    0    0    0  501 -0.00000000000E+00  0.00000000000E+00  0.44812389183E+03  0.44812389183E+03  0.25500000000E-02 0. -1.
          2   -1    0    0  501    0  0.00000000000E+00 -0.00000000000E+00 -0.19889203108E+03  0.19889203110E+03  0.25500000000E-02 0.  1.
    5000001    1    1    2    0    0  0.74075791555E+02 -0.21802993543E+03  0.15448919674E+03  0.33501520495E+03  0.18800000000E+03 0.  0.
   -5000001    1    1    2    0    0 -0.74075791555E+02  0.21802993543E+03  0.94742664000E+02  0.31200071798E+03  0.18800000000E+03 0.  0.
<mgrwt>
<rscale>  0 0.59708717E+03</rscale>
<asrwt>0</asrwt>
<pdfrwt beam="1">  1        2 0.28413148E-01 0.59708717E+03</pdfrwt>
<pdfrwt beam="2">  1       -2 0.64017698E-01 0.59708717E+03</pdfrwt>
<totfact> 0.43086121E+02</totfact>
</mgrwt>
</event>
<event>
 4    1  0.5917727E-005  0.4228825E+03  0.7818608E-02  0.1036132E+00
          2   -1    0    0  501    0  0.00000000000E+00  0.00000000000E+00  0.19803479906E+03  0.19803479907E+03  0.25500000000E-02 0.  1.
         -2   -1    0    0    0  501 -0.00000000000E+00 -0.00000000000E+00 -0.22575523471E+03  0.22575523473E+03  0.25500000000E-02 0. -1.
    5000001    1    1    2    0    0  0.85191764565E+02 -0.40067670841E+02  0.85560146914E+01  0.21042875370E+03  0.18800000000E+03 0.  0.
   -5000001    1    1    2    0    0 -0.85191764565E+02  0.40067670841E+02 -0.36276450349E+02  0.21336128010E+03  0.18800000000E+03 0.  0.
<mgrwt>
<rscale>  0 0.42288245E+03</rscale>
<asrwt>0</asrwt>
<pdfrwt beam="1">  1        2 0.28290686E-01 0.42288245E+03</pdfrwt>
<pdfrwt beam="2">  1       -2 0.32250748E-01 0.42288245E+03</pdfrwt>
<totfact> 0.16893457E+03</totfact>
</mgrwt>
</event>
<event>
 4    1  0.5917727E-005  0.1001831E+04  0.7818608E-02  0.9306539E-01
          2   -1    0    0  501    0  0.00000000000E+00  0.00000000000E+00  0.49803286003E+03  0.49803286004E+03  0.25500000000E-02 0.  1.
         -2   -1    0    0    0  501 -0.00000000000E+00 -0.00000000000E+00 -0.50381476392E+03  0.50381476393E+03  0.25500000000E-02 0. -1.
    5000001    1    1    2    0    0  0.65526538629E+02  0.30344754541E+03  0.34236567438E+03  0.49893125285E+03  0.18800000000E+03 0.  0.
   -5000001    1    1    2    0    0 -0.65526538629E+02 -0.30344754541E+03 -0.34814757827E+03  0.50291637112E+03  0.18800000000E+03 0.  0.
<mgrwt>
<rscale>  0 0.10018309E+04</rscale>
<asrwt>0</asrwt>
<pdfrwt beam="1">  1        2 0.71147551E-01 0.10018309E+04</pdfrwt>
<pdfrwt beam="2">  1       -2 0.71973538E-01 0.10018309E+04</pdfrwt>
<totfact> 0.11787360E+02</totfact>
</mgrwt>
</event>
<event>
 4    1  0.5917727E-005  0.1665944E+04  0.7818608E-02  0.8781030E-01
         -2   -1    0    0    0  501 -0.00000000000E+00  0.00000000000E+00  0.52937089163E+03  0.52937089164E+03  0.25500000000E-02 0. -1.
          2   -1    0    0  501    0  0.00000000000E+00 -0.00000000000E+00 -0.13106920862E+04  0.13106920862E+04  0.25500000000E-02 0.  1.
    5000001    1    1    2    0    0 -0.60321679166E+03 -0.28778735303E+03 -0.89898579513E+03  0.11358747810E+04  0.18800000000E+03 0.  0.
   -5000001    1    1    2    0    0  0.60321679166E+03  0.28778735303E+03  0.11766460057E+03  0.70418819681E+03  0.18800000000E+03 0.  0.
<mgrwt>
<rscale>  0 0.16659439E+04</rscale>
<asrwt>0</asrwt>
<pdfrwt beam="1">  1        2 0.18724173E+00 0.16659439E+04</pdfrwt>
<pdfrwt beam="2">  1       -2 0.75624414E-01 0.16659439E+04</pdfrwt>
<totfact> 0.27768687E+01</totfact>
</mgrwt>
</event>
<event>
 4    1  0.5917727E-005  0.5680425E+03  0.7818608E-02  0.9974020E-01
          2   -1    0    0  501    0  0.00000000000E+00  0.00000000000E+00  0.44865733068E+03  0.44865733069E+03  0.25500000000E-02 0.  1.
         -2   -1    0    0    0  501 -0.00000000000E+00 -0.00000000000E+00 -0.17979885906E+03  0.17979885908E+03  0.25500000000E-02 0. -1.
    5000001    1    1    2    0    0  0.20900998157E+03  0.28219232698E+02  0.16654360503E+03  0.32796687313E+03  0.18800000000E+03 0.  0.
   -5000001    1    1    2    0    0 -0.20900998157E+03 -0.28219232698E+02  0.10231486658E+03  0.30048931664E+03  0.18800000000E+03 0.  0.
<mgrwt>
<rscale>  0 0.56804252E+03</rscale>
<asrwt>0</asrwt>
<pdfrwt beam="1">  1        2 0.64093903E-01 0.56804252E+03</pdfrwt>
<pdfrwt beam="2">  1       -2 0.25685552E-01 0.56804252E+03</pdfrwt>
<totfact> 0.10384092E+03</totfact>
</mgrwt>
</event>
<event>
 4    1  0.5917727E-005  0.6922698E+03  0.7818608E-02  0.9730544E-01
         -2   -1    0    0    0  501 -0.00000000000E+00  0.00000000000E+00  0.58340331620E+02  0.58340331676E+02  0.25500000000E-02 0. -1.
          2   -1    0    0  501    0  0.00000000000E+00 -0.00000000000E+00 -0.20536285902E+04  0.20536285902E+04  0.25500000000E-02 0.  1.
    5000001    1    1    2    0    0  0.20876456230E+03  0.21335494538E+02 -0.16110539418E+04  0.16355050135E+04  0.18800000000E+03 0.  0.
   -5000001    1    1    2    0    0 -0.20876456230E+03 -0.21335494538E+02 -0.38423431682E+03  0.47646390842E+03  0.18800000000E+03 0.  0.
<mgrwt>
<rscale>  0 0.69226981E+03</rscale>
<asrwt>0</asrwt>
<pdfrwt beam="1">  1        2 0.29337547E+00 0.69226981E+03</pdfrwt>
<pdfrwt beam="2">  1       -2 0.83343344E-02 0.69226981E+03</pdfrwt>
<totfact> 0.71079304E+02</totfact>
</mgrwt>
</event>
<event>
 4    1  0.5917727E-005  0.4835355E+03  0.7818608E-02  0.1018168E+00
          2   -1    0    0  501    0  0.00000000000E+00  0.00000000000E+00  0.46371738796E+04  0.46371738796E+04  0.25500000000E-02 0.  1.
         -2   -1    0    0    0  501 -0.00000000000E+00 -0.00000000000E+00 -0.12605015917E+02  0.12605016175E+02  0.25500000000E-02 0. -1.
    5000001    1    1    2    0    0 -0.73932661085E+02  0.10894628736E+03  0.30428834532E+04  0.30515273294E+04  0.18800000000E+03 0.  0.
   -5000001    1    1    2    0    0  0.73932661085E+02 -0.10894628736E+03  0.15816854105E+04  0.15982515665E+04  0.18800000000E+03 0.  0.
<mgrwt>
<rscale>  0 0.48353553E+03</rscale>
<asrwt>0</asrwt>
<pdfrwt beam="1">  1        2 0.66245531E+00 0.48353553E+03</pdfrwt>
<pdfrwt beam="2">  1       -2 0.18007114E-02 0.48353553E+03</pdfrwt>
<totfact> 0.21530163E+02</totfact>
</mgrwt>
</event>
<event>
 4    1  0.5917727E-005  0.6466443E+03  0.7818608E-02  0.9813096E-01
          2   -1    0    0  501    0  0.00000000000E+00  0.00000000000E+00  0.33765743931E+04  0.33765743931E+04  0.25500000000E-02 0.  1.
         -2   -1    0    0    0  501 -0.00000000000E+00 -0.00000000000E+00 -0.30959542798E+02  0.30959542903E+02  0.25500000000E-02 0. -1.
    5000001    1    1    2    0    0  0.12228865361E+03  0.21176286180E+03  0.21835795691E+04  0.22052577535E+04  0.18800000000E+03 0.  0.
   -5000001    1    1    2    0    0 -0.12228865361E+03 -0.21176286180E+03  0.11620352812E+04  0.12022761825E+04  0.18800000000E+03 0.  0.
<mgrwt>
<rscale>  0 0.64664426E+03</rscale>
<asrwt>0</asrwt>
<pdfrwt beam="1">  1        2 0.48236751E+00 0.64664426E+03</pdfrwt>
<pdfrwt beam="2">  1       -2 0.44227943E-02 0.64664426E+03</pdfrwt>
<totfact> 0.38275379E+02</totfact>
</mgrwt>
</event>
<event>
 4    1  0.5917727E-005  0.6180730E+03  0.7818608E-02  0.9868604E-01
         -2   -1    0    0    0  501 -0.00000000000E+00  0.00000000000E+00  0.15461435649E+03  0.15461435652E+03  0.25500000000E-02 0. -1.
          2   -1    0    0  501    0  0.00000000000E+00 -0.00000000000E+00 -0.61768887439E+03  0.61768887439E+03  0.25500000000E-02 0.  1.
    5000001    1    1    2    0    0  0.70097390194E+01 -0.19383215546E+03 -0.41913191212E+03  0.49863373400E+03  0.18800000000E+03 0.  0.
   -5000001    1    1    2    0    0 -0.70097390194E+01  0.19383215546E+03 -0.43942605777E+02  0.27366949690E+03  0.18800000000E+03 0.  0.
<mgrwt>
<rscale>  0 0.61807303E+03</rscale>
<asrwt>0</asrwt>
<pdfrwt beam="1">  1        2 0.88241267E-01 0.61807303E+03</pdfrwt>
<pdfrwt beam="2">  1       -2 0.22087766E-01 0.61807303E+03</pdfrwt>
<totfact> 0.94064175E+02</totfact>
</mgrwt>
</event>
<event>
 4    1  0.5917727E-005  0.4396697E+03  0.7818608E-02  0.1030848E+00
         -2   -1    0    0    0  501 -0.00000000000E+00  0.00000000000E+00  0.15661350310E+02  0.15661350517E+02  0.25500000000E-02 0. -1.
          2   -1    0    0  501    0  0.00000000000E+00 -0.00000000000E+00 -0.30857726221E+04  0.30857726221E+04  0.25500000000E-02 0.  1.
    5000001    1    1    2    0    0 -0.10605609073E+03 -0.41228203497E+02 -0.14929040600E+04  0.15089911171E+04  0.18800000000E+03 0.  0.
   -5000001    1    1    2    0    0  0.10605609073E+03  0.41228203497E+02 -0.15772072118E+04  0.15924428555E+04  0.18800000000E+03 0.  0.
<mgrwt>
<rscale>  0 0.43966972E+03</rscale>
<asrwt>0</asrwt>
<pdfrwt beam="1">  1        2 0.44082427E+00 0.43966972E+03</pdfrwt>
<pdfrwt beam="2">  1       -2 0.22373377E-02 0.43966972E+03</pdfrwt>
<totfact> 0.16055917E+03</totfact>
</mgrwt>
</event>
<event>
 4    1  0.5917727E-005  0.1432481E+04  0.7818608E-02  0.8930637E-01
          2   -1    0    0  501    0  0.00000000000E+00  0.00000000000E+00  0.29072628963E+04  0.29072628963E+04  0.25500000000E-02 0.  1.
         -2   -1    0    0    0  501 -0.00000000000E+00 -0.00000000000E+00 -0.17645470877E+03  0.17645470879E+03  0.25500000000E-02 0. -1.
    5000001    1    1    2    0    0 -0.53235246919E+03 -0.44059734577E+03  0.13900481891E+04  0.15636825575E+04  0.18800000000E+03 0.  0.
   -5000001    1    1    2    0    0  0.53235246919E+03  0.44059734577E+03  0.13407599984E+04  0.15200350476E+04  0.18800000000E+03 0.  0.
<mgrwt>
<rscale>  0 0.14324807E+04</rscale>
<asrwt>0</asrwt>
<pdfrwt beam="1">  1        2 0.41532330E+00 0.14324807E+04</pdfrwt>
<pdfrwt beam="2">  1       -2 0.25207814E-01 0.14324807E+04</pdfrwt>
<totfact> 0.36684767E+01</totfact>
</mgrwt>
</event>
<event>
 4    1  0.5917727E-005  0.7169710E+03  0.7818608E-02  0.9688642E-01
         -2   -1    0    0    0  501 -0.00000000000E+00  0.00000000000E+00  0.20532844925E+03  0.20532844927E+03  0.25500000000E-02 0.  1.
          2   -1    0    0  501    0  0.00000000000E+00 -0.00000000000E+00 -0.62588431282E+03  0.62588431282E+03  0.25500000000E-02 0. -1.
    5000001    1    1    2    0    0 -0.23780225078E+03 -0.14909708485E+02  0.10896705199E+02  0.30370207122E+03  0.18800000000E+03 0.  0.
   -5000001    1    1    2    0    0  0.23780225078E+03  0.14909708485E+02 -0.43145256877E+03  0.52751069087E+03  0.18800000000E+03 0.  0.
<mgrwt>
<rscale>  0 0.71697100E+03</rscale>
<asrwt>0</asrwt>
<pdfrwt beam="1">  1        2 0.89412044E-01 0.71697100E+03</pdfrwt>
<pdfrwt beam="2">  1       -2 0.29332636E-01 0.71697100E+03</pdfrwt>
<totfact> 0.55378231E+02</totfact>
</mgrwt>
</event>
<event>
 4    1  0.5917727E-005  0.6190269E+03  0.7818608E-02  0.9866699E-01
         -2   -1    0    0    0  501 -0.00000000000E+00  0.00000000000E+00  0.12215312865E+03  0.12215312868E+03  0.25500000000E-02 0. -1.
          2   -1    0    0  501    0  0.00000000000E+00 -0.00000000000E+00 -0.78424992308E+03  0.78424992309E+03  0.25500000000E-02 0.  1.
    5000001    1    1    2    0    0 -0.13679445753E+03  0.20413352729E+03 -0.31867916152E+03  0.44416621727E+03  0.18800000000E+03 0.  0.
   -5000001    1    1    2    0    0  0.13679445753E+03 -0.20413352729E+03 -0.34341763291E+03  0.46223683450E+03  0.18800000000E+03 0.  0.
<mgrwt>
<rscale>  0 0.61902692E+03</rscale>
<asrwt>0</asrwt>
<pdfrwt beam="1">  1        2 0.11203570E+00 0.61902692E+03</pdfrwt>
<pdfrwt beam="2">  1       -2 0.17450447E-01 0.61902692E+03</pdfrwt>
<totfact> 0.10577812E+03</totfact>
</mgrwt>
</event>
<event>
 4    1  0.5917727E-005  0.5701361E+03  0.7818608E-02  0.9969377E-01
          2   -1    0    0  501    0  0.00000000000E+00  0.00000000000E+00  0.17065848059E+04  0.17065848059E+04  0.25500000000E-02 0.  1.
         -2   -1    0    0    0  501 -0.00000000000E+00 -0.00000000000E+00 -0.47617787609E+02  0.47617787678E+02  0.25500000000E-02 0. -1.
    5000001    1    1    2    0    0 -0.19407813354E+03  0.45683381024E+02  0.58787036055E+03  0.64860531453E+03  0.18800000000E+03 0.  0.
   -5000001    1    1    2    0    0  0.19407813354E+03 -0.45683381024E+02  0.10710966577E+04  0.11055972790E+04  0.18800000000E+03 0.  0.
<mgrwt>
<rscale>  0 0.57013610E+03</rscale>
<asrwt>0</asrwt>
<pdfrwt beam="1">  1        2 0.24379782E+00 0.57013610E+03</pdfrwt>
<pdfrwt beam="2">  1       -2 0.68025414E-02 0.57013610E+03</pdfrwt>
<totfact> 0.14785744E+03</totfact>
</mgrwt>
</event>
<event>
 4    1  0.5917727E-005  0.4561359E+03  0.7818608E-02  0.1025908E+00
          2   -1    0    0  501    0  0.00000000000E+00  0.00000000000E+00  0.12966631814E+04  0.12966631814E+04  0.25500000000E-02 0.  1.
         -2   -1    0    0    0  501 -0.00000000000E+00 -0.00000000000E+00 -0.40114500414E+02  0.40114500495E+02  0.25500000000E-02 0. -1.
    5000001    1    1    2    0    0  0.10122896507E+03  0.49993019810E+01  0.86270303050E+03  0.88874789183E+03  0.18800000000E+03 0.  0.
   -5000001    1    1    2    0    0 -0.10122896507E+03 -0.49993019810E+01  0.39384565051E+03  0.44802979010E+03  0.18800000000E+03 0.  0.
<mgrwt>
<rscale>  0 0.45613593E+03</rscale>
<asrwt>0</asrwt>
<pdfrwt beam="1">  1        2 0.18523755E+00 0.45613593E+03</pdfrwt>
<pdfrwt beam="2">  1       -2 0.57306444E-02 0.45613593E+03</pdfrwt>
<totfact> 0.31654245E+03</totfact>
</mgrwt>
</event>
<event>
 4    1  0.5917727E-005  0.5226516E+03  0.7818608E-02  0.1008030E+00
         -2   -1    0    0    0  501 -0.00000000000E+00  0.00000000000E+00  0.83262841274E+02  0.83262841313E+02  0.25500000000E-02 0. -1.
          2   -1    0    0  501    0  0.00000000000E+00 -0.00000000000E+00 -0.82018800287E+03  0.82018800287E+03  0.25500000000E-02 0.  1.
    5000001    1    1    2    0    0  0.13255316472E+03  0.68653466988E+02 -0.18996062233E+03  0.30612526528E+03  0.18800000000E+03 0.  0.
   -5000001    1    1    2    0    0 -0.13255316472E+03 -0.68653466988E+02 -0.54696453926E+03  0.59732557891E+03  0.18800000000E+03 0.  0.
<mgrwt>
<rscale>  0 0.52265164E+03</rscale>
<asrwt>0</asrwt>
<pdfrwt beam="1">  1        2 0.11716971E+00 0.52265164E+03</pdfrwt>
<pdfrwt beam="2">  1       -2 0.11894692E-01 0.52265164E+03</pdfrwt>
<totfact> 0.19003840E+03</totfact>
</mgrwt>
</event>
<event>
 4    1  0.5917727E-005  0.1015564E+04  0.7818608E-02  0.9291638E-01
          2   -1    0    0  501    0  0.00000000000E+00  0.00000000000E+00  0.17377205047E+04  0.17377205047E+04  0.25500000000E-02 0.  1.
         -2   -1    0    0    0  501 -0.00000000000E+00 -0.00000000000E+00 -0.14837962142E+03  0.14837962144E+03  0.25500000000E-02 0. -1.
    5000001    1    1    2    0    0 -0.27905494589E+02  0.35086537670E+03  0.13778803868E+04  0.14344976785E+04  0.18800000000E+03 0.  0.
   -5000001    1    1    2    0    0  0.27905494589E+02 -0.35086537670E+03  0.21146049650E+03  0.45160244770E+03  0.18800000000E+03 0.  0.
<mgrwt>
<rscale>  0 0.10155635E+04</rscale>
<asrwt>0</asrwt>
<pdfrwt beam="1">  1        2 0.24824579E+00 0.10155635E+04</pdfrwt>
<pdfrwt beam="2">  1       -2 0.21197088E-01 0.10155635E+04</pdfrwt>
<totfact> 0.21075263E+02</totfact>
</mgrwt>
</event>
<event>
 4    1  0.5917727E-005  0.5589972E+03  0.7818608E-02  0.9994326E-01
          2   -1    0    0  501    0  0.00000000000E+00  0.00000000000E+00  0.11344350142E+04  0.11344350142E+04  0.25500000000E-02 0.  1.
         -2   -1    0    0    0  501 -0.00000000000E+00 -0.00000000000E+00 -0.68862013749E+02  0.68862013797E+02  0.25500000000E-02 0. -1.
    5000001    1    1    2    0    0  0.14757520475E+03  0.28649288458E+02  0.22702452448E+03  0.33088269448E+03  0.18800000000E+03 0.  0.
   -5000001    1    1    2    0    0 -0.14757520475E+03 -0.28649288458E+02  0.83854847594E+03  0.87241433350E+03  0.18800000000E+03 0.  0.
<mgrwt>
<rscale>  0 0.55899724E+03</rscale>
<asrwt>0</asrwt>
<pdfrwt beam="1">  1        2 0.16206215E+00 0.55899724E+03</pdfrwt>
<pdfrwt beam="2">  1       -2 0.98374303E-02 0.55899724E+03</pdfrwt>
<totfact> 0.16544554E+03</totfact>
</mgrwt>
</event>
<event>
 4    1  0.5917727E-005  0.5458244E+03  0.7818608E-02  0.1002465E+00
         -2   -1    0    0    0  501 -0.00000000000E+00  0.00000000000E+00  0.11937668503E+03  0.11937668506E+03  0.25500000000E-02 0. -1.
          2   -1    0    0  501    0  0.00000000000E+00 -0.00000000000E+00 -0.62391635781E+03  0.62391635782E+03  0.25500000000E-02 0.  1.
    5000001    1    1    2    0    0  0.48403729719E+02  0.19125038311E+03 -0.23218939256E+03  0.35801612269E+03  0.18800000000E+03 0.  0.
   -5000001    1    1    2    0    0 -0.48403729719E+02 -0.19125038311E+03 -0.27235028022E+03  0.38527692018E+03  0.18800000000E+03 0.  0.
<mgrwt>
<rscale>  0 0.54582439E+03</rscale>
<asrwt>0</asrwt>
<pdfrwt beam="1">  1        2 0.89130906E-01 0.54582439E+03</pdfrwt>
<pdfrwt beam="2">  1       -2 0.17053813E-01 0.54582439E+03</pdfrwt>
<totfact> 0.14566743E+03</totfact>
</mgrwt>
</event>
<event>
 4    1  0.5917727E-005  0.4812036E+03  0.7818608E-02  0.1018805E+00
          2   -1    0    0  501    0  0.00000000000E+00  0.00000000000E+00  0.11336785546E+04  0.11336785546E+04  0.25500000000E-02 0.  1.
         -2   -1    0    0    0  501 -0.00000000000E+00 -0.00000000000E+00 -0.51063179815E+02  0.51063179879E+02  0.25500000000E-02 0. -1.
    5000001    1    1    2    0    0 -0.13953088897E+03  0.51817383120E+02  0.49260400535E+03  0.54786550928E+03  0.18800000000E+03 0.  0.
   -5000001    1    1    2    0    0  0.13953088897E+03 -0.51817383120E+02  0.59001136947E+03  0.63687622523E+03  0.18800000000E+03 0.  0.
<mgrwt>
<rscale>  0 0.48120362E+03</rscale>
<asrwt>0</asrwt>
<pdfrwt beam="1">  1        2 0.16195405E+00 0.48120362E+03</pdfrwt>
<pdfrwt beam="2">  1       -2 0.72947411E-02 0.48120362E+03</pdfrwt>
<totfact> 0.26708437E+03</totfact>
</mgrwt>
</event>
<event>
 4    1  0.5917727E-005  0.1245870E+04  0.7818608E-02  0.9073628E-01
         -2   -1    0    0    0  501 -0.00000000000E+00  0.00000000000E+00  0.11135531457E+04  0.11135531457E+04  0.25500000000E-02 0. -1.
          2   -1    0    0  501    0  0.00000000000E+00 -0.00000000000E+00 -0.34847723990E+03  0.34847723991E+03  0.25500000000E-02 0.  1.
    5000001    1    1    2    0    0 -0.39028785218E+03 -0.37922990110E+02  0.90595281352E+03  0.10049165443E+04  0.18800000000E+03 0.  0.
   -5000001    1    1    2    0    0  0.39028785218E+03  0.37922990110E+02 -0.14087690774E+03  0.45711384126E+03  0.18800000000E+03 0.  0.
<mgrwt>
<rscale>  0 0.12458699E+04</rscale>
<asrwt>0</asrwt>
<pdfrwt beam="1">  1        2 0.49782462E-01 0.12458699E+04</pdfrwt>
<pdfrwt beam="2">  1       -2 0.15907902E+00 0.12458699E+04</pdfrwt>
<totfact> 0.25406987E+01</totfact>
</mgrwt>
</event>
<event>
 4    1  0.5917727E-005  0.1427719E+04  0.7818608E-02  0.8933995E-01
         -2   -1    0    0    0  501 -0.00000000000E+00  0.00000000000E+00  0.16360637067E+03  0.16360637069E+03  0.25500000000E-02 0. -1.
          2   -1    0    0  501    0  0.00000000000E+00 -0.00000000000E+00 -0.31147637318E+04  0.31147637318E+04  0.25500000000E-02 0.  1.
    5000001    1    1    2    0    0  0.36380591700E+03  0.46481157759E+03 -0.66099418376E+03  0.90590389053E+03  0.18800000000E+03 0.  0.
   -5000001    1    1    2    0    0 -0.36380591700E+03 -0.46481157759E+03 -0.22901631774E+04  0.23724662120E+04  0.18800000000E+03 0.  0.
<mgrwt>
<rscale>  0 0.14277187E+04</rscale>
<asrwt>0</asrwt>
<pdfrwt beam="1">  1        2 0.44496621E+00 0.14277187E+04</pdfrwt>
<pdfrwt beam="2">  1       -2 0.23372341E-01 0.14277187E+04</pdfrwt>
<totfact> 0.32233307E+01</totfact>
</mgrwt>
</event>
<event>
 4    1  0.5917727E-005  0.5049636E+03  0.7818608E-02  0.1012491E+00
         -2   -1    0    0    0  501 -0.00000000000E+00  0.00000000000E+00  0.33525878623E+03  0.33525878624E+03  0.25500000000E-02 0. -1.
          2   -1    0    0  501    0  0.00000000000E+00 -0.00000000000E+00 -0.19014284399E+03  0.19014284401E+03  0.25500000000E-02 0.  1.
    5000001    1    1    2    0    0  0.10547976460E+03 -0.11763221509E+03  0.13358105795E+03  0.27955539310E+03  0.18800000000E+03 0.  0.
   -5000001    1    1    2    0    0 -0.10547976460E+03  0.11763221509E+03  0.11534884284E+02  0.24584623715E+03  0.18800000000E+03 0.  0.
<mgrwt>
<rscale>  0 0.50496360E+03</rscale>
<asrwt>0</asrwt>
<pdfrwt beam="1">  1        2 0.27163264E-01 0.50496360E+03</pdfrwt>
<pdfrwt beam="2">  1       -2 0.47894112E-01 0.50496360E+03</pdfrwt>
<totfact> 0.82624151E+02</totfact>
</mgrwt>
</event>
<event>
 4    1  0.5917727E-005  0.9385091E+03  0.7818608E-02  0.9378683E-01
         -2   -1    0    0    0  501 -0.00000000000E+00  0.00000000000E+00  0.40215144152E+03  0.40215144153E+03  0.25500000000E-02 0. -1.
          2   -1    0    0  501    0  0.00000000000E+00 -0.00000000000E+00 -0.54755451103E+03  0.54755451104E+03  0.25500000000E-02 0.  1.
    5000001    1    1    2    0    0 -0.42568251968E+03  0.37682390915E+02 -0.24912420664E+02  0.46753630752E+03  0.18800000000E+03 0.  0.
   -5000001    1    1    2    0    0  0.42568251968E+03 -0.37682390915E+02 -0.12049064885E+03  0.48216964505E+03  0.18800000000E+03 0.  0.
<mgrwt>
<rscale>  0 0.93850911E+03</rscale>
<asrwt>0</asrwt>
<pdfrwt beam="1">  1        2 0.78222073E-01 0.93850911E+03</pdfrwt>
<pdfrwt beam="2">  1       -2 0.57450206E-01 0.93850911E+03</pdfrwt>
<totfact> 0.17182770E+02</totfact>
</mgrwt>
</event>
<event>
 4    1  0.5917727E-005  0.7722850E+03  0.7818608E-02  0.9601023E-01
         -2   -1    0    0    0  501 -0.00000000000E+00  0.00000000000E+00  0.92078011457E+03  0.92078011458E+03  0.25500000000E-02 0. -1.
          2   -1    0    0  501    0  0.00000000000E+00 -0.00000000000E+00 -0.16193444239E+03  0.16193444241E+03  0.25500000000E-02 0.  1.
    5000001    1    1    2    0    0  0.21713895178E+03  0.14033020878E+03  0.68310268048E+03  0.75419835850E+03  0.18800000000E+03 0.  0.
   -5000001    1    1    2    0    0 -0.21713895178E+03 -0.14033020878E+03  0.75742991700E+02  0.32851619849E+03  0.18800000000E+03 0.  0.
<mgrwt>
<rscale>  0 0.77228496E+03</rscale>
<asrwt>0</asrwt>
<pdfrwt beam="1">  1        2 0.23133491E-01 0.77228496E+03</pdfrwt>
<pdfrwt beam="2">  1       -2 0.13154002E+00 0.77228496E+03</pdfrwt>
<totfact> 0.10194490E+02</totfact>
</mgrwt>
</event>
<event>
 4    1  0.5917727E-005  0.5163728E+03  0.7818608E-02  0.1009592E+00
          2   -1    0    0  501    0  0.00000000000E+00  0.00000000000E+00  0.26072582445E+03  0.26072582446E+03  0.25500000000E-02 0.  1.
         -2   -1    0    0    0  501 -0.00000000000E+00 -0.00000000000E+00 -0.25567175248E+03  0.25567175250E+03  0.25500000000E-02 0. -1.
    5000001    1    1    2    0    0  0.73595493161E+02 -0.16086178562E+03 -0.23123871819E+01  0.25815142421E+03  0.18800000000E+03 0.  0.
   -5000001    1    1    2    0    0 -0.73595493161E+02  0.16086178562E+03  0.73664591465E+01  0.25824615275E+03  0.18800000000E+03 0.  0.
<mgrwt>
<rscale>  0 0.51637284E+03</rscale>
<asrwt>0</asrwt>
<pdfrwt beam="1">  1        2 0.37246546E-01 0.51637284E+03</pdfrwt>
<pdfrwt beam="2">  1       -2 0.36524536E-01 0.51637284E+03</pdfrwt>
<totfact> 0.98620186E+02</totfact>
</mgrwt>
</event>
<event>
 4    1  0.5917727E-005  0.4196872E+03  0.7818608E-02  0.1037168E+00
         -2   -1    0    0    0  501 -0.00000000000E+00  0.00000000000E+00  0.45539731493E+02  0.45539731564E+02  0.25500000000E-02 0. -1.
          2   -1    0    0  501    0  0.00000000000E+00 -0.00000000000E+00 -0.96694325496E+03  0.96694325496E+03  0.25500000000E-02 0.  1.
    5000001    1    1    2    0    0 -0.75989184751E+02 -0.45183005675E+02 -0.53204223198E+03  0.57116442187E+03  0.18800000000E+03 0.  0.
   -5000001    1    1    2    0    0  0.75989184751E+02  0.45183005675E+02 -0.38936129148E+03  0.44131856465E+03  0.18800000000E+03 0.  0.
<mgrwt>
<rscale>  0 0.41968720E+03</rscale>
<asrwt>0</asrwt>
<pdfrwt beam="1">  1        2 0.13813474E+00 0.41968720E+03</pdfrwt>
<pdfrwt beam="2">  1       -2 0.65056765E-02 0.41968720E+03</pdfrwt>
<totfact> 0.40040450E+03</totfact>
</mgrwt>
</event>
<event>
 4    1  0.5917727E-005  0.4106958E+03  0.7818608E-02  0.1040138E+00
          2   -1    0    0  501    0  0.00000000000E+00  0.00000000000E+00  0.14619814696E+04  0.14619814696E+04  0.25500000000E-02 0.  1.
         -2   -1    0    0    0  501 -0.00000000000E+00 -0.00000000000E+00 -0.28842887701E+02  0.28842887814E+02  0.25500000000E-02 0. -1.
    5000001    1    1    2    0    0 -0.80040294502E+02 -0.60791075516E+01  0.64577383336E+03  0.67735607191E+03  0.18800000000E+03 0.  0.
   -5000001    1    1    2    0    0  0.80040294502E+02  0.60791075516E+01  0.78736474853E+03  0.81346828551E+03  0.18800000000E+03 0.  0.
<mgrwt>
<rscale>  0 0.41069584E+03</rscale>
<asrwt>0</asrwt>
<pdfrwt beam="1">  1        2 0.20885453E+00 0.41069584E+03</pdfrwt>
<pdfrwt beam="2">  1       -2 0.41204118E-02 0.41069584E+03</pdfrwt>
<totfact> 0.42999695E+03</totfact>
</mgrwt>
</event>
<event>
 4    1  0.5917727E-005  0.4808979E+03  0.7818608E-02  0.1018889E+00
          2   -1    0    0  501    0  0.00000000000E+00  0.00000000000E+00  0.83057541954E+02  0.83057541993E+02  0.25500000000E-02 0.  1.
         -2   -1    0    0    0  501 -0.00000000000E+00 -0.00000000000E+00 -0.69609195183E+03  0.69609195184E+03  0.25500000000E-02 0. -1.
    5000001    1    1    2    0    0  0.12609666826E+03 -0.76563525402E+02 -0.26336567463E+03  0.35562314568E+03  0.18800000000E+03 0.  0.
   -5000001    1    1    2    0    0 -0.12609666826E+03  0.76563525402E+02 -0.34966873524E+03  0.42352634815E+03  0.18800000000E+03 0.  0.
<mgrwt>
<rscale>  0 0.48089785E+03</rscale>
<asrwt>0</asrwt>
<pdfrwt beam="1">  1        2 0.11865364E-01 0.48089785E+03</pdfrwt>
<pdfrwt beam="2">  1       -2 0.99441704E-01 0.48089785E+03</pdfrwt>
<totfact> 0.45261511E+02</totfact>
</mgrwt>
</event>
<event>
 4    1  0.5917727E-005  0.8029648E+03  0.7818608E-02  0.9555736E-01
         -2   -1    0    0    0  501 -0.00000000000E+00  0.00000000000E+00  0.56864310735E+02  0.56864310792E+02  0.25500000000E-02 0. -1.
          2   -1    0    0  501    0  0.00000000000E+00 -0.00000000000E+00 -0.28346091977E+04  0.28346091977E+04  0.25500000000E-02 0.  1.
    5000001    1    1    2    0    0  0.17101804364E+03  0.30300498679E+03 -0.16379642247E+04  0.16850311554E+04  0.18800000000E+03 0.  0.
   -5000001    1    1    2    0    0 -0.17101804364E+03 -0.30300498679E+03 -0.11397806623E+04  0.12064423531E+04  0.18800000000E+03 0.  0.
<mgrwt>
<rscale>  0 0.80296475E+03</rscale>
<asrwt>0</asrwt>
<pdfrwt beam="1">  1        2 0.40494408E+00 0.80296475E+03</pdfrwt>
<pdfrwt beam="2">  1       -2 0.81234747E-02 0.80296475E+03</pdfrwt>
<totfact> 0.29013035E+02</totfact>
</mgrwt>
</event>
<event>
 4    1  0.5917727E-005  0.5017010E+03  0.7818608E-02  0.1013336E+00
          2   -1    0    0  501    0  0.00000000000E+00  0.00000000000E+00  0.31675553800E+04  0.31675553800E+04  0.25500000000E-02 0.  1.
         -2   -1    0    0    0  501 -0.00000000000E+00 -0.00000000000E+00 -0.19865783678E+02  0.19865783842E+02  0.25500000000E-02 0. -1.
    5000001    1    1    2    0    0  0.16134697632E+03  0.10509341815E+02  0.13328674749E+04  0.13557370684E+04  0.18800000000E+03 0.  0.
   -5000001    1    1    2    0    0 -0.16134697632E+03 -0.10509341815E+02  0.18148221214E+04  0.18316840954E+04  0.18800000000E+03 0.  0.
<mgrwt>
<rscale>  0 0.50170099E+03</rscale>
<asrwt>0</asrwt>
<pdfrwt beam="1">  1        2 0.45250758E+00 0.50170099E+03</pdfrwt>
<pdfrwt beam="2">  1       -2 0.28379712E-02 0.50170099E+03</pdfrwt>
<totfact> 0.10062640E+03</totfact>
</mgrwt>
</event>
<event>
 4    1  0.5917727E-005  0.5240945E+03  0.7818608E-02  0.1007674E+00
          2   -1    0    0  501    0  0.00000000000E+00  0.00000000000E+00  0.46212620425E+03  0.46212620426E+03  0.25500000000E-02 0.  1.
         -2   -1    0    0    0  501 -0.00000000000E+00 -0.00000000000E+00 -0.14859308115E+03  0.14859308117E+03  0.25500000000E-02 0. -1.
    5000001    1    1    2    0    0 -0.14383931140E+03  0.10050891080E+03  0.21541370885E+03  0.33546811267E+03  0.18800000000E+03 0.  0.
   -5000001    1    1    2    0    0  0.14383931140E+03 -0.10050891080E+03  0.98119414251E+02  0.27525117277E+03  0.18800000000E+03 0.  0.
<mgrwt>
<rscale>  0 0.52409448E+03</rscale>
<asrwt>0</asrwt>
<pdfrwt beam="1">  1        2 0.66018028E-01 0.52409448E+03</pdfrwt>
<pdfrwt beam="2">  1       -2 0.21227583E-01 0.52409448E+03</pdfrwt>
<totfact> 0.14091758E+03</totfact>
</mgrwt>
</event>
<event>
 4    1  0.5917727E-005  0.5520962E+03  0.7818608E-02  0.1001010E+00
         -2   -1    0    0    0  501 -0.00000000000E+00  0.00000000000E+00  0.13374279530E+03  0.13374279532E+03  0.25500000000E-02 0.  1.
          2   -1    0    0  501    0  0.00000000000E+00 -0.00000000000E+00 -0.56976941110E+03  0.56976941110E+03  0.25500000000E-02 0. -1.
    5000001    1    1    2    0    0 -0.31279508419E+02  0.19752000960E+03 -0.18051481703E+03  0.32851508490E+03  0.18800000000E+03 0.  0.
   -5000001    1    1    2    0    0  0.31279508419E+02 -0.19752000960E+03 -0.25551179877E+03  0.37499712152E+03  0.18800000000E+03 0.  0.
<mgrwt>
<rscale>  0 0.55209620E+03</rscale>
<asrwt>0</asrwt>
<pdfrwt beam="1">  1        2 0.81395629E-01 0.55209620E+03</pdfrwt>
<pdfrwt beam="2">  1       -2 0.19106114E-01 0.55209620E+03</pdfrwt>
<totfact> 0.13331191E+03</totfact>
</mgrwt>
</event>
<event>
 4    1  0.5917727E-005  0.7364889E+03  0.7818608E-02  0.9656789E-01
         -2   -1    0    0    0  501 -0.00000000000E+00  0.00000000000E+00  0.86834420838E+03  0.86834420839E+03  0.25500000000E-02 0. -1.
          2   -1    0    0  501    0  0.00000000000E+00 -0.00000000000E+00 -0.15616383477E+03  0.15616383479E+03  0.25500000000E-02 0.  1.
    5000001    1    1    2    0    0 -0.26385789025E+03 -0.52373128860E+02  0.58842826549E+03  0.67376238727E+03  0.18800000000E+03 0.  0.
   -5000001    1    1    2    0    0  0.26385789025E+03  0.52373128860E+02  0.12375210812E+03  0.35074565591E+03  0.18800000000E+03 0.  0.
<mgrwt>
<rscale>  0 0.73648886E+03</rscale>
<asrwt>0</asrwt>
<pdfrwt beam="1">  1        2 0.22309120E-01 0.73648886E+03</pdfrwt>
<pdfrwt beam="2">  1       -2 0.12404917E+00 0.73648886E+03</pdfrwt>
<totfact> 0.12342294E+02</totfact>
</mgrwt>
</event>
<event>
 4    1  0.5917727E-005  0.6181519E+03  0.7818608E-02  0.9868446E-01
         -2   -1    0    0    0  501 -0.00000000000E+00  0.00000000000E+00  0.52187731559E+03  0.52187731559E+03  0.25500000000E-02 0. -1.
          2   -1    0    0  501    0  0.00000000000E+00 -0.00000000000E+00 -0.18304676879E+03  0.18304676881E+03  0.25500000000E-02 0.  1.
    5000001    1    1    2    0    0 -0.17991857048E+03 -0.16272559662E+03  0.12776986216E+03  0.33244465626E+03  0.18800000000E+03 0.  0.
   -5000001    1    1    2    0    0  0.17991857048E+03  0.16272559662E+03  0.21106068463E+03  0.37247942815E+03  0.18800000000E+03 0.  0.
<mgrwt>
<rscale>  0 0.61815194E+03</rscale>
<asrwt>0</asrwt>
<pdfrwt beam="1">  1        2 0.26149538E-01 0.61815194E+03</pdfrwt>
<pdfrwt beam="2">  1       -2 0.74553903E-01 0.61815194E+03</pdfrwt>
<totfact> 0.34009096E+02</totfact>
</mgrwt>
</event>
<event>
 4    1  0.5917727E-005  0.9417723E+03  0.7818608E-02  0.9374820E-01
          2   -1    0    0  501    0  0.00000000000E+00  0.00000000000E+00  0.45615224001E+04  0.45615224001E+04  0.25500000000E-02 0.  1.
         -2   -1    0    0    0  501 -0.00000000000E+00 -0.00000000000E+00 -0.48609594814E+02  0.48609594881E+02  0.25500000000E-02 0. -1.
    5000001    1    1    2    0    0  0.37470614493E+03 -0.26323591565E+02  0.32982431460E+04  0.33248833779E+04  0.18800000000E+03 0.  0.
   -5000001    1    1    2    0    0 -0.37470614493E+03  0.26323591565E+02  0.12146696593E+04  0.12852486171E+04  0.18800000000E+03 0.  0.
<mgrwt>
<rscale>  0 0.94177228E+03</rscale>
<asrwt>0</asrwt>
<pdfrwt beam="1">  1        2 0.65164564E+00 0.94177228E+03</pdfrwt>
<pdfrwt beam="2">  1       -2 0.69442323E-02 0.94177228E+03</pdfrwt>
<totfact> 0.28847088E+01</totfact>
</mgrwt>
</event>
<event>
 4    1  0.5917727E-005  0.1166426E+04  0.7818608E-02  0.9142762E-01
          2   -1    0    0  501    0  0.00000000000E+00  0.00000000000E+00  0.67447773865E+03  0.67447773866E+03  0.25500000000E-02 0.  1.
         -2   -1    0    0    0  501 -0.00000000000E+00 -0.00000000000E+00 -0.50429727865E+03  0.50429727866E+03  0.25500000000E-02 0. -1.
    5000001    1    1    2    0    0 -0.39120362956E+03  0.37260312019E+03 -0.29779015978E+02  0.57280376636E+03  0.18800000000E+03 0.  0.
   -5000001    1    1    2    0    0  0.39120362956E+03 -0.37260312019E+03  0.19995947597E+03  0.60597125096E+03  0.18800000000E+03 0.  0.
<mgrwt>
<rscale>  0 0.11664258E+04</rscale>
<asrwt>0</asrwt>
<pdfrwt beam="1">  1        2 0.96353963E-01 0.11664258E+04</pdfrwt>
<pdfrwt beam="2">  1       -2 0.72042468E-01 0.11664258E+04</pdfrwt>
<totfact> 0.81409962E+01</totfact>
</mgrwt>
</event>
<event>
 4    1  0.5917727E-005  0.7323026E+03  0.7818608E-02  0.9663531E-01
         -2   -1    0    0    0  501 -0.00000000000E+00  0.00000000000E+00  0.65290730600E+03  0.65290730600E+03  0.25500000000E-02 0. -1.
          2   -1    0    0  501    0  0.00000000000E+00 -0.00000000000E+00 -0.20533814404E+03  0.20533814406E+03  0.25500000000E-02 0.  1.
    5000001    1    1    2    0    0  0.83123551055E+02 -0.30169141245E+03  0.19072842748E+03  0.41188416592E+03  0.18800000000E+03 0.  0.
   -5000001    1    1    2    0    0 -0.83123551055E+02  0.30169141245E+03  0.25684073448E+03  0.44636128413E+03  0.18800000000E+03 0.  0.
<mgrwt>
<rscale>  0 0.73230260E+03</rscale>
<asrwt>0</asrwt>
<pdfrwt beam="1">  1        2 0.29334020E-01 0.73230260E+03</pdfrwt>
<pdfrwt beam="2">  1       -2 0.93272473E-01 0.73230260E+03</pdfrwt>
<totfact> 0.17921444E+02</totfact>
</mgrwt>
</event>
<event>
 4    1  0.5917727E-005  0.5292544E+03  0.7818608E-02  0.1006413E+00
          2   -1    0    0  501    0  0.00000000000E+00  0.00000000000E+00  0.17750285126E+04  0.17750285126E+04  0.25500000000E-02 0.  1.
         -2   -1    0    0    0  501 -0.00000000000E+00 -0.00000000000E+00 -0.39451515024E+02  0.39451515107E+02  0.25500000000E-02 0. -1.
    5000001    1    1    2    0    0  0.15722000705E+03  0.93908422695E+02  0.75169669979E+03  0.79619649016E+03  0.18800000000E+03 0.  0.
   -5000001    1    1    2    0    0 -0.15722000705E+03 -0.93908422695E+02  0.98388029777E+03  0.10182835375E+04  0.18800000000E+03 0.  0.
<mgrwt>
<rscale>  0 0.52925443E+03</rscale>
<asrwt>0</asrwt>
<pdfrwt beam="1">  1        2 0.25357549E+00 0.52925443E+03</pdfrwt>
<pdfrwt beam="2">  1       -2 0.56359310E-02 0.52925443E+03</pdfrwt>
<totfact> 0.18359802E+03</totfact>
</mgrwt>
</event>
<event>
 4    1  0.5917727E-005  0.5558476E+03  0.7818608E-02  0.1000149E+00
          2   -1    0    0  501    0  0.00000000000E+00  0.00000000000E+00  0.27810818479E+03  0.27810818480E+03  0.25500000000E-02 0.  1.
         -2   -1    0    0    0  501 -0.00000000000E+00 -0.00000000000E+00 -0.27773952656E+03  0.27773952657E+03  0.25500000000E-02 0. -1.
    5000001    1    1    2    0    0  0.15811573053E+03  0.11847963033E+03 -0.53291177366E+02  0.27788838880E+03  0.18800000000E+03 0.  0.
   -5000001    1    1    2    0    0 -0.15811573053E+03 -0.11847963033E+03  0.53659835596E+02  0.27795932257E+03  0.18800000000E+03 0.  0.
<mgrwt>
<rscale>  0 0.55584759E+03</rscale>
<asrwt>0</asrwt>
<pdfrwt beam="1">  1        2 0.39729741E-01 0.55584759E+03</pdfrwt>
<pdfrwt beam="2">  1       -2 0.39677075E-01 0.55584759E+03</pdfrwt>
<totfact> 0.78328198E+02</totfact>
</mgrwt>
</event>
<event>
 4    1  0.5917727E-005  0.9626092E+03  0.7818608E-02  0.9350533E-01
         -2   -1    0    0    0  501 -0.00000000000E+00  0.00000000000E+00  0.28512658662E+03  0.28512658663E+03  0.25500000000E-02 0. -1.
          2   -1    0    0  501    0  0.00000000000E+00 -0.00000000000E+00 -0.81246064716E+03  0.81246064717E+03  0.25500000000E-02 0.  1.
    5000001    1    1    2    0    0  0.52200168631E+02  0.43527282644E+03 -0.33687987297E+03  0.58396861205E+03  0.18800000000E+03 0.  0.
   -5000001    1    1    2    0    0 -0.52200168631E+02 -0.43527282644E+03 -0.19045418758E+03  0.51361862175E+03  0.18800000000E+03 0.  0.
<mgrwt>
<rscale>  0 0.96260923E+03</rscale>
<asrwt>0</asrwt>
<pdfrwt beam="1">  1        2 0.11606581E+00 0.96260923E+03</pdfrwt>
<pdfrwt beam="2">  1       -2 0.40732370E-01 0.96260923E+03</pdfrwt>
<totfact> 0.21235839E+02</totfact>
</mgrwt>
</event>
<event>
 4    1  0.5917727E-005  0.9235210E+03  0.7818608E-02  0.9396647E-01
         -2   -1    0    0    0  501 -0.00000000000E+00  0.00000000000E+00  0.29337857393E+03  0.29337857394E+03  0.25500000000E-02 0. -1.
          2   -1    0    0  501    0  0.00000000000E+00 -0.00000000000E+00 -0.72678363282E+03  0.72678363282E+03  0.25500000000E-02 0.  1.
    5000001    1    1    2    0    0 -0.11245543352E+03 -0.16230452341E+03  0.19497540258E+03  0.33518411427E+03  0.18800000000E+03 0.  0.
   -5000001    1    1    2    0    0  0.11245543352E+03  0.16230452341E+03 -0.62838046147E+03  0.68497809250E+03  0.18800000000E+03 0.  0.
<mgrwt>
<rscale>  0 0.92352097E+03</rscale>
<asrwt>0</asrwt>
<pdfrwt beam="1">  1        2 0.10382623E+00 0.92352097E+03</pdfrwt>
<pdfrwt beam="2">  1       -2 0.41911225E-01 0.92352097E+03</pdfrwt>
<totfact> 0.23188275E+02</totfact>
</mgrwt>
</event>
<event>
 4    1  0.5917727E-005  0.4553123E+03  0.7818608E-02  0.1026150E+00
         -2   -1    0    0    0  501 -0.00000000000E+00  0.00000000000E+00  0.19386762498E+02  0.19386762666E+02  0.25500000000E-02 0. -1.
          2   -1    0    0  501    0  0.00000000000E+00 -0.00000000000E+00 -0.26733353927E+04  0.26733353927E+04  0.25500000000E-02 0.  1.
    5000001    1    1    2    0    0 -0.50934942501E+02 -0.25997564741E+02 -0.20067790076E+04  0.20163770052E+04  0.18800000000E+03 0.  0.
   -5000001    1    1    2    0    0  0.50934942501E+02  0.25997564741E+02 -0.64716962260E+03  0.67634515017E+03  0.18800000000E+03 0.  0.
<mgrwt>
<rscale>  0 0.45531228E+03</rscale>
<asrwt>0</asrwt>
<pdfrwt beam="1">  1        2 0.38190482E+00 0.45531228E+03</pdfrwt>
<pdfrwt beam="2">  1       -2 0.27695392E-02 0.45531228E+03</pdfrwt>
<totfact> 0.19264600E+03</totfact>
</mgrwt>
</event>
<event>
 4    1  0.5917727E-005  0.7199642E+03  0.7818608E-02  0.9683687E-01
          2   -1    0    0  501    0  0.00000000000E+00  0.00000000000E+00  0.47446894953E+03  0.47446894953E+03  0.25500000000E-02 0.  1.
         -2   -1    0    0    0  501 -0.00000000000E+00 -0.00000000000E+00 -0.27312035129E+03  0.27312035130E+03  0.25500000000E-02 0. -1.
    5000001    1    1    2    0    0  0.42463786387E+02  0.30296306790E+03  0.74133176569E+02  0.36664631668E+03  0.18800000000E+03 0.  0.
   -5000001    1    1    2    0    0 -0.42463786387E+02 -0.30296306790E+03  0.12721542166E+03  0.38094298416E+03  0.18800000000E+03 0.  0.
<mgrwt>
<rscale>  0 0.71996424E+03</rscale>
<asrwt>0</asrwt>
<pdfrwt beam="1">  1        2 0.67781278E-01 0.71996424E+03</pdfrwt>
<pdfrwt beam="2">  1       -2 0.39017193E-01 0.71996424E+03</pdfrwt>
<totfact> 0.44544628E+02</totfact>
</mgrwt>
</event>
<event>
 4    1  0.5917727E-005  0.5698683E+03  0.7818608E-02  0.9969970E-01
         -2   -1    0    0    0  501 -0.00000000000E+00  0.00000000000E+00  0.38876853892E+02  0.38876853976E+02  0.25500000000E-02 0. -1.
          2   -1    0    0  501    0  0.00000000000E+00 -0.00000000000E+00 -0.20883244327E+04  0.20883244327E+04  0.25500000000E-02 0.  1.
    5000001    1    1    2    0    0 -0.18910613121E+03  0.94302355276E+01 -0.65156708850E+03  0.70408360939E+03  0.18800000000E+03 0.  0.
   -5000001    1    1    2    0    0  0.18910613121E+03 -0.94302355276E+01 -0.13978804903E+04  0.14231176773E+04  0.18800000000E+03 0.  0.
<mgrwt>
<rscale>  0 0.56986835E+03</rscale>
<asrwt>0</asrwt>
<pdfrwt beam="1">  1        2 0.29833199E+00 0.56986835E+03</pdfrwt>
<pdfrwt beam="2">  1       -2 0.55538376E-02 0.56986835E+03</pdfrwt>
<totfact> 0.13057428E+03</totfact>
</mgrwt>
</event>
<event>
 4    1  0.5917727E-005  0.4858033E+03  0.7818608E-02  0.1017552E+00
         -2   -1    0    0    0  501 -0.00000000000E+00  0.00000000000E+00  0.73028919061E+02  0.73028919106E+02  0.25500000000E-02 0. -1.
          2   -1    0    0  501    0  0.00000000000E+00 -0.00000000000E+00 -0.80791565950E+03  0.80791565951E+03  0.25500000000E-02 0.  1.
    5000001    1    1    2    0    0 -0.12162183192E+02  0.14240318170E+03 -0.47051312599E+03  0.52645340400E+03  0.18800000000E+03 0.  0.
   -5000001    1    1    2    0    0  0.12162183192E+02 -0.14240318170E+03 -0.26437361445E+03  0.35449117461E+03  0.18800000000E+03 0.  0.
<mgrwt>
<rscale>  0 0.48580328E+03</rscale>
<asrwt>0</asrwt>
<pdfrwt beam="1">  1        2 0.11541652E+00 0.48580328E+03</pdfrwt>
<pdfrwt beam="2">  1       -2 0.10432703E-01 0.48580328E+03</pdfrwt>
<totfact> 0.23986132E+03</totfact>
</mgrwt>
</event>
<event>
 4    1  0.5917727E-005  0.5567566E+03  0.7818608E-02  0.9999420E-01
         -2   -1    0    0    0  501 -0.00000000000E+00  0.00000000000E+00  0.43945939320E+02  0.43945939394E+02  0.25500000000E-02 0. -1.
          2   -1    0    0  501    0  0.00000000000E+00 -0.00000000000E+00 -0.17634044633E+04  0.17634044633E+04  0.25500000000E-02 0.  1.
    5000001    1    1    2    0    0 -0.12419690816E+03 -0.12980889603E+03 -0.11823192920E+04  0.12105776017E+04  0.18800000000E+03 0.  0.
   -5000001    1    1    2    0    0  0.12419690816E+03  0.12980889603E+03 -0.53713923195E+03  0.59677280098E+03  0.18800000000E+03 0.  0.
<mgrwt>
<rscale>  0 0.55675656E+03</rscale>
<asrwt>0</asrwt>
<pdfrwt beam="1">  1        2 0.25191488E+00 0.55675656E+03</pdfrwt>
<pdfrwt beam="2">  1       -2 0.62779924E-02 0.55675656E+03</pdfrwt>
<totfact> 0.15707064E+03</totfact>
</mgrwt>
</event>
<event>
 4    1  0.5917727E-005  0.6822611E+03  0.7818608E-02  0.9748058E-01
          2   -1    0    0  501    0  0.00000000000E+00  0.00000000000E+00  0.29699561404E+03  0.29699561405E+03  0.25500000000E-02 0.  1.
         -2   -1    0    0    0  501 -0.00000000000E+00 -0.00000000000E+00 -0.39182417281E+03  0.39182417281E+03  0.25500000000E-02 0. -1.
    5000001    1    1    2    0    0  0.17949712862E+02  0.27730998787E+03  0.14847336932E+02  0.33583845072E+03  0.18800000000E+03 0.  0.
   -5000001    1    1    2    0    0 -0.17949712862E+02 -0.27730998787E+03 -0.10967589570E+03  0.35298133614E+03  0.18800000000E+03 0.  0.
<mgrwt>
<rscale>  0 0.68226113E+03</rscale>
<asrwt>0</asrwt>
<pdfrwt beam="1">  1        2 0.42427945E-01 0.68226113E+03</pdfrwt>
<pdfrwt beam="2">  1       -2 0.55974882E-01 0.68226113E+03</pdfrwt>
<totfact> 0.36462420E+02</totfact>
</mgrwt>
</event>
<event>
 4    1  0.5917727E-005  0.6829011E+03  0.7818608E-02  0.9746929E-01
          2   -1    0    0  501    0  0.00000000000E+00  0.00000000000E+00  0.28163912983E+03  0.28163912984E+03  0.25500000000E-02 0.  1.
         -2   -1    0    0    0  501 -0.00000000000E+00 -0.00000000000E+00 -0.41396401471E+03  0.41396401472E+03  0.25500000000E-02 0. -1.
    5000001    1    1    2    0    0  0.89996844848E+02 -0.25554623262E+03 -0.15635979502E+03  0.36495985339E+03  0.18800000000E+03 0.  0.
   -5000001    1    1    2    0    0 -0.89996844848E+02  0.25554623262E+03  0.24034910139E+02  0.33064329117E+03  0.18800000000E+03 0.  0.
<mgrwt>
<rscale>  0 0.68290106E+03</rscale>
<asrwt>0</asrwt>
<pdfrwt beam="1">  1        2 0.40234162E-01 0.68290106E+03</pdfrwt>
<pdfrwt beam="2">  1       -2 0.59137716E-01 0.68290106E+03</pdfrwt>
<totfact> 0.34476552E+02</totfact>
</mgrwt>
</event>
<event>
 4    1  0.5917727E-005  0.8158882E+03  0.7818608E-02  0.9537300E-01
          2   -1    0    0  501    0  0.00000000000E+00  0.00000000000E+00  0.19287362933E+04  0.19287362933E+04  0.25500000000E-02 0.  1.
         -2   -1    0    0    0  501 -0.00000000000E+00 -0.00000000000E+00 -0.86283638877E+02  0.86283638915E+02  0.25500000000E-02 0. -1.
    5000001    1    1    2    0    0 -0.37243130725E+02  0.35811739620E+03  0.82753073247E+03  0.92183850724E+03  0.18800000000E+03 0.  0.
   -5000001    1    1    2    0    0  0.37243130725E+02 -0.35811739620E+03  0.10149219220E+04  0.10931814250E+04  0.18800000000E+03 0.  0.
<mgrwt>
<rscale>  0 0.81588819E+03</rscale>
<asrwt>0</asrwt>
<pdfrwt beam="1">  1        2 0.27553374E+00 0.81588819E+03</pdfrwt>
<pdfrwt beam="2">  1       -2 0.12326235E-01 0.81588819E+03</pdfrwt>
<totfact> 0.43100949E+02</totfact>
</mgrwt>
</event>
<event>
 4    1  0.5917727E-005  0.7164769E+03  0.7818608E-02  0.9689462E-01
          2   -1    0    0  501    0  0.00000000000E+00  0.00000000000E+00  0.20870966898E+04  0.20870966898E+04  0.25500000000E-02 0.  1.
         -2   -1    0    0    0  501 -0.00000000000E+00 -0.00000000000E+00 -0.61489619263E+02  0.61489619316E+02  0.25500000000E-02 0. -1.
    5000001    1    1    2    0    0 -0.14461920942E+03 -0.26637096575E+03  0.11132785467E+04  0.11690172495E+04  0.18800000000E+03 0.  0.
   -5000001    1    1    2    0    0  0.14461920942E+03  0.26637096575E+03  0.91232852388E+03  0.97956905965E+03  0.18800000000E+03 0.  0.
<mgrwt>
<rscale>  0 0.71647688E+03</rscale>
<asrwt>0</asrwt>
<pdfrwt beam="1">  1        2 0.29815667E+00 0.71647688E+03</pdfrwt>
<pdfrwt beam="2">  1       -2 0.87842313E-02 0.71647688E+03</pdfrwt>
<totfact> 0.62731979E+02</totfact>
</mgrwt>
</event>
<event>
 4    1  0.5917727E-005  0.5447025E+03  0.7818608E-02  0.1002728E+00
          2   -1    0    0  501    0  0.00000000000E+00  0.00000000000E+00  0.20186275157E+04  0.20186275157E+04  0.25500000000E-02 0.  1.
         -2   -1    0    0    0  501 -0.00000000000E+00 -0.00000000000E+00 -0.36745368709E+02  0.36745368798E+02  0.25500000000E-02 0. -1.
    5000001    1    1    2    0    0 -0.16746763952E+03 -0.10384877106E+03  0.98674784609E+03  0.10236431455E+04  0.18800000000E+03 0.  0.
   -5000001    1    1    2    0    0  0.16746763952E+03  0.10384877106E+03  0.99513430093E+03  0.10317297390E+04  0.18800000000E+03 0.  0.
<mgrwt>
<rscale>  0 0.54470253E+03</rscale>
<asrwt>0</asrwt>
<pdfrwt beam="1">  1        2 0.28837540E+00 0.54470253E+03</pdfrwt>
<pdfrwt beam="2">  1       -2 0.52493376E-02 0.54470253E+03</pdfrwt>
<totfact> 0.15467181E+03</totfact>
</mgrwt>
</event>
<event>
 4    1  0.5917727E-005  0.7375908E+03  0.7818608E-02  0.9655022E-01
         -2   -1    0    0    0  501 -0.00000000000E+00  0.00000000000E+00  0.20247788031E+03  0.20247788033E+03  0.25500000000E-02 0. -1.
          2   -1    0    0  501    0  0.00000000000E+00 -0.00000000000E+00 -0.67172789575E+03  0.67172789575E+03  0.25500000000E-02 0.  1.
    5000001    1    1    2    0    0 -0.11842877047E+03  0.11735096778E+03 -0.55456670103E+03  0.60883893536E+03  0.18800000000E+03 0.  0.
   -5000001    1    1    2    0    0  0.11842877047E+03 -0.11735096778E+03  0.85316685593E+02  0.26536684072E+03  0.18800000000E+03 0.  0.
<mgrwt>
<rscale>  0 0.73759078E+03</rscale>
<asrwt>0</asrwt>
<pdfrwt beam="1">  1        2 0.95961127E-01 0.73759078E+03</pdfrwt>
<pdfrwt beam="2">  1       -2 0.28925412E-01 0.73759078E+03</pdfrwt>
<totfact> 0.52150469E+02</totfact>
</mgrwt>
</event>
<event>
 4    1  0.5917727E-005  0.6152602E+03  0.7818608E-02  0.9874242E-01
         -2   -1    0    0    0  501 -0.00000000000E+00  0.00000000000E+00  0.26182363264E+03  0.26182363265E+03  0.25500000000E-02 0. -1.
          2   -1    0    0  501    0  0.00000000000E+00 -0.00000000000E+00 -0.36145052968E+03  0.36145052969E+03  0.25500000000E-02 0.  1.
    5000001    1    1    2    0    0 -0.42446295421E+02 -0.17599743948E+03 -0.21477024601E+03  0.33800450481E+03  0.18800000000E+03 0.  0.
   -5000001    1    1    2    0    0  0.42446295421E+02  0.17599743948E+03  0.11514334896E+03  0.28526965753E+03  0.18800000000E+03 0.  0.
<mgrwt>
<rscale>  0 0.61526024E+03</rscale>
<asrwt>0</asrwt>
<pdfrwt beam="1">  1        2 0.51635790E-01 0.61526024E+03</pdfrwt>
<pdfrwt beam="2">  1       -2 0.37403376E-01 0.61526024E+03</pdfrwt>
<totfact> 0.65671684E+02</totfact>
</mgrwt>
</event>
<event>
 4    1  0.5917727E-005  0.4385120E+03  0.7818608E-02  0.1031204E+00
          2   -1    0    0  501    0  0.00000000000E+00  0.00000000000E+00  0.10634996853E+03  0.10634996856E+03  0.25500000000E-02 0.  1.
         -2   -1    0    0    0  501 -0.00000000000E+00 -0.00000000000E+00 -0.45202820296E+03  0.45202820296E+03  0.25500000000E-02 0. -1.
    5000001    1    1    2    0    0 -0.94753332028E+02 -0.36377337091E+02 -0.23557886380E+03  0.31802972448E+03  0.18800000000E+03 0.  0.
   -5000001    1    1    2    0    0  0.94753332028E+02  0.36377337091E+02 -0.11009937062E+03  0.24034844704E+03  0.18800000000E+03 0.  0.
<mgrwt>
<rscale>  0 0.43851196E+03</rscale>
<asrwt>0</asrwt>
<pdfrwt beam="1">  1        2 0.15192853E-01 0.43851196E+03</pdfrwt>
<pdfrwt beam="2">  1       -2 0.64575457E-01 0.43851196E+03</pdfrwt>
<totfact> 0.87665364E+02</totfact>
</mgrwt>
</event>
<event>
 4    1  0.5917727E-005  0.4978089E+03  0.7818608E-02  0.1014352E+00
         -2   -1    0    0    0  501 -0.00000000000E+00  0.00000000000E+00  0.87479931943E+02  0.87479931981E+02  0.25500000000E-02 0. -1.
          2   -1    0    0  501    0  0.00000000000E+00 -0.00000000000E+00 -0.70820146044E+03  0.70820146045E+03  0.25500000000E-02 0.  1.
    5000001    1    1    2    0    0 -0.13591626027E+03  0.22132679193E+02 -0.17059425913E+03  0.28880700570E+03  0.18800000000E+03 0.  0.
   -5000001    1    1    2    0    0  0.13591626027E+03 -0.22132679193E+02 -0.45012726937E+03  0.50687438673E+03  0.18800000000E+03 0.  0.
<mgrwt>
<rscale>  0 0.49780886E+03</rscale>
<asrwt>0</asrwt>
<pdfrwt beam="1">  1        2 0.10117163E+00 0.49780886E+03</pdfrwt>
<pdfrwt beam="2">  1       -2 0.12497133E-01 0.49780886E+03</pdfrwt>
<totfact> 0.21051036E+03</totfact>
</mgrwt>
</event>
<event>
 4    1  0.5917727E-005  0.4629817E+03  0.7818608E-02  0.1023920E+00
          2   -1    0    0  501    0  0.00000000000E+00  0.00000000000E+00  0.32679079644E+04  0.32679079644E+04  0.25500000000E-02 0.  1.
         -2   -1    0    0    0  501 -0.00000000000E+00 -0.00000000000E+00 -0.16398262036E+02  0.16398262234E+02  0.25500000000E-02 0. -1.
    5000001    1    1    2    0    0 -0.29381653379E+02  0.12392778406E+03  0.13067197247E+04  0.13263038174E+04  0.18800000000E+03 0.  0.
   -5000001    1    1    2    0    0  0.29381653379E+02 -0.12392778406E+03  0.19447899777E+04  0.19580024092E+04  0.18800000000E+03 0.  0.
<mgrwt>
<rscale>  0 0.46298169E+03</rscale>
<asrwt>0</asrwt>
<pdfrwt beam="1">  1        2 0.46684409E+00 0.46298169E+03</pdfrwt>
<pdfrwt beam="2">  1       -2 0.23426084E-02 0.46298169E+03</pdfrwt>
<totfact> 0.11849981E+03</totfact>
</mgrwt>
</event>
<event>
 4    1  0.5917727E-005  0.1146178E+04  0.7818608E-02  0.9161317E-01
          2   -1    0    0  501    0  0.00000000000E+00  0.00000000000E+00  0.61802631122E+03  0.61802631123E+03  0.25500000000E-02 0. -1.
         -2   -1    0    0    0  501 -0.00000000000E+00 -0.00000000000E+00 -0.53141906322E+03  0.53141906322E+03  0.25500000000E-02 0.  1.
    5000001    1    1    2    0    0 -0.33993457704E+03  0.39730844763E+03 -0.97372579171E+02  0.56412315889E+03  0.18800000000E+03 0.  0.
   -5000001    1    1    2    0    0  0.33993457704E+03 -0.39730844763E+03  0.18397982718E+03  0.58532221556E+03  0.18800000000E+03 0.  0.
<mgrwt>
<rscale>  0 0.11461779E+04</rscale>
<asrwt>0</asrwt>
<pdfrwt beam="1">  1        2 0.88289473E-01 0.11461779E+04</pdfrwt>
<pdfrwt beam="2">  1       -2 0.75917009E-01 0.11461779E+04</pdfrwt>
<totfact> 0.80701108E+01</totfact>
</mgrwt>
</event>
<event>
 4    1  0.5917727E-005  0.5088992E+03  0.7818608E-02  0.1011482E+00
         -2   -1    0    0    0  501 -0.00000000000E+00  0.00000000000E+00  0.21315827024E+02  0.21315827177E+02  0.25500000000E-02 0. -1.
          2   -1    0    0  501    0  0.00000000000E+00 -0.00000000000E+00 -0.30373959990E+04  0.30373959990E+04  0.25500000000E-02 0.  1.
    5000001    1    1    2    0    0  0.83513130377E+02  0.72844758447E+02 -0.72161712396E+03  0.75389394173E+03  0.18800000000E+03 0.  0.
   -5000001    1    1    2    0    0 -0.83513130377E+02 -0.72844758447E+02 -0.22944630480E+04  0.23048178844E+04  0.18800000000E+03 0.  0.
<mgrwt>
<rscale>  0 0.50889924E+03</rscale>
<asrwt>0</asrwt>
<pdfrwt beam="1">  1        2 0.43391344E+00 0.50889924E+03</pdfrwt>
<pdfrwt beam="2">  1       -2 0.30451201E-02 0.50889924E+03</pdfrwt>
<totfact> 0.10658015E+03</totfact>
</mgrwt>
</event>
<event>
 4    1  0.5917727E-005  0.8478422E+03  0.7818608E-02  0.9493238E-01
         -2   -1    0    0    0  501 -0.00000000000E+00  0.00000000000E+00  0.34556510742E+03  0.34556510743E+03  0.25500000000E-02 0. -1.
          2   -1    0    0  501    0  0.00000000000E+00 -0.00000000000E+00 -0.52004406468E+03  0.52004406468E+03  0.25500000000E-02 0.  1.
    5000001    1    1    2    0    0 -0.20476901659E+03  0.31971895651E+03 -0.72285989621E+02  0.42979044382E+03  0.18800000000E+03 0.  0.
   -5000001    1    1    2    0    0  0.20476901659E+03 -0.31971895651E+03 -0.10219296763E+03  0.43581872830E+03  0.18800000000E+03 0.  0.
<mgrwt>
<rscale>  0 0.84784216E+03</rscale>
<asrwt>0</asrwt>
<pdfrwt beam="1">  1        2 0.74292009E-01 0.84784216E+03</pdfrwt>
<pdfrwt beam="2">  1       -2 0.49366444E-01 0.84784216E+03</pdfrwt>
<totfact> 0.25039829E+02</totfact>
</mgrwt>
</event>
<event>
 4    1  0.5917727E-005  0.4471074E+03  0.7818608E-02  0.1028588E+00
         -2   -1    0    0    0  501 -0.00000000000E+00  0.00000000000E+00  0.31768044710E+02  0.31768044812E+02  0.25500000000E-02 0. -1.
          2   -1    0    0  501    0  0.00000000000E+00 -0.00000000000E+00 -0.15731613510E+04  0.15731613510E+04  0.25500000000E-02 0.  1.
    5000001    1    1    2    0    0 -0.10341407392E+03 -0.40029376368E+02 -0.94416821238E+03  0.96906884942E+03  0.18800000000E+03 0.  0.
   -5000001    1    1    2    0    0  0.10341407392E+03  0.40029376368E+02 -0.59722509390E+03  0.63586054638E+03  0.18800000000E+03 0.  0.
<mgrwt>
<rscale>  0 0.44710742E+03</rscale>
<asrwt>0</asrwt>
<pdfrwt beam="1">  1        2 0.22473729E+00 0.44710742E+03</pdfrwt>
<pdfrwt beam="2">  1       -2 0.45382931E-02 0.44710742E+03</pdfrwt>
<totfact> 0.32526874E+03</totfact>
</mgrwt>
</event>
<event>
 4    1  0.5917727E-005  0.4458641E+03  0.7818608E-02  0.1028963E+00
          2   -1    0    0  501    0  0.00000000000E+00  0.00000000000E+00  0.49069173028E+03  0.49069173029E+03  0.25500000000E-02 0. -1.
         -2   -1    0    0    0  501 -0.00000000000E+00 -0.00000000000E+00 -0.10128291696E+03  0.10128291699E+03  0.25500000000E-02 0.  1.
    5000001    1    1    2    0    0 -0.57744459174E+02 -0.10356771918E+03  0.17193926082E+03  0.28101210727E+03  0.18800000000E+03 0.  0.
   -5000001    1    1    2    0    0  0.57744459174E+02  0.10356771918E+03  0.21746955251E+03  0.31096254001E+03  0.18800000000E+03 0.  0.
<mgrwt>
<rscale>  0 0.44586406E+03</rscale>
<asrwt>0</asrwt>
<pdfrwt beam="1">  1        2 0.70098821E-01 0.44586406E+03</pdfrwt>
<pdfrwt beam="2">  1       -2 0.14468988E-01 0.44586406E+03</pdfrwt>
<totfact> 0.25309522E+03</totfact>
</mgrwt>
</event>
<event>
 4    1  0.5917727E-005  0.7325852E+03  0.7818608E-02  0.9663075E-01
         -2   -1    0    0    0  501 -0.00000000000E+00  0.00000000000E+00  0.16595367437E+03  0.16595367439E+03  0.25500000000E-02 0. -1.
          2   -1    0    0  501    0  0.00000000000E+00 -0.00000000000E+00 -0.80848030241E+03  0.80848030242E+03  0.25500000000E-02 0.  1.
    5000001    1    1    2    0    0  0.11600731639E+03 -0.28592335636E+03 -0.40125287567E+03  0.53996086284E+03  0.18800000000E+03 0.  0.
   -5000001    1    1    2    0    0 -0.11600731639E+03  0.28592335636E+03 -0.24127375238E+03  0.43447311396E+03  0.18800000000E+03 0.  0.
<mgrwt>
<rscale>  0 0.73258522E+03</rscale>
<asrwt>0</asrwt>
<pdfrwt beam="1">  1        2 0.11549718E+00 0.73258522E+03</pdfrwt>
<pdfrwt beam="2">  1       -2 0.23707668E-01 0.73258522E+03</pdfrwt>
<totfact> 0.59341193E+02</totfact>
</mgrwt>
</event>
<event>
 4    1  0.5917727E-005  0.4892237E+03  0.7818608E-02  0.1016631E+00
          2   -1    0    0  501    0  0.00000000000E+00  0.00000000000E+00  0.66960216458E+03  0.66960216459E+03  0.25500000000E-02 0.  1.
         -2   -1    0    0    0  501 -0.00000000000E+00 -0.00000000000E+00 -0.89358980993E+02  0.89358981029E+02  0.25500000000E-02 0. -1.
    5000001    1    1    2    0    0  0.13326612668E+03  0.62313915630E+02  0.20732960536E+03  0.31618420242E+03  0.18800000000E+03 0.  0.
   -5000001    1    1    2    0    0 -0.13326612668E+03 -0.62313915630E+02  0.37291357823E+03  0.44277694320E+03  0.18800000000E+03 0.  0.
<mgrwt>
<rscale>  0 0.48922374E+03</rscale>
<asrwt>0</asrwt>
<pdfrwt beam="1">  1        2 0.95657450E-01 0.48922374E+03</pdfrwt>
<pdfrwt beam="2">  1       -2 0.12765569E-01 0.48922374E+03</pdfrwt>
<totfact> 0.21751527E+03</totfact>
</mgrwt>
</event>
<event>
 4    1  0.5917727E-005  0.7163620E+03  0.7818608E-02  0.9689653E-01
          2   -1    0    0  501    0  0.00000000000E+00  0.00000000000E+00  0.75652870620E+03  0.75652870620E+03  0.25500000000E-02 0.  1.
         -2   -1    0    0    0  501 -0.00000000000E+00 -0.00000000000E+00 -0.16958194719E+03  0.16958194721E+03  0.25500000000E-02 0. -1.
    5000001    1    1    2    0    0 -0.27296679837E+02  0.30016987731E+03  0.35275270328E+03  0.50062514284E+03  0.18800000000E+03 0.  0.
   -5000001    1    1    2    0    0  0.27296679837E+02 -0.30016987731E+03  0.23419405573E+03  0.42548551058E+03  0.18800000000E+03 0.  0.
<mgrwt>
<rscale>  0 0.71636195E+03</rscale>
<asrwt>0</asrwt>
<pdfrwt beam="1">  1        2 0.10807553E+00 0.71636195E+03</pdfrwt>
<pdfrwt beam="2">  1       -2 0.24225993E-01 0.71636195E+03</pdfrwt>
<totfact> 0.62164357E+02</totfact>
</mgrwt>
</event>
<event>
 4    1  0.5917727E-005  0.8703883E+03  0.7818608E-02  0.9463374E-01
          2   -1    0    0  501    0  0.00000000000E+00  0.00000000000E+00  0.17190528838E+03  0.17190528840E+03  0.25500000000E-02 0.  1.
         -2   -1    0    0    0  501 -0.00000000000E+00 -0.00000000000E+00 -0.11017342603E+04  0.11017342603E+04  0.25500000000E-02 0. -1.
    5000001    1    1    2    0    0 -0.33672548048E+03  0.13319060627E+03 -0.68647845895E+03  0.79857401749E+03  0.18800000000E+03 0.  0.
   -5000001    1    1    2    0    0  0.33672548048E+03 -0.13319060627E+03 -0.24335051301E+03  0.47506553125E+03  0.18800000000E+03 0.  0.
<mgrwt>
<rscale>  0 0.87038829E+03</rscale>
<asrwt>0</asrwt>
<pdfrwt beam="1">  1        2 0.24557899E-01 0.87038829E+03</pdfrwt>
<pdfrwt beam="2">  1       -2 0.15739060E+00 0.87038829E+03</pdfrwt>
<totfact> 0.59259311E+01</totfact>
</mgrwt>
</event>
<event>
 4    1  0.5917727E-005  0.9841127E+03  0.7818608E-02  0.9326143E-01
         -2   -1    0    0    0  501 -0.00000000000E+00  0.00000000000E+00  0.60943230434E+03  0.60943230435E+03  0.25500000000E-02 0. -1.
          2   -1    0    0  501    0  0.00000000000E+00 -0.00000000000E+00 -0.39728689294E+03  0.39728689294E+03  0.25500000000E-02 0.  1.
    5000001    1    1    2    0    0  0.32734049519E+03 -0.31301750114E+03  0.14754673311E+03  0.51209939881E+03  0.18800000000E+03 0.  0.
   -5000001    1    1    2    0    0 -0.32734049519E+03  0.31301750114E+03  0.64598678294E+02  0.49461979848E+03  0.18800000000E+03 0.  0.
<mgrwt>
<rscale>  0 0.98411273E+03</rscale>
<asrwt>0</asrwt>
<pdfrwt beam="1">  1        2 0.56755270E-01 0.98411273E+03</pdfrwt>
<pdfrwt beam="2">  1       -2 0.87061759E-01 0.98411273E+03</pdfrwt>
<totfact> 0.99410153E+01</totfact>
</mgrwt>
</event>
<event>
 4    1  0.5917727E-005  0.4714692E+03  0.7818608E-02  0.1021506E+00
         -2   -1    0    0    0  501 -0.00000000000E+00  0.00000000000E+00  0.47495167118E+02  0.47495167186E+02  0.25500000000E-02 0. -1.
          2   -1    0    0  501    0  0.00000000000E+00 -0.00000000000E+00 -0.11700305725E+04  0.11700305725E+04  0.25500000000E-02 0.  1.
    5000001    1    1    2    0    0 -0.57045497596E+02  0.12949332632E+03 -0.52437565265E+03  0.57474910653E+03  0.18800000000E+03 0.  0.
   -5000001    1    1    2    0    0  0.57045497596E+02 -0.12949332632E+03 -0.59815975274E+03  0.64277663317E+03  0.18800000000E+03 0.  0.
<mgrwt>
<rscale>  0 0.47146918E+03</rscale>
<asrwt>0</asrwt>
<pdfrwt beam="1">  1        2 0.16714721E+00 0.47146918E+03</pdfrwt>
<pdfrwt beam="2">  1       -2 0.67850247E-02 0.47146918E+03</pdfrwt>
<totfact> 0.28547553E+03</totfact>
</mgrwt>
</event>
<event>
 4    1  0.5917727E-005  0.4609347E+03  0.7818608E-02  0.1024510E+00
          2   -1    0    0  501    0  0.00000000000E+00  0.00000000000E+00  0.13596442154E+04  0.13596442154E+04  0.25500000000E-02 0.  1.
         -2   -1    0    0    0  501 -0.00000000000E+00 -0.00000000000E+00 -0.39065518066E+02  0.39065518149E+02  0.25500000000E-02 0. -1.
    5000001    1    1    2    0    0 -0.13121656155E+03  0.23295992131E+02  0.65035559051E+03  0.68997600203E+03  0.18800000000E+03 0.  0.
   -5000001    1    1    2    0    0  0.13121656155E+03 -0.23295992131E+02  0.67022310686E+03  0.70873373156E+03  0.18800000000E+03 0.  0.
<mgrwt>
<rscale>  0 0.46093473E+03</rscale>
<asrwt>0</asrwt>
<pdfrwt beam="1">  1        2 0.19423495E+00 0.46093473E+03</pdfrwt>
<pdfrwt beam="2">  1       -2 0.55807865E-02 0.46093473E+03</pdfrwt>
<totfact> 0.30522059E+03</totfact>
</mgrwt>
</event>
<event>
 4    1  0.5917727E-005  0.7135607E+03  0.7818608E-02  0.9694319E-01
         -2   -1    0    0    0  501 -0.00000000000E+00  0.00000000000E+00  0.36380038141E+03  0.36380038142E+03  0.25500000000E-02 0. -1.
          2   -1    0    0  501    0  0.00000000000E+00 -0.00000000000E+00 -0.34989578438E+03  0.34989578439E+03  0.25500000000E-02 0.  1.
    5000001    1    1    2    0    0  0.23023778705E+02  0.13934607627E+03  0.27533287916E+03  0.36207681188E+03  0.18800000000E+03 0.  0.
   -5000001    1    1    2    0    0 -0.23023778705E+02 -0.13934607627E+03 -0.26142828213E+03  0.35161935393E+03  0.18800000000E+03 0.  0.
<mgrwt>
<rscale>  0 0.71356070E+03</rscale>
<asrwt>0</asrwt>
<pdfrwt beam="1">  1        2 0.49985112E-01 0.71356070E+03</pdfrwt>
<pdfrwt beam="2">  1       -2 0.51971483E-01 0.71356070E+03</pdfrwt>
<totfact> 0.35405079E+02</totfact>
</mgrwt>
</event>
<event>
 4    1  0.5917727E-005  0.6486515E+03  0.7818608E-02  0.9809313E-01
         -2   -1    0    0    0  501 -0.00000000000E+00  0.00000000000E+00  0.84723526942E+03  0.84723526942E+03  0.25500000000E-02 0. -1.
          2   -1    0    0  501    0  0.00000000000E+00 -0.00000000000E+00 -0.12415346935E+03  0.12415346938E+03  0.25500000000E-02 0.  1.
    5000001    1    1    2    0    0 -0.17228391877E+03 -0.19593836367E+03  0.42453792560E+03  0.53258805966E+03  0.18800000000E+03 0.  0.
   -5000001    1    1    2    0    0  0.17228391877E+03  0.19593836367E+03  0.29854387447E+03  0.43880067914E+03  0.18800000000E+03 0.  0.
<mgrwt>
<rscale>  0 0.64865152E+03</rscale>
<asrwt>0</asrwt>
<pdfrwt beam="1">  1        2 0.17736210E-01 0.64865152E+03</pdfrwt>
<pdfrwt beam="2">  1       -2 0.12103361E+00 0.64865152E+03</pdfrwt>
<totfact> 0.17240727E+02</totfact>
</mgrwt>
</event>
<event>
 4    1  0.5917727E-005  0.4891740E+03  0.7818608E-02  0.1016644E+00
          2   -1    0    0  501    0  0.00000000000E+00  0.00000000000E+00  0.18511786940E+04  0.18511786940E+04  0.25500000000E-02 0.  1.
         -2   -1    0    0    0  501 -0.00000000000E+00 -0.00000000000E+00 -0.32316062497E+02  0.32316062598E+02  0.25500000000E-02 0. -1.
    5000001    1    1    2    0    0 -0.11462243252E+03 -0.10647878400E+03  0.90301958951E+03  0.93555567046E+03  0.18800000000E+03 0.  0.
   -5000001    1    1    2    0    0  0.11462243252E+03  0.10647878400E+03  0.91584304201E+03  0.94793908617E+03  0.18800000000E+03 0.  0.
<mgrwt>
<rscale>  0 0.48917402E+03</rscale>
<asrwt>0</asrwt>
<pdfrwt beam="1">  1        2 0.26445419E+00 0.48917402E+03</pdfrwt>
<pdfrwt beam="2">  1       -2 0.46165788E-02 0.48917402E+03</pdfrwt>
<totfact> 0.22925261E+03</totfact>
</mgrwt>
</event>
<event>
 4    1  0.5917727E-005  0.4626797E+03  0.7818608E-02  0.1024007E+00
          2   -1    0    0  501    0  0.00000000000E+00  0.00000000000E+00  0.10380582017E+04  0.10380582017E+04  0.25500000000E-02 0.  1.
         -2   -1    0    0    0  501 -0.00000000000E+00 -0.00000000000E+00 -0.51555994319E+02  0.51555994382E+02  0.25500000000E-02 0. -1.
    5000001    1    1    2    0    0 -0.12180883749E+02 -0.75174446188E+02  0.23127778908E+03  0.30762475032E+03  0.18800000000E+03 0.  0.
   -5000001    1    1    2    0    0  0.12180883749E+02  0.75174446188E+02  0.75522441831E+03  0.78198944577E+03  0.18800000000E+03 0.  0.
<mgrwt>
<rscale>  0 0.46267969E+03</rscale>
<asrwt>0</asrwt>
<pdfrwt beam="1">  1        2 0.14829403E+00 0.46267969E+03</pdfrwt>
<pdfrwt beam="2">  1       -2 0.73651420E-02 0.46267969E+03</pdfrwt>
<totfact> 0.29889880E+03</totfact>
</mgrwt>
</event>
<event>
 4    1  0.5917727E-005  0.6344432E+03  0.7818608E-02  0.9836416E-01
         -2   -1    0    0    0  501 -0.00000000000E+00  0.00000000000E+00  0.42398429427E+03  0.42398429428E+03  0.25500000000E-02 0. -1.
          2   -1    0    0  501    0  0.00000000000E+00 -0.00000000000E+00 -0.23734264283E+03  0.23734264285E+03  0.25500000000E-02 0.  1.
    5000001    1    1    2    0    0 -0.13104888908E+03 -0.21578990913E+03  0.13431218598E+03  0.34223217194E+03  0.18800000000E+03 0.  0.
   -5000001    1    1    2    0    0  0.13104888908E+03  0.21578990913E+03  0.52329465461E+02  0.31909476518E+03  0.18800000000E+03 0.  0.
<mgrwt>
<rscale>  0 0.63444323E+03</rscale>
<asrwt>0</asrwt>
<pdfrwt beam="1">  1        2 0.33906092E-01 0.63444323E+03</pdfrwt>
<pdfrwt beam="2">  1       -2 0.60569185E-01 0.63444323E+03</pdfrwt>
<totfact> 0.39705414E+02</totfact>
</mgrwt>
</event>
<event>
 4    1  0.5917727E-005  0.5386824E+03  0.7818608E-02  0.1004148E+00
          2   -1    0    0  501    0  0.00000000000E+00  0.00000000000E+00  0.17873533716E+04  0.17873533717E+04  0.25500000000E-02 0.  1.
         -2   -1    0    0    0  501 -0.00000000000E+00 -0.00000000000E+00 -0.40587769002E+02  0.40587769082E+02  0.25500000000E-02 0. -1.
    5000001    1    1    2    0    0  0.17720758796E+03 -0.11913124281E+02  0.11285901038E+04  0.11578445811E+04  0.18800000000E+03 0.  0.
   -5000001    1    1    2    0    0 -0.17720758796E+03  0.11913124281E+02  0.61817549888E+03  0.67009655959E+03  0.18800000000E+03 0.  0.
<mgrwt>
<rscale>  0 0.53868241E+03</rscale>
<asrwt>0</asrwt>
<pdfrwt beam="1">  1        2 0.25533620E+00 0.53868241E+03</pdfrwt>
<pdfrwt beam="2">  1       -2 0.57982525E-02 0.53868241E+03</pdfrwt>
<totfact> 0.17310127E+03</totfact>
</mgrwt>
</event>
<event>
 4    1  0.5917727E-005  0.5484301E+03  0.7818608E-02  0.1001858E+00
         -2   -1    0    0    0  501 -0.00000000000E+00  0.00000000000E+00  0.30373764133E+02  0.30373764240E+02  0.25500000000E-02 0. -1.
          2   -1    0    0  501    0  0.00000000000E+00 -0.00000000000E+00 -0.24756200873E+04  0.24756200873E+04  0.25500000000E-02 0.  1.
    5000001    1    1    2    0    0 -0.13507149262E+03  0.67543590878E+02 -0.18191603589E+04  0.18350735288E+04  0.18800000000E+03 0.  0.
   -5000001    1    1    2    0    0  0.13507149262E+03 -0.67543590878E+02 -0.62608596430E+03  0.67092032275E+03  0.18800000000E+03 0.  0.
<mgrwt>
<rscale>  0 0.54843013E+03</rscale>
<asrwt>0</asrwt>
<pdfrwt beam="1">  1        2 0.35365988E+00 0.54843013E+03</pdfrwt>
<pdfrwt beam="2">  1       -2 0.43391108E-02 0.54843013E+03</pdfrwt>
<totfact> 0.12212159E+03</totfact>
</mgrwt>
</event>
<event>
 4    1  0.5917727E-005  0.5985058E+03  0.7818608E-02  0.9908511E-01
         -2   -1    0    0    0  501 -0.00000000000E+00  0.00000000000E+00  0.67405896990E+02  0.67405897038E+02  0.25500000000E-02 0. -1.
          2   -1    0    0  501    0  0.00000000000E+00 -0.00000000000E+00 -0.13285530172E+04  0.13285530172E+04  0.25500000000E-02 0.  1.
    5000001    1    1    2    0    0 -0.16543267604E+02  0.21961973492E+03 -0.80669419665E+03  0.85709161387E+03  0.18800000000E+03 0.  0.
   -5000001    1    1    2    0    0  0.16543267604E+02 -0.21961973492E+03 -0.45445292355E+03  0.53886730035E+03  0.18800000000E+03 0.  0.
<mgrwt>
<rscale>  0 0.59850583E+03</rscale>
<asrwt>0</asrwt>
<pdfrwt beam="1">  1        2 0.18979327E+00 0.59850583E+03</pdfrwt>
<pdfrwt beam="2">  1       -2 0.96294147E-02 0.59850583E+03</pdfrwt>
<totfact> 0.13352549E+03</totfact>
</mgrwt>
</event>
<event>
 4    1  0.5917727E-005  0.6075270E+03  0.7818608E-02  0.9889912E-01
          2   -1    0    0  501    0  0.00000000000E+00  0.00000000000E+00  0.11006784269E+03  0.11006784272E+03  0.25500000000E-02 0.  1.
         -2   -1    0    0    0  501 -0.00000000000E+00 -0.00000000000E+00 -0.83832165834E+03  0.83832165834E+03  0.25500000000E-02 0. -1.
    5000001    1    1    2    0    0  0.14494931926E+03  0.17905609828E+03 -0.46107480361E+03  0.54863955928E+03  0.18800000000E+03 0.  0.
   -5000001    1    1    2    0    0 -0.14494931926E+03 -0.17905609828E+03 -0.26717901204E+03  0.39974994179E+03  0.18800000000E+03 0.  0.
<mgrwt>
<rscale>  0 0.60752698E+03</rscale>
<asrwt>0</asrwt>
<pdfrwt beam="1">  1        2 0.15723978E-01 0.60752698E+03</pdfrwt>
<pdfrwt beam="2">  1       -2 0.11976023E+00 0.60752698E+03</pdfrwt>
<totfact> 0.20471730E+02</totfact>
</mgrwt>
</event>
<event>
 4    1  0.5917727E-005  0.6805047E+03  0.7818608E-02  0.9751165E-01
          2   -1    0    0  501    0  0.00000000000E+00  0.00000000000E+00  0.94269902146E+03  0.94269902146E+03  0.25500000000E-02 0.  1.
         -2   -1    0    0    0  501 -0.00000000000E+00 -0.00000000000E+00 -0.12280870751E+03  0.12280870754E+03  0.25500000000E-02 0. -1.
    5000001    1    1    2    0    0  0.18400871737E+03  0.15886887772E+03  0.18127369446E+03  0.35679501213E+03  0.18800000000E+03 0.  0.
   -5000001    1    1    2    0    0 -0.18400871737E+03 -0.15886887772E+03  0.63861661949E+03  0.70871271688E+03  0.18800000000E+03 0.  0.
<mgrwt>
<rscale>  0 0.68050466E+03</rscale>
<asrwt>0</asrwt>
<pdfrwt beam="1">  1        2 0.13467129E+00 0.68050466E+03</pdfrwt>
<pdfrwt beam="2">  1       -2 0.17544101E-01 0.68050466E+03</pdfrwt>
<totfact> 0.82118950E+02</totfact>
</mgrwt>
</event>
<event>
 4    1  0.5917727E-005  0.7325093E+03  0.7818608E-02  0.9663197E-01
          2   -1    0    0  501    0  0.00000000000E+00  0.00000000000E+00  0.35603773054E+03  0.35603773055E+03  0.25500000000E-02 0.  1.
         -2   -1    0    0    0  501 -0.00000000000E+00 -0.00000000000E+00 -0.37676474912E+03  0.37676474912E+03  0.25500000000E-02 0. -1.
    5000001    1    1    2    0    0  0.17472606520E+02 -0.30086686797E+03  0.78959976426E+02  0.36387476156E+03  0.18800000000E+03 0.  0.
   -5000001    1    1    2    0    0 -0.17472606520E+02  0.30086686797E+03 -0.99686995002E+02  0.36892771812E+03  0.18800000000E+03 0.  0.
<mgrwt>
<rscale>  0 0.73250929E+03</rscale>
<asrwt>0</asrwt>
<pdfrwt beam="1">  1        2 0.50862533E-01 0.73250929E+03</pdfrwt>
<pdfrwt beam="2">  1       -2 0.53823536E-01 0.73250929E+03</pdfrwt>
<totfact> 0.32297970E+02</totfact>
</mgrwt>
</event>
<event>
 4    1  0.5917727E-005  0.4939987E+03  0.7818608E-02  0.1015357E+00
          2   -1    0    0  501    0  0.00000000000E+00  0.00000000000E+00  0.44802487016E+02  0.44802487088E+02  0.25500000000E-02 0.  1.
         -2   -1    0    0    0  501 -0.00000000000E+00 -0.00000000000E+00 -0.13617250925E+04  0.13617250925E+04  0.25500000000E-02 0. -1.
    5000001    1    1    2    0    0 -0.14491654845E+03  0.63252638472E+02 -0.58515033798E+03  0.63462321130E+03  0.18800000000E+03 0.  0.
   -5000001    1    1    2    0    0  0.14491654845E+03 -0.63252638472E+02 -0.73177226749E+03  0.77190436827E+03  0.18800000000E+03 0.  0.
<mgrwt>
<rscale>  0 0.49399867E+03</rscale>
<asrwt>0</asrwt>
<pdfrwt beam="1">  1        2 0.64003562E-02 0.49399867E+03</pdfrwt>
<pdfrwt beam="2">  1       -2 0.19453213E+00 0.49399867E+03</pdfrwt>
<totfact> 0.17636568E+02</totfact>
</mgrwt>
</event>
<event>
 4    1  0.5917727E-005  0.4680214E+03  0.7818608E-02  0.1022480E+00
          2   -1    0    0  501    0  0.00000000000E+00  0.00000000000E+00  0.20543395882E+04  0.20543395882E+04  0.25500000000E-02 0.  1.
         -2   -1    0    0    0  501 -0.00000000000E+00 -0.00000000000E+00 -0.26656258486E+02  0.26656258608E+02  0.25500000000E-02 0. -1.
    5000001    1    1    2    0    0 -0.22544269242E+02  0.13744520024E+03  0.10324846621E+04  0.10586633104E+04  0.18800000000E+03 0.  0.
   -5000001    1    1    2    0    0  0.22544269242E+02 -0.13744520024E+03  0.99519866756E+03  0.10223325364E+04  0.18800000000E+03 0.  0.
<mgrwt>
<rscale>  0 0.46802140E+03</rscale>
<asrwt>0</asrwt>
<pdfrwt beam="1">  1        2 0.29347713E+00 0.46802140E+03</pdfrwt>
<pdfrwt beam="2">  1       -2 0.38080363E-02 0.46802140E+03</pdfrwt>
<totfact> 0.24400223E+03</totfact>
</mgrwt>
</event>
<event>
 4    1  0.5917727E-005  0.5296548E+03  0.7818608E-02  0.1006316E+00
          2   -1    0    0  501    0  0.00000000000E+00  0.00000000000E+00  0.48148309443E+03  0.48148309443E+03  0.25500000000E-02 0.  1.
         -2   -1    0    0    0  501 -0.00000000000E+00 -0.00000000000E+00 -0.14566148632E+03  0.14566148634E+03  0.25500000000E-02 0. -1.
    5000001    1    1    2    0    0  0.15824331349E+03  0.81376183188E+02  0.10170364421E+03  0.27811986751E+03  0.18800000000E+03 0.  0.
   -5000001    1    1    2    0    0 -0.15824331349E+03 -0.81376183188E+02  0.23411796390E+03  0.34902471327E+03  0.18800000000E+03 0.  0.
<mgrwt>
<rscale>  0 0.52965477E+03</rscale>
<asrwt>0</asrwt>
<pdfrwt beam="1">  1        2 0.68783300E-01 0.52965477E+03</pdfrwt>
<pdfrwt beam="2">  1       -2 0.20808784E-01 0.52965477E+03</pdfrwt>
<totfact> 0.13933497E+03</totfact>
</mgrwt>
</event>
<event>
 4    1  0.5917727E-005  0.4287792E+03  0.7818608E-02  0.1034246E+00
         -2   -1    0    0    0  501 -0.00000000000E+00  0.00000000000E+00  0.35290685531E+02  0.35290685623E+02  0.25500000000E-02 0. -1.
          2   -1    0    0  501    0  0.00000000000E+00 -0.00000000000E+00 -0.13024086269E+04  0.13024086269E+04  0.25500000000E-02 0.  1.
    5000001    1    1    2    0    0 -0.59425560136E+02 -0.82499958677E+02 -0.58123828987E+03  0.61928958492E+03  0.18800000000E+03 0.  0.
   -5000001    1    1    2    0    0  0.59425560136E+02  0.82499958677E+02 -0.68587965154E+03  0.71840972764E+03  0.18800000000E+03 0.  0.
<mgrwt>
<rscale>  0 0.42877917E+03</rscale>
<asrwt>0</asrwt>
<pdfrwt beam="1">  1        2 0.18605835E+00 0.42877917E+03</pdfrwt>
<pdfrwt beam="2">  1       -2 0.50415273E-02 0.42877917E+03</pdfrwt>
<totfact> 0.38308431E+03</totfact>
</mgrwt>
</event>
<event>
 4    1  0.5917727E-005  0.5006731E+03  0.7818608E-02  0.1013603E+00
          2   -1    0    0  501    0  0.00000000000E+00  0.00000000000E+00  0.12229241323E+04  0.12229241323E+04  0.25500000000E-02 0.  1.
         -2   -1    0    0    0  501 -0.00000000000E+00 -0.00000000000E+00 -0.51244700062E+02  0.51244700125E+02  0.25500000000E-02 0. -1.
    5000001    1    1    2    0    0 -0.73314162721E+01 -0.74076805271E+02  0.96144713409E+03  0.98247937098E+03  0.18800000000E+03 0.  0.
   -5000001    1    1    2    0    0  0.73314162721E+01  0.74076805271E+02  0.21023229819E+03  0.29168946149E+03  0.18800000000E+03 0.  0.
<mgrwt>
<rscale>  0 0.50067307E+03</rscale>
<asrwt>0</asrwt>
<pdfrwt beam="1">  1        2 0.17470347E+00 0.50067307E+03</pdfrwt>
<pdfrwt beam="2">  1       -2 0.73206707E-02 0.50067307E+03</pdfrwt>
<totfact> 0.23667343E+03</totfact>
</mgrwt>
</event>
<event>
 4    1  0.5917727E-005  0.4404281E+03  0.7818608E-02  0.1030616E+00
          2   -1    0    0  501    0  0.00000000000E+00  0.00000000000E+00  0.44249085257E+03  0.44249085257E+03  0.25500000000E-02 0.  1.
         -2   -1    0    0    0  501 -0.00000000000E+00 -0.00000000000E+00 -0.10959374455E+03  0.10959374458E+03  0.25500000000E-02 0. -1.
    5000001    1    1    2    0    0  0.61775094587E+02 -0.89387830248E+02  0.12049582293E+03  0.24833362610E+03  0.18800000000E+03 0.  0.
   -5000001    1    1    2    0    0 -0.61775094587E+02  0.89387830248E+02  0.21240128509E+03  0.30375097105E+03  0.18800000000E+03 0.  0.
<mgrwt>
<rscale>  0 0.44042811E+03</rscale>
<asrwt>0</asrwt>
<pdfrwt beam="1">  1        2 0.63212979E-01 0.44042811E+03</pdfrwt>
<pdfrwt beam="2">  1       -2 0.15656249E-01 0.44042811E+03</pdfrwt>
<totfact> 0.24891831E+03</totfact>
</mgrwt>
</event>
<event>
 4    1  0.5917727E-005  0.3987273E+03  0.7818608E-02  0.1044221E+00
         -2   -1    0    0    0  501 -0.00000000000E+00  0.00000000000E+00  0.28779469613E+02  0.28779469726E+02  0.25500000000E-02 0. -1.
          2   -1    0    0  501    0  0.00000000000E+00 -0.00000000000E+00 -0.13810494223E+04  0.13810494223E+04  0.25500000000E-02 0.  1.
    5000001    1    1    2    0    0  0.57961708256E+02  0.22588257424E+02 -0.75769536175E+03  0.78314497394E+03  0.18800000000E+03 0.  0.
   -5000001    1    1    2    0    0 -0.57961708256E+02 -0.22588257424E+02 -0.59457459096E+03  0.62668391810E+03  0.18800000000E+03 0.  0.
<mgrwt>
<rscale>  0 0.39872733E+03</rscale>
<asrwt>0</asrwt>
<pdfrwt beam="1">  1        2 0.19729273E+00 0.39872733E+03</pdfrwt>
<pdfrwt beam="2">  1       -2 0.41113537E-02 0.39872733E+03</pdfrwt>
<totfact> 0.47534004E+03</totfact>
</mgrwt>
</event>
<event>
 4    1  0.5917727E-005  0.5613569E+03  0.7818608E-02  0.9988989E-01
         -2   -1    0    0    0  501 -0.00000000000E+00  0.00000000000E+00  0.30963168106E+02  0.30963168211E+02  0.25500000000E-02 0. -1.
          2   -1    0    0  501    0  0.00000000000E+00 -0.00000000000E+00 -0.25443259514E+04  0.25443259514E+04  0.25500000000E-02 0.  1.
    5000001    1    1    2    0    0  0.11639346134E+03 -0.16547410916E+03 -0.14863955667E+04  0.15118349445E+04  0.18800000000E+03 0.  0.
   -5000001    1    1    2    0    0 -0.11639346134E+03  0.16547410916E+03 -0.10269672166E+04  0.10634541751E+04  0.18800000000E+03 0.  0.
<mgrwt>
<rscale>  0 0.56135690E+03</rscale>
<asrwt>0</asrwt>
<pdfrwt beam="1">  1        2 0.36347500E+00 0.56135690E+03</pdfrwt>
<pdfrwt beam="2">  1       -2 0.44233114E-02 0.56135690E+03</pdfrwt>
<totfact> 0.10923009E+03</totfact>
</mgrwt>
</event>
<event>
 4    1  0.5917727E-005  0.5506112E+03  0.7818608E-02  0.1001353E+00
          2   -1    0    0  501    0  0.00000000000E+00  0.00000000000E+00  0.57311083203E+03  0.57311083204E+03  0.25500000000E-02 0.  1.
         -2   -1    0    0    0  501 -0.00000000000E+00 -0.00000000000E+00 -0.13224872426E+03  0.13224872429E+03  0.25500000000E-02 0. -1.
    5000001    1    1    2    0    0  0.38070756216E+02  0.17363749759E+03  0.99918424921E+02  0.27735726904E+03  0.18800000000E+03 0.  0.
   -5000001    1    1    2    0    0 -0.38070756216E+02 -0.17363749759E+03  0.34094368285E+03  0.42800228729E+03  0.18800000000E+03 0.  0.
<mgrwt>
<rscale>  0 0.55061121E+03</rscale>
<asrwt>0</asrwt>
<pdfrwt beam="1">  1        2 0.81872977E-01 0.55061121E+03</pdfrwt>
<pdfrwt beam="2">  1       -2 0.18892675E-01 0.55061121E+03</pdfrwt>
<totfact> 0.13500491E+03</totfact>
</mgrwt>
</event>
<event>
 4    1  0.5917727E-005  0.4382060E+03  0.7818608E-02  0.1031299E+00
         -2   -1    0    0    0  501 -0.00000000000E+00  0.00000000000E+00  0.26110991605E+03  0.26110991607E+03  0.25500000000E-02 0. -1.
          2   -1    0    0  501    0  0.00000000000E+00 -0.00000000000E+00 -0.18385407680E+03  0.18385407681E+03  0.25500000000E-02 0.  1.
    5000001    1    1    2    0    0  0.10319688226E+03 -0.10148004718E+02  0.83000164368E+02  0.23018602432E+03  0.18800000000E+03 0.  0.
   -5000001    1    1    2    0    0 -0.10319688226E+03  0.10148004718E+02 -0.57443251095E+01  0.21477796856E+03  0.18800000000E+03 0.  0.
<mgrwt>
<rscale>  0 0.43820599E+03</rscale>
<asrwt>0</asrwt>
<pdfrwt beam="1">  1        2 0.26264868E-01 0.43820599E+03</pdfrwt>
<pdfrwt beam="2">  1       -2 0.37301417E-01 0.43820599E+03</pdfrwt>
<totfact> 0.13973891E+03</totfact>
</mgrwt>
</event>
<event>
 4    1  0.5917727E-005  0.5119414E+03  0.7818608E-02  0.1010708E+00
          2   -1    0    0  501    0  0.00000000000E+00  0.00000000000E+00  0.85861399202E+02  0.85861399240E+02  0.25500000000E-02 0.  1.
         -2   -1    0    0    0  501 -0.00000000000E+00 -0.00000000000E+00 -0.76310186071E+03  0.76310186071E+03  0.25500000000E-02 0. -1.
    5000001    1    1    2    0    0  0.68466544301E+02  0.15950975774E+03 -0.34986298954E+03  0.43345027622E+03  0.18800000000E+03 0.  0.
   -5000001    1    1    2    0    0 -0.68466544301E+02 -0.15950975774E+03 -0.32737747197E+03  0.41551298374E+03  0.18800000000E+03 0.  0.
<mgrwt>
<rscale>  0 0.51194138E+03</rscale>
<asrwt>0</asrwt>
<pdfrwt beam="1">  1        2 0.12265915E-01 0.51194138E+03</pdfrwt>
<pdfrwt beam="2">  1       -2 0.10901455E+00 0.51194138E+03</pdfrwt>
<totfact> 0.34905588E+02</totfact>
</mgrwt>
</event>
<event>
 4    1  0.5917727E-005  0.4864143E+03  0.7818608E-02  0.1017387E+00
          2   -1    0    0  501    0  0.00000000000E+00  0.00000000000E+00  0.89909667325E+03  0.89909667326E+03  0.25500000000E-02 0.  1.
         -2   -1    0    0    0  501 -0.00000000000E+00 -0.00000000000E+00 -0.65787941987E+02  0.65787942037E+02  0.25500000000E-02 0. -1.
    5000001    1    1    2    0    0  0.29000102446E+02 -0.15059377587E+03  0.45021464006E+03  0.51142615635E+03  0.18800000000E+03 0.  0.
   -5000001    1    1    2    0    0 -0.29000102446E+02  0.15059377587E+03  0.38309409121E+03  0.45345845895E+03  0.18800000000E+03 0.  0.
<mgrwt>
<rscale>  0 0.48641431E+03</rscale>
<asrwt>0</asrwt>
<pdfrwt beam="1">  1        2 0.12844238E+00 0.48641431E+03</pdfrwt>
<pdfrwt beam="2">  1       -2 0.93982779E-02 0.48641431E+03</pdfrwt>
<totfact> 0.24702698E+03</totfact>
</mgrwt>
</event>
<event>
 4    1  0.5917727E-005  0.6134328E+03  0.7818608E-02  0.9877923E-01
          2   -1    0    0  501    0  0.00000000000E+00  0.00000000000E+00  0.42091018245E+04  0.42091018245E+04  0.25500000000E-02 0.  1.
         -2   -1    0    0    0  501 -0.00000000000E+00 -0.00000000000E+00 -0.22350361444E+02  0.22350361589E+02  0.25500000000E-02 0. -1.
    5000001    1    1    2    0    0  0.13815880345E+03  0.18068207591E+03  0.26703824463E+04  0.26866373549E+04  0.18800000000E+03 0.  0.
   -5000001    1    1    2    0    0 -0.13815880345E+03 -0.18068207591E+03  0.15163690168E+04  0.15448148312E+04  0.18800000000E+03 0.  0.
<mgrwt>
<rscale>  0 0.61343279E+03</rscale>
<asrwt>0</asrwt>
<pdfrwt beam="1">  1        2 0.60130063E+00 0.61343279E+03</pdfrwt>
<pdfrwt beam="2">  1       -2 0.31929068E-02 0.61343279E+03</pdfrwt>
<totfact> 0.18674588E+02</totfact>
</mgrwt>
</event>
<event>
 4    1  0.5917727E-005  0.4703718E+03  0.7818608E-02  0.1021815E+00
          2   -1    0    0  501    0  0.00000000000E+00  0.00000000000E+00  0.13273242042E+04  0.13273242042E+04  0.25500000000E-02 0.  1.
         -2   -1    0    0    0  501 -0.00000000000E+00 -0.00000000000E+00 -0.41672112538E+02  0.41672112616E+02  0.25500000000E-02 0. -1.
    5000001    1    1    2    0    0  0.10979547799E+03 -0.13400839752E+02  0.89877700506E+03  0.92486687384E+03  0.18800000000E+03 0.  0.
   -5000001    1    1    2    0    0 -0.10979547799E+03  0.13400839752E+02  0.38687508663E+03  0.44412944301E+03  0.18800000000E+03 0.  0.
<mgrwt>
<rscale>  0 0.47037178E+03</rscale>
<asrwt>0</asrwt>
<pdfrwt beam="1">  1        2 0.18961769E+00 0.47037178E+03</pdfrwt>
<pdfrwt beam="2">  1       -2 0.59531606E-02 0.47037178E+03</pdfrwt>
<totfact> 0.28723925E+03</totfact>
</mgrwt>
</event>
<event>
 4    1  0.5917727E-005  0.4409789E+03  0.7818608E-02  0.1030447E+00
          2   -1    0    0  501    0  0.00000000000E+00  0.00000000000E+00  0.20357330020E+04  0.20357330020E+04  0.25500000000E-02 0.  1.
         -2   -1    0    0    0  501 -0.00000000000E+00 -0.00000000000E+00 -0.23881124375E+02  0.23881124511E+02  0.25500000000E-02 0. -1.
    5000001    1    1    2    0    0  0.92635741870E+02  0.31279035557E+02  0.12904784149E+04  0.13077607955E+04  0.18800000000E+03 0.  0.
   -5000001    1    1    2    0    0 -0.92635741870E+02 -0.31279035557E+02  0.72137346267E+03  0.75185333103E+03  0.18800000000E+03 0.  0.
<mgrwt>
<rscale>  0 0.44097888E+03</rscale>
<asrwt>0</asrwt>
<pdfrwt beam="1">  1        2 0.29081897E+00 0.44097888E+03</pdfrwt>
<pdfrwt beam="2">  1       -2 0.34115895E-02 0.44097888E+03</pdfrwt>
<totfact> 0.29486051E+03</totfact>
</mgrwt>
</event>
<event>
 4    1  0.5917727E-005  0.5646894E+03  0.7818608E-02  0.9981500E-01
          2   -1    0    0  501    0  0.00000000000E+00  0.00000000000E+00  0.61267680820E+02  0.61267680873E+02  0.25500000000E-02 0. -1.
         -2   -1    0    0    0  501 -0.00000000000E+00 -0.00000000000E+00 -0.13011511959E+04  0.13011511959E+04  0.25500000000E-02 0.  1.
    5000001    1    1    2    0    0  0.90778548062E+02 -0.11382710130E+03 -0.98725043250E+03  0.10154825307E+04  0.18800000000E+03 0.  0.
   -5000001    1    1    2    0    0 -0.90778548062E+02  0.11382710130E+03 -0.25263308257E+03  0.34693634601E+03  0.18800000000E+03 0.  0.
<mgrwt>
<rscale>  0 0.56468935E+03</rscale>
<asrwt>0</asrwt>
<pdfrwt beam="1">  1        2 0.87525266E-02 0.56468935E+03</pdfrwt>
<pdfrwt beam="2">  1       -2 0.18587873E+00 0.56468935E+03</pdfrwt>
<totfact> 0.13337458E+02</totfact>
</mgrwt>
</event>
<event>
 4    1  0.5917727E-005  0.5691497E+03  0.7818608E-02  0.9971562E-01
          2   -1    0    0  501    0  0.00000000000E+00  0.00000000000E+00  0.10146579864E+03  0.10146579867E+03  0.25500000000E-02 0.  1.
         -2   -1    0    0    0  501 -0.00000000000E+00 -0.00000000000E+00 -0.79812942954E+03  0.79812942954E+03  0.25500000000E-02 0. -1.
    5000001    1    1    2    0    0  0.15820432242E+02  0.21304499689E+03 -0.34735334085E+03  0.44903986480E+03  0.18800000000E+03 0.  0.
   -5000001    1    1    2    0    0 -0.15820432242E+02 -0.21304499689E+03 -0.34931029005E+03  0.45055536342E+03  0.18800000000E+03 0.  0.
<mgrwt>
<rscale>  0 0.56914968E+03</rscale>
<asrwt>0</asrwt>
<pdfrwt beam="1">  1        2 0.14495115E-01 0.56914968E+03</pdfrwt>
<pdfrwt beam="2">  1       -2 0.11401849E+00 0.56914968E+03</pdfrwt>
<totfact> 0.25496853E+02</totfact>
</mgrwt>
</event>
<event>
 4    1  0.5917727E-005  0.6079779E+03  0.7818608E-02  0.9888991E-01
         -2   -1    0    0    0  501 -0.00000000000E+00  0.00000000000E+00  0.36389800299E+02  0.36389800389E+02  0.25500000000E-02 0. -1.
          2   -1    0    0  501    0  0.00000000000E+00 -0.00000000000E+00 -0.25394277886E+04  0.25394277886E+04  0.25500000000E-02 0.  1.
    5000001    1    1    2    0    0  0.20690755246E+03 -0.11035610906E+03 -0.14445591781E+04  0.14754946374E+04  0.18800000000E+03 0.  0.
   -5000001    1    1    2    0    0 -0.20690755246E+03  0.11035610906E+03 -0.10584788102E+04  0.11003229516E+04  0.18800000000E+03 0.  0.
<mgrwt>
<rscale>  0 0.60797786E+03</rscale>
<asrwt>0</asrwt>
<pdfrwt beam="1">  1        2 0.36277529E+00 0.60797786E+03</pdfrwt>
<pdfrwt beam="2">  1       -2 0.51985445E-02 0.60797786E+03</pdfrwt>
<totfact> 0.85270340E+02</totfact>
</mgrwt>
</event>
<event>
 4    1  0.5917727E-005  0.6735221E+03  0.7818608E-02  0.9763616E-01
         -2   -1    0    0    0  501 -0.00000000000E+00  0.00000000000E+00  0.49376017267E+02  0.49376017332E+02  0.25500000000E-02 0. -1.
          2   -1    0    0  501    0  0.00000000000E+00 -0.00000000000E+00 -0.22968238713E+04  0.22968238713E+04  0.25500000000E-02 0.  1.
    5000001    1    1    2    0    0 -0.55210829398E+02 -0.27173252471E+03 -0.10042038269E+04  0.10586104697E+04  0.18800000000E+03 0.  0.
   -5000001    1    1    2    0    0  0.55210829398E+02  0.27173252471E+03 -0.12432440271E+04  0.12875894189E+04  0.18800000000E+03 0.  0.
<mgrwt>
<rscale>  0 0.67352213E+03</rscale>
<asrwt>0</asrwt>
<pdfrwt beam="1">  1        2 0.32811763E+00 0.67352213E+03</pdfrwt>
<pdfrwt beam="2">  1       -2 0.70537182E-02 0.67352213E+03</pdfrwt>
<totfact> 0.69944542E+02</totfact>
</mgrwt>
</event>
<event>
 4    1  0.5917727E-005  0.8476769E+03  0.7818608E-02  0.9493460E-01
          2   -1    0    0  501    0  0.00000000000E+00  0.00000000000E+00  0.18790476520E+04  0.18790476520E+04  0.25500000000E-02 0.  1.
         -2   -1    0    0    0  501 -0.00000000000E+00 -0.00000000000E+00 -0.95601103004E+02  0.95601103038E+02  0.25500000000E-02 0. -1.
    5000001    1    1    2    0    0 -0.28437916406E+03  0.24899290355E+03  0.80375473650E+03  0.90787369794E+03  0.18800000000E+03 0.  0.
   -5000001    1    1    2    0    0  0.28437916406E+03 -0.24899290355E+03  0.97969181247E+03  0.10667750571E+04  0.18800000000E+03 0.  0.
<mgrwt>
<rscale>  0 0.84767689E+03</rscale>
<asrwt>0</asrwt>
<pdfrwt beam="1">  1        2 0.26843539E+00 0.84767689E+03</pdfrwt>
<pdfrwt beam="2">  1       -2 0.13657300E-01 0.84767689E+03</pdfrwt>
<totfact> 0.38420261E+02</totfact>
</mgrwt>
</event>
<event>
 4    1  0.5917727E-005  0.5307490E+03  0.7818608E-02  0.1006051E+00
          2   -1    0    0  501    0  0.00000000000E+00  0.00000000000E+00  0.86424036553E+03  0.86424036554E+03  0.25500000000E-02 0.  1.
         -2   -1    0    0    0  501 -0.00000000000E+00 -0.00000000000E+00 -0.81486168820E+02  0.81486168860E+02  0.25500000000E-02 0. -1.
    5000001    1    1    2    0    0 -0.71994362863E+02  0.78141907305E+02  0.66621474873E+03  0.70033951580E+03  0.18800000000E+03 0.  0.
   -5000001    1    1    2    0    0  0.71994362863E+02 -0.78141907305E+02  0.11653944799E+03  0.24538701860E+03  0.18800000000E+03 0.  0.
<mgrwt>
<rscale>  0 0.53074904E+03</rscale>
<asrwt>0</asrwt>
<pdfrwt beam="1">  1        2 0.12346290E+00 0.53074904E+03</pdfrwt>
<pdfrwt beam="2">  1       -2 0.11640882E-01 0.53074904E+03</pdfrwt>
<totfact> 0.18396045E+03</totfact>
</mgrwt>
</event>
<event>
 4    1  0.5917727E-005  0.7566487E+03  0.7818608E-02  0.9624977E-01
         -2   -1    0    0    0  501 -0.00000000000E+00  0.00000000000E+00  0.75309736197E+02  0.75309736241E+02  0.25500000000E-02 0. -1.
          2   -1    0    0  501    0  0.00000000000E+00 -0.00000000000E+00 -0.19005422052E+04  0.19005422052E+04  0.25500000000E-02 0.  1.
    5000001    1    1    2    0    0 -0.11072908589E+03  0.16101160920E+03 -0.22370439335E+03  0.35152997648E+03  0.18800000000E+03 0.  0.
   -5000001    1    1    2    0    0  0.11072908589E+03 -0.16101160920E+03 -0.16015280757E+04  0.16243219650E+04  0.18800000000E+03 0.  0.
<mgrwt>
<rscale>  0 0.75664875E+03</rscale>
<asrwt>0</asrwt>
<pdfrwt beam="1">  1        2 0.27150600E+00 0.75664875E+03</pdfrwt>
<pdfrwt beam="2">  1       -2 0.10758535E-01 0.75664875E+03</pdfrwt>
<totfact> 0.55946684E+02</totfact>
</mgrwt>
</event>
<event>
 4    1  0.5917727E-005  0.5725509E+03  0.7818608E-02  0.9964050E-01
         -2   -1    0    0    0  501 -0.00000000000E+00  0.00000000000E+00  0.42420464326E+02  0.42420464403E+02  0.25500000000E-02 0. -1.
          2   -1    0    0  501    0  0.00000000000E+00 -0.00000000000E+00 -0.19319363455E+04  0.19319363455E+04  0.25500000000E-02 0.  1.
    5000001    1    1    2    0    0 -0.18796840151E+03  0.92094554227E+02 -0.11271007569E+04  0.11616856903E+04  0.18800000000E+03 0.  0.
   -5000001    1    1    2    0    0  0.18796840151E+03 -0.92094554227E+02 -0.76241512424E+03  0.81267111955E+03  0.18800000000E+03 0.  0.
<mgrwt>
<rscale>  0 0.57255091E+03</rscale>
<asrwt>0</asrwt>
<pdfrwt beam="1">  1        2 0.27599085E+00 0.57255091E+03</pdfrwt>
<pdfrwt beam="2">  1       -2 0.60600676E-02 0.57255091E+03</pdfrwt>
<totfact> 0.13647626E+03</totfact>
</mgrwt>
</event>
<event>
 4    1  0.5917727E-005  0.4555209E+03  0.7818608E-02  0.1026088E+00
          2   -1    0    0  501    0  0.00000000000E+00  0.00000000000E+00  0.70916485829E+03  0.70916485830E+03  0.25500000000E-02 0.  1.
         -2   -1    0    0    0  501 -0.00000000000E+00 -0.00000000000E+00 -0.73149176188E+02  0.73149176233E+02  0.25500000000E-02 0. -1.
    5000001    1    1    2    0    0  0.12732839511E+03  0.14603413271E+02  0.30040587728E+03  0.37684674735E+03  0.18800000000E+03 0.  0.
   -5000001    1    1    2    0    0 -0.12732839511E+03 -0.14603413271E+02  0.33560980482E+03  0.40546728718E+03  0.18800000000E+03 0.  0.
<mgrwt>
<rscale>  0 0.45552091E+03</rscale>
<asrwt>0</asrwt>
<pdfrwt beam="1">  1        2 0.10130926E+00 0.45552091E+03</pdfrwt>
<pdfrwt beam="2">  1       -2 0.10449883E-01 0.45552091E+03</pdfrwt>
<totfact> 0.28119466E+03</totfact>
</mgrwt>
</event>
<event>
 4    1  0.5917727E-005  0.4504088E+03  0.7818608E-02  0.1027600E+00
          2   -1    0    0  501    0  0.00000000000E+00  0.00000000000E+00  0.91446129317E+03  0.91446129317E+03  0.25500000000E-02 0.  1.
         -2   -1    0    0    0  501 -0.00000000000E+00 -0.00000000000E+00 -0.55461098935E+02  0.55461098993E+02  0.25500000000E-02 0. -1.
    5000001    1    1    2    0    0 -0.13718624506E+02 -0.10954158276E+03  0.55103941675E+03  0.59260104440E+03  0.18800000000E+03 0.  0.
   -5000001    1    1    2    0    0  0.13718624506E+02  0.10954158276E+03  0.30796077749E+03  0.37732134777E+03  0.18800000000E+03 0.  0.
<mgrwt>
<rscale>  0 0.45040883E+03</rscale>
<asrwt>0</asrwt>
<pdfrwt beam="1">  1        2 0.13063733E+00 0.45040883E+03</pdfrwt>
<pdfrwt beam="2">  1       -2 0.79230140E-02 0.45040883E+03</pdfrwt>
<totfact> 0.31692455E+03</totfact>
</mgrwt>
</event>
<event>
 4    1  0.5917727E-005  0.8240487E+03  0.7818608E-02  0.9525845E-01
         -2   -1    0    0    0  501 -0.00000000000E+00  0.00000000000E+00  0.26192729643E+03  0.26192729644E+03  0.25500000000E-02 0. -1.
          2   -1    0    0  501    0  0.00000000000E+00 -0.00000000000E+00 -0.64813430001E+03  0.64813430001E+03  0.25500000000E-02 0.  1.
    5000001    1    1    2    0    0 -0.13108037066E+03 -0.28730211398E+03 -0.39881305641E+03  0.54232870312E+03  0.18800000000E+03 0.  0.
   -5000001    1    1    2    0    0  0.13108037066E+03  0.28730211398E+03  0.12606052835E+02  0.36773289333E+03  0.18800000000E+03 0.  0.
<mgrwt>
<rscale>  0 0.82404870E+03</rscale>
<asrwt>0</asrwt>
<pdfrwt beam="1">  1        2 0.92590614E-01 0.82404870E+03</pdfrwt>
<pdfrwt beam="2">  1       -2 0.37418185E-01 0.82404870E+03</pdfrwt>
<totfact> 0.33433266E+02</totfact>
</mgrwt>
</event>
<event>
 4    1  0.5917727E-005  0.6633967E+03  0.7818608E-02  0.9781961E-01
         -2   -1    0    0    0  501 -0.00000000000E+00  0.00000000000E+00  0.62943431360E+02  0.62943431411E+02  0.25500000000E-02 0. -1.
          2   -1    0    0  501    0  0.00000000000E+00 -0.00000000000E+00 -0.17479792017E+04  0.17479792017E+04  0.25500000000E-02 0.  1.
    5000001    1    1    2    0    0  0.24929255642E+03 -0.10644024051E+03 -0.74781775056E+03  0.81734429192E+03  0.18800000000E+03 0.  0.
   -5000001    1    1    2    0    0 -0.24929255642E+03  0.10644024051E+03 -0.93721801978E+03  0.99357834119E+03  0.18800000000E+03 0.  0.
<mgrwt>
<rscale>  0 0.66339674E+03</rscale>
<asrwt>0</asrwt>
<pdfrwt beam="1">  1        2 0.24971128E+00 0.66339674E+03</pdfrwt>
<pdfrwt beam="2">  1       -2 0.89919199E-02 0.66339674E+03</pdfrwt>
<totfact> 0.89945316E+02</totfact>
</mgrwt>
</event>
<event>
 4    1  0.5917727E-005  0.4974157E+03  0.7818608E-02  0.1014456E+00
          2   -1    0    0  501    0  0.00000000000E+00  0.00000000000E+00  0.14845309707E+04  0.14845309707E+04  0.25500000000E-02 0.  1.
         -2   -1    0    0    0  501 -0.00000000000E+00 -0.00000000000E+00 -0.41666755451E+02  0.41666755529E+02  0.25500000000E-02 0. -1.
    5000001    1    1    2    0    0  0.28540811447E+02  0.15237293327E+03  0.56864967779E+03  0.61865866579E+03  0.18800000000E+03 0.  0.
   -5000001    1    1    2    0    0 -0.28540811447E+02 -0.15237293327E+03  0.87421453742E+03  0.90753906040E+03  0.18800000000E+03 0.  0.
<mgrwt>
<rscale>  0 0.49741568E+03</rscale>
<asrwt>0</asrwt>
<pdfrwt beam="1">  1        2 0.21207581E+00 0.49741568E+03</pdfrwt>
<pdfrwt beam="2">  1       -2 0.59523949E-02 0.49741568E+03</pdfrwt>
<totfact> 0.23737276E+03</totfact>
</mgrwt>
</event>
<event>
 4    1  0.5917727E-005  0.9233231E+03  0.7818608E-02  0.9396887E-01
         -2   -1    0    0    0  501 -0.00000000000E+00  0.00000000000E+00  0.60372675049E+02  0.60372675103E+02  0.25500000000E-02 0. -1.
          2   -1    0    0  501    0  0.00000000000E+00 -0.00000000000E+00 -0.35302623537E+04  0.35302623537E+04  0.25500000000E-02 0.  1.
    5000001    1    1    2    0    0 -0.93193208615E+02 -0.27238184410E+03 -0.29329944071E+04  0.29530792464E+04  0.18800000000E+03 0.  0.
   -5000001    1    1    2    0    0  0.93193208615E+02  0.27238184410E+03 -0.53689527155E+03  0.63755578245E+03  0.18800000000E+03 0.  0.
<mgrwt>
<rscale>  0 0.92332309E+03</rscale>
<asrwt>0</asrwt>
<pdfrwt beam="1">  1        2 0.50432306E+00 0.92332309E+03</pdfrwt>
<pdfrwt beam="2">  1       -2 0.86246701E-02 0.92332309E+03</pdfrwt>
<totfact> 0.10493646E+02</totfact>
</mgrwt>
</event>
<event>
 4    1  0.5917727E-005  0.8106901E+03  0.7818608E-02  0.9544671E-01
         -2   -1    0    0    0  501 -0.00000000000E+00  0.00000000000E+00  0.79117445999E+02  0.79117446040E+02  0.25500000000E-02 0. -1.
          2   -1    0    0  501    0  0.00000000000E+00 -0.00000000000E+00 -0.20767179054E+04  0.20767179054E+04  0.25500000000E-02 0.  1.
    5000001    1    1    2    0    0 -0.20460903322E+03  0.29229679145E+03 -0.89050775296E+03  0.97757369484E+03  0.18800000000E+03 0.  0.
   -5000001    1    1    2    0    0  0.20460903322E+03 -0.29229679145E+03 -0.11070927065E+04  0.11782616566E+04  0.18800000000E+03 0.  0.
<mgrwt>
<rscale>  0 0.81069012E+03</rscale>
<asrwt>0</asrwt>
<pdfrwt beam="1">  1        2 0.29667395E+00 0.81069012E+03</pdfrwt>
<pdfrwt beam="2">  1       -2 0.11302494E-01 0.81069012E+03</pdfrwt>
<totfact> 0.41861958E+02</totfact>
</mgrwt>
</event>
<event>
 4    1  0.5917727E-005  0.5528041E+03  0.7818608E-02  0.1000847E+00
         -2   -1    0    0    0  501 -0.00000000000E+00  0.00000000000E+00  0.31636382183E+03  0.31636382185E+03  0.25500000000E-02 0. -1.
          2   -1    0    0  501    0  0.00000000000E+00 -0.00000000000E+00 -0.24148805326E+03  0.24148805327E+03  0.25500000000E-02 0.  1.
    5000001    1    1    2    0    0  0.11766993000E+03 -0.84422776457E+02 -0.10556234187E+03  0.25973221908E+03  0.18800000000E+03 0.  0.
   -5000001    1    1    2    0    0 -0.11766993000E+03  0.84422776457E+02  0.18043811045E+03  0.29811965603E+03  0.18800000000E+03 0.  0.
<mgrwt>
<rscale>  0 0.55280406E+03</rscale>
<asrwt>0</asrwt>
<pdfrwt beam="1">  1        2 0.34498293E-01 0.55280406E+03</pdfrwt>
<pdfrwt beam="2">  1       -2 0.45194832E-01 0.55280406E+03</pdfrwt>
<totfact> 0.70965639E+02</totfact>
</mgrwt>
</event>
<event>
 4    1  0.5917727E-005  0.6137334E+03  0.7818608E-02  0.9877316E-01
         -2   -1    0    0    0  501 -0.00000000000E+00  0.00000000000E+00  0.65216091279E+02  0.65216091329E+02  0.25500000000E-02 0. -1.
          2   -1    0    0  501    0  0.00000000000E+00 -0.00000000000E+00 -0.14439252250E+04  0.14439252250E+04  0.25500000000E-02 0.  1.
    5000001    1    1    2    0    0 -0.10784590947E+03  0.16406460570E+03 -0.33922159324E+03  0.43469900431E+03  0.18800000000E+03 0.  0.
   -5000001    1    1    2    0    0  0.10784590947E+03 -0.16406460570E+03 -0.10394875404E+04  0.10744423120E+04  0.18800000000E+03 0.  0.
<mgrwt>
<rscale>  0 0.61373336E+03</rscale>
<asrwt>0</asrwt>
<pdfrwt beam="1">  1        2 0.20627501E+00 0.61373336E+03</pdfrwt>
<pdfrwt beam="2">  1       -2 0.93165854E-02 0.61373336E+03</pdfrwt>
<totfact> 0.12218164E+03</totfact>
</mgrwt>
</event>
<event>
 4    1  0.5917727E-005  0.4696900E+03  0.7818608E-02  0.1022008E+00
          2   -1    0    0  501    0  0.00000000000E+00  0.00000000000E+00  0.21425457117E+03  0.21425457118E+03  0.25500000000E-02 0.  1.
         -2   -1    0    0    0  501 -0.00000000000E+00 -0.00000000000E+00 -0.25741418281E+03  0.25741418283E+03  0.25500000000E-02 0. -1.
    5000001    1    1    2    0    0  0.13327625764E+03 -0.18876622214E+02 -0.62853785331E+02  0.23961111420E+03  0.18800000000E+03 0.  0.
   -5000001    1    1    2    0    0 -0.13327625764E+03  0.18876622214E+02  0.19694173684E+02  0.23205763981E+03  0.18800000000E+03 0.  0.
<mgrwt>
<rscale>  0 0.46968996E+03</rscale>
<asrwt>0</asrwt>
<pdfrwt beam="1">  1        2 0.30607796E-01 0.46968996E+03</pdfrwt>
<pdfrwt beam="2">  1       -2 0.36773455E-01 0.46968996E+03</pdfrwt>
<totfact> 0.12100728E+03</totfact>
</mgrwt>
</event>
<event>
 4    1  0.5917727E-005  0.9745523E+03  0.7818608E-02  0.9336904E-01
         -2   -1    0    0    0  501 -0.00000000000E+00  0.00000000000E+00  0.93610785013E+02  0.93610785048E+02  0.25500000000E-02 0. -1.
          2   -1    0    0  501    0  0.00000000000E+00 -0.00000000000E+00 -0.25364389245E+04  0.25364389245E+04  0.25500000000E-02 0.  1.
    5000001    1    1    2    0    0  0.44153212794E+03 -0.51152381550E+02 -0.10398386746E+04  0.11463750065E+04  0.18800000000E+03 0.  0.
   -5000001    1    1    2    0    0 -0.44153212794E+03  0.51152381550E+02 -0.14029894649E+04  0.14836747031E+04  0.18800000000E+03 0.  0.
<mgrwt>
<rscale>  0 0.97455228E+03</rscale>
<asrwt>0</asrwt>
<pdfrwt beam="1">  1        2 0.36234838E+00 0.97455228E+03</pdfrwt>
<pdfrwt beam="2">  1       -2 0.13372971E-01 0.97455228E+03</pdfrwt>
<totfact> 0.18162349E+02</totfact>
</mgrwt>
</event>
<event>
 4    1  0.5917727E-005  0.6017721E+03  0.7818608E-02  0.9901736E-01
         -2   -1    0    0    0  501 -0.00000000000E+00  0.00000000000E+00  0.93994872261E+02  0.93994872295E+02  0.25500000000E-02 0. -1.
          2   -1    0    0  501    0  0.00000000000E+00 -0.00000000000E+00 -0.96316331546E+03  0.96316331546E+03  0.25500000000E-02 0.  1.
    5000001    1    1    2    0    0  0.17505206185E+03  0.85436574810E+02 -0.20388328523E+03  0.33890268023E+03  0.18800000000E+03 0.  0.
   -5000001    1    1    2    0    0 -0.17505206185E+03 -0.85436574810E+02 -0.66528515797E+03  0.71825550752E+03  0.18800000000E+03 0.  0.
<mgrwt>
<rscale>  0 0.60177209E+03</rscale>
<asrwt>0</asrwt>
<pdfrwt beam="1">  1        2 0.13759475E+00 0.60177209E+03</pdfrwt>
<pdfrwt beam="2">  1       -2 0.13427839E-01 0.60177209E+03</pdfrwt>
<totfact> 0.12552925E+03</totfact>
</mgrwt>
</event>
<event>
 4    1  0.5917727E-005  0.5624515E+03  0.7818608E-02  0.9986523E-01
          2   -1    0    0  501    0  0.00000000000E+00  0.00000000000E+00  0.13617195166E+03  0.13617195168E+03  0.25500000000E-02 0.  1.
         -2   -1    0    0    0  501 -0.00000000000E+00 -0.00000000000E+00 -0.58079441282E+03  0.58079441282E+03  0.25500000000E-02 0. -1.
    5000001    1    1    2    0    0  0.12450722072E+03  0.14937974376E+03 -0.12417000933E+03  0.29762148288E+03  0.18800000000E+03 0.  0.
   -5000001    1    1    2    0    0 -0.12450722072E+03 -0.14937974376E+03 -0.32045245183E+03  0.41934488162E+03  0.18800000000E+03 0.  0.
<mgrwt>
<rscale>  0 0.56245145E+03</rscale>
<asrwt>0</asrwt>
<pdfrwt beam="1">  1        2 0.19453136E-01 0.56245145E+03</pdfrwt>
<pdfrwt beam="2">  1       -2 0.82970629E-01 0.56245145E+03</pdfrwt>
<totfact> 0.37753899E+02</totfact>
</mgrwt>
</event>
<event>
 4    1  0.5917727E-005  0.5709741E+03  0.7818608E-02  0.9967525E-01
          2   -1    0    0  501    0  0.00000000000E+00  0.00000000000E+00  0.11640946737E+04  0.11640946737E+04  0.25500000000E-02 0.  1.
         -2   -1    0    0    0  501 -0.00000000000E+00 -0.00000000000E+00 -0.70013949781E+02  0.70013949827E+02  0.25500000000E-02 0. -1.
    5000001    1    1    2    0    0  0.29177190238E+02  0.20714122934E+03  0.44115186338E+03  0.52318043148E+03  0.18800000000E+03 0.  0.
   -5000001    1    1    2    0    0 -0.29177190238E+02 -0.20714122934E+03  0.65292886052E+03  0.71092819202E+03  0.18800000000E+03 0.  0.
<mgrwt>
<rscale>  0 0.57097414E+03</rscale>
<asrwt>0</asrwt>
<pdfrwt beam="1">  1        2 0.16629923E+00 0.57097414E+03</pdfrwt>
<pdfrwt beam="2">  1       -2 0.10001993E-01 0.57097414E+03</pdfrwt>
<totfact> 0.15488620E+03</totfact>
</mgrwt>
</event>
<event>
 4    1  0.5917727E-005  0.7205148E+03  0.7818608E-02  0.9682778E-01
         -2   -1    0    0    0  501 -0.00000000000E+00  0.00000000000E+00  0.18163790825E+03  0.18163790827E+03  0.25500000000E-02 0. -1.
          2   -1    0    0  501    0  0.00000000000E+00 -0.00000000000E+00 -0.71452820895E+03  0.71452820895E+03  0.25500000000E-02 0.  1.
    5000001    1    1    2    0    0  0.26032091989E+03 -0.16297806342E+03 -0.27964210898E+03  0.45593041092E+03  0.18800000000E+03 0.  0.
   -5000001    1    1    2    0    0 -0.26032091989E+03  0.16297806342E+03 -0.25324819172E+03  0.44023570630E+03  0.18800000000E+03 0.  0.
<mgrwt>
<rscale>  0 0.72051484E+03</rscale>
<asrwt>0</asrwt>
<pdfrwt beam="1">  1        2 0.10207546E+00 0.72051484E+03</pdfrwt>
<pdfrwt beam="2">  1       -2 0.25948273E-01 0.72051484E+03</pdfrwt>
<totfact> 0.58983529E+02</totfact>
</mgrwt>
</event>
<event>
 4    1  0.5917727E-005  0.9846749E+03  0.7818608E-02  0.9325515E-01
         -2   -1    0    0    0  501 -0.00000000000E+00  0.00000000000E+00  0.25996860480E+03  0.25996860481E+03  0.25500000000E-02 0. -1.
          2   -1    0    0  501    0  0.00000000000E+00 -0.00000000000E+00 -0.93240558144E+03  0.93240558145E+03  0.25500000000E-02 0.  1.
    5000001    1    1    2    0    0  0.21595657619E+01  0.39315969513E+03 -0.61360638196E+03  0.75261942679E+03  0.18800000000E+03 0.  0.
   -5000001    1    1    2    0    0 -0.21595657619E+01 -0.39315969513E+03 -0.58830594681E+02  0.43975475947E+03  0.18800000000E+03 0.  0.
<mgrwt>
<rscale>  0 0.98467493E+03</rscale>
<asrwt>0</asrwt>
<pdfrwt beam="1">  1        2 0.13320080E+00 0.98467493E+03</pdfrwt>
<pdfrwt beam="2">  1       -2 0.37138373E-01 0.98467493E+03</pdfrwt>
<totfact> 0.21112878E+02</totfact>
</mgrwt>
</event>
<event>
 4    1  0.5917727E-005  0.7349322E+03  0.7818608E-02  0.9659290E-01
         -2   -1    0    0    0  501 -0.00000000000E+00  0.00000000000E+00  0.12431842681E+03  0.12431842683E+03  0.25500000000E-02 0. -1.
          2   -1    0    0  501    0  0.00000000000E+00 -0.00000000000E+00 -0.10861732541E+04  0.10861732541E+04  0.25500000000E-02 0.  1.
    5000001    1    1    2    0    0 -0.31137783155E+03 -0.39761357547E+02 -0.53678819155E+03  0.64963272864E+03  0.18800000000E+03 0.  0.
   -5000001    1    1    2    0    0  0.31137783155E+03  0.39761357547E+02 -0.42506663572E+03  0.56085895227E+03  0.18800000000E+03 0.  0.
<mgrwt>
<rscale>  0 0.73493224E+03</rscale>
<asrwt>0</asrwt>
<pdfrwt beam="1">  1        2 0.15516760E+00 0.73493224E+03</pdfrwt>
<pdfrwt beam="2">  1       -2 0.17759776E-01 0.73493224E+03</pdfrwt>
<totfact> 0.65636362E+02</totfact>
</mgrwt>
</event>
<event>
 4    1  0.5917727E-005  0.4341790E+03  0.7818608E-02  0.1032548E+00
         -2   -1    0    0    0  501 -0.00000000000E+00  0.00000000000E+00  0.26478747440E+02  0.26478747563E+02  0.25500000000E-02 0. -1.
          2   -1    0    0  501    0  0.00000000000E+00 -0.00000000000E+00 -0.17798365492E+04  0.17798365492E+04  0.25500000000E-02 0.  1.
    5000001    1    1    2    0    0  0.35692682562E+02 -0.84316069846E+02 -0.63406964157E+03  0.66766119970E+03  0.18800000000E+03 0.  0.
   -5000001    1    1    2    0    0 -0.35692682562E+02  0.84316069846E+02 -0.11192881602E+04  0.11386540971E+04  0.18800000000E+03 0.  0.
<mgrwt>
<rscale>  0 0.43417896E+03</rscale>
<asrwt>0</asrwt>
<pdfrwt beam="1">  1        2 0.25426229E+00 0.43417896E+03</pdfrwt>
<pdfrwt beam="2">  1       -2 0.37826793E-02 0.43417896E+03</pdfrwt>
<totfact> 0.33798318E+03</totfact>
</mgrwt>
</event>
<event>
 4    1  0.5917727E-005  0.5727627E+03  0.7818608E-02  0.9963584E-01
          2   -1    0    0  501    0  0.00000000000E+00  0.00000000000E+00  0.15331590162E+04  0.15331590162E+04  0.25500000000E-02 0.  1.
         -2   -1    0    0    0  501 -0.00000000000E+00 -0.00000000000E+00 -0.53493662348E+02  0.53493662409E+02  0.25500000000E-02 0. -1.
    5000001    1    1    2    0    0 -0.11773587441E+03  0.17852963517E+03  0.65509413269E+03  0.71430167958E+03  0.18800000000E+03 0.  0.
   -5000001    1    1    2    0    0  0.11773587441E+03 -0.17852963517E+03  0.82457122118E+03  0.87235099905E+03  0.18800000000E+03 0.  0.
<mgrwt>
<rscale>  0 0.57276275E+03</rscale>
<asrwt>0</asrwt>
<pdfrwt beam="1">  1        2 0.21902269E+00 0.57276275E+03</pdfrwt>
<pdfrwt beam="2">  1       -2 0.76419528E-02 0.57276275E+03</pdfrwt>
<totfact> 0.15089927E+03</totfact>
</mgrwt>
</event>
<event>
 4    1  0.5917727E-005  0.5512558E+03  0.7818608E-02  0.1001204E+00
         -2   -1    0    0    0  501 -0.00000000000E+00  0.00000000000E+00  0.21265036867E+02  0.21265037020E+02  0.25500000000E-02 0.  1.
          2   -1    0    0  501    0  0.00000000000E+00 -0.00000000000E+00 -0.35725658804E+04  0.35725658804E+04  0.25500000000E-02 0. -1.
    5000001    1    1    2    0    0 -0.16807940542E+03 -0.85286523271E+02 -0.13099720389E+04  0.13367480018E+04  0.18800000000E+03 0.  0.
   -5000001    1    1    2    0    0  0.16807940542E+03  0.85286523271E+02 -0.22413288046E+04  0.22570829156E+04  0.18800000000E+03 0.  0.
<mgrwt>
<rscale>  0 0.55125582E+03</rscale>
<asrwt>0</asrwt>
<pdfrwt beam="1">  1        2 0.51036617E+00 0.55125582E+03</pdfrwt>
<pdfrwt beam="2">  1       -2 0.30378647E-02 0.55125582E+03</pdfrwt>
<totfact> 0.52693262E+02</totfact>
</mgrwt>
</event>
<event>
 4    1  0.5917727E-005  0.5852783E+03  0.7818608E-02  0.9936429E-01
         -2   -1    0    0    0  501 -0.00000000000E+00  0.00000000000E+00  0.13003971988E+03  0.13003971990E+03  0.25500000000E-02 0. -1.
          2   -1    0    0  501    0  0.00000000000E+00 -0.00000000000E+00 -0.65855007825E+03  0.65855007826E+03  0.25500000000E-02 0.  1.
    5000001    1    1    2    0    0  0.10687956439E+02  0.22397731620E+03 -0.25928682712E+03  0.39096512543E+03  0.18800000000E+03 0.  0.
   -5000001    1    1    2    0    0 -0.10687956439E+02 -0.22397731620E+03 -0.26922353125E+03  0.39762467273E+03  0.18800000000E+03 0.  0.
<mgrwt>
<rscale>  0 0.58527828E+03</rscale>
<asrwt>0</asrwt>
<pdfrwt beam="1">  1        2 0.94078580E-01 0.58527828E+03</pdfrwt>
<pdfrwt beam="2">  1       -2 0.18577103E-01 0.58527828E+03</pdfrwt>
<totfact> 0.11791738E+03</totfact>
</mgrwt>
</event>
<event>
 4    1  0.5917727E-005  0.4034969E+03  0.7818608E-02  0.1042576E+00
          2   -1    0    0  501    0  0.00000000000E+00  0.00000000000E+00  0.21217472506E+04  0.21217472506E+04  0.25500000000E-02 0.  1.
         -2   -1    0    0    0  501 -0.00000000000E+00 -0.00000000000E+00 -0.19183451635E+02  0.19183451805E+02  0.25500000000E-02 0. -1.
    5000001    1    1    2    0    0 -0.38170813220E+02  0.29667378143E+02  0.13429287567E+04  0.13568857026E+04  0.18800000000E+03 0.  0.
   -5000001    1    1    2    0    0  0.38170813220E+02 -0.29667378143E+02  0.75963504225E+03  0.78404499980E+03  0.18800000000E+03 0.  0.
<mgrwt>
<rscale>  0 0.40349689E+03</rscale>
<asrwt>0</asrwt>
<pdfrwt beam="1">  1        2 0.30310675E+00 0.40349689E+03</pdfrwt>
<pdfrwt beam="2">  1       -2 0.27404931E-02 0.40349689E+03</pdfrwt>
<totfact> 0.37228456E+03</totfact>
</mgrwt>
</event>
<event>
 4    1  0.5917727E-005  0.6361814E+03  0.7818608E-02  0.9833060E-01
         -2   -1    0    0    0  501 -0.00000000000E+00  0.00000000000E+00  0.10232632429E+03  0.10232632432E+03  0.25500000000E-02 0. -1.
          2   -1    0    0  501    0  0.00000000000E+00 -0.00000000000E+00 -0.98881403895E+03  0.98881403895E+03  0.25500000000E-02 0.  1.
    5000001    1    1    2    0    0  0.89832725261E+02  0.10679958382E+03 -0.81254360010E+03  0.84560461901E+03  0.18800000000E+03 0.  0.
   -5000001    1    1    2    0    0 -0.89832725261E+02 -0.10679958382E+03 -0.73944114560E+02  0.24553574426E+03  0.18800000000E+03 0.  0.
<mgrwt>
<rscale>  0 0.63618144E+03</rscale>
<asrwt>0</asrwt>
<pdfrwt beam="1">  1        2 0.14125914E+00 0.63618144E+03</pdfrwt>
<pdfrwt beam="2">  1       -2 0.14618047E-01 0.63618144E+03</pdfrwt>
<totfact> 0.10491903E+03</totfact>
</mgrwt>
</event>
<event>
 4    1  0.5917727E-005  0.7205007E+03  0.7818608E-02  0.9682802E-01
         -2   -1    0    0    0  501 -0.00000000000E+00  0.00000000000E+00  0.64293401435E+02  0.64293401486E+02  0.25500000000E-02 0. -1.
          2   -1    0    0  501    0  0.00000000000E+00 -0.00000000000E+00 -0.20185634166E+04  0.20185634167E+04  0.25500000000E-02 0.  1.
    5000001    1    1    2    0    0  0.20627671346E+03  0.17244844661E+03 -0.54691568373E+03  0.63776901333E+03  0.18800000000E+03 0.  0.
   -5000001    1    1    2    0    0 -0.20627671346E+03 -0.17244844661E+03 -0.14073543315E+04  0.14450878048E+04  0.18800000000E+03 0.  0.
<mgrwt>
<rscale>  0 0.72050068E+03</rscale>
<asrwt>0</asrwt>
<pdfrwt beam="1">  1        2 0.28836616E+00 0.72050068E+03</pdfrwt>
<pdfrwt beam="2">  1       -2 0.91847729E-02 0.72050068E+03</pdfrwt>
<totfact> 0.63206742E+02</totfact>
</mgrwt>
</event>
<event>
 4    1  0.5917727E-005  0.4479617E+03  0.7818608E-02  0.1028332E+00
         -2   -1    0    0    0  501 -0.00000000000E+00  0.00000000000E+00  0.25740850739E+03  0.25740850740E+03  0.25500000000E-02 0.  1.
          2   -1    0    0  501    0  0.00000000000E+00 -0.00000000000E+00 -0.19489418822E+03  0.19489418824E+03  0.25500000000E-02 0. -1.
    5000001    1    1    2    0    0  0.10718384718E+03  0.42911319480E+02 -0.77653050097E+01  0.22075791809E+03  0.18800000000E+03 0.  0.
   -5000001    1    1    2    0    0 -0.10718384718E+03 -0.42911319480E+02  0.70279624182E+02  0.23154477755E+03  0.18800000000E+03 0.  0.
<mgrwt>
<rscale>  0 0.44796170E+03</rscale>
<asrwt>0</asrwt>
<pdfrwt beam="1">  1        2 0.27842027E-01 0.44796170E+03</pdfrwt>
<pdfrwt beam="2">  1       -2 0.36772644E-01 0.44796170E+03</pdfrwt>
<totfact> 0.13449057E+03</totfact>
</mgrwt>
</event>
<event>
 4    1  0.5917727E-005  0.5048703E+03  0.7818608E-02  0.1012515E+00
          2   -1    0    0  501    0  0.00000000000E+00  0.00000000000E+00  0.12708644597E+04  0.12708644597E+04  0.25500000000E-02 0.  1.
         -2   -1    0    0    0  501 -0.00000000000E+00 -0.00000000000E+00 -0.50141866413E+02  0.50141866478E+02  0.25500000000E-02 0. -1.
    5000001    1    1    2    0    0 -0.87848199707E+02  0.14097059387E+03  0.68388062165E+03  0.72844129427E+03  0.18800000000E+03 0.  0.
   -5000001    1    1    2    0    0  0.87848199707E+02 -0.14097059387E+03  0.53684197160E+03  0.59256503187E+03  0.18800000000E+03 0.  0.
<mgrwt>
<rscale>  0 0.50487034E+03</rscale>
<asrwt>0</asrwt>
<pdfrwt beam="1">  1        2 0.18155206E+00 0.50487034E+03</pdfrwt>
<pdfrwt beam="2">  1       -2 0.71631241E-02 0.50487034E+03</pdfrwt>
<totfact> 0.23053403E+03</totfact>
</mgrwt>
</event>
<event>
 4    1  0.5917727E-005  0.4288028E+03  0.7818608E-02  0.1034239E+00
         -2   -1    0    0    0  501 -0.00000000000E+00  0.00000000000E+00  0.24116680777E+02  0.24116680912E+02  0.25500000000E-02 0. -1.
          2   -1    0    0  501    0  0.00000000000E+00 -0.00000000000E+00 -0.19060651091E+04  0.19060651091E+04  0.25500000000E-02 0.  1.
    5000001    1    1    2    0    0  0.60822154271E+02  0.27555839417E+02 -0.12944159844E+04  0.13097004999E+04  0.18800000000E+03 0.  0.
   -5000001    1    1    2    0    0 -0.60822154271E+02 -0.27555839417E+02 -0.58753244396E+03  0.62048129016E+03  0.18800000000E+03 0.  0.
<mgrwt>
<rscale>  0 0.42880282E+03</rscale>
<asrwt>0</asrwt>
<pdfrwt beam="1">  1        2 0.27229492E+00 0.42880282E+03</pdfrwt>
<pdfrwt beam="2">  1       -2 0.34452413E-02 0.42880282E+03</pdfrwt>
<totfact> 0.33703290E+03</totfact>
</mgrwt>
</event>
<event>
 4    1  0.5917727E-005  0.5635187E+03  0.7818608E-02  0.9984124E-01
         -2   -1    0    0    0  501 -0.00000000000E+00  0.00000000000E+00  0.48571517630E+02  0.48571517697E+02  0.25500000000E-02 0. -1.
          2   -1    0    0  501    0  0.00000000000E+00 -0.00000000000E+00 -0.16344623741E+04  0.16344623741E+04  0.25500000000E-02 0.  1.
    5000001    1    1    2    0    0 -0.60550091185E+02 -0.19064888847E+03 -0.98256854482E+03  0.10201952056E+04  0.18800000000E+03 0.  0.
   -5000001    1    1    2    0    0  0.60550091185E+02  0.19064888847E+03 -0.60332231168E+03  0.66283868625E+03  0.18800000000E+03 0.  0.
<mgrwt>
<rscale>  0 0.56351865E+03</rscale>
<asrwt>0</asrwt>
<pdfrwt beam="1">  1        2 0.23349459E+00 0.56351865E+03</pdfrwt>
<pdfrwt beam="2">  1       -2 0.69387892E-02 0.56351865E+03</pdfrwt>
<totfact> 0.15598573E+03</totfact>
</mgrwt>
</event>
<event>
 4    1  0.5917727E-005  0.4133448E+03  0.7818608E-02  0.1039254E+00
         -2   -1    0    0    0  501 -0.00000000000E+00  0.00000000000E+00  0.44874934031E+03  0.44874934031E+03  0.25500000000E-02 0. -1.
          2   -1    0    0  501    0  0.00000000000E+00 -0.00000000000E+00 -0.95183381234E+02  0.95183381268E+02  0.25500000000E-02 0.  1.
    5000001    1    1    2    0    0  0.84743549809E+02  0.10150627127E+02  0.16465248484E+03  0.26408132313E+03  0.18800000000E+03 0.  0.
   -5000001    1    1    2    0    0 -0.84743549809E+02 -0.10150627127E+02  0.18891347423E+03  0.27985139845E+03  0.18800000000E+03 0.  0.
<mgrwt>
<rscale>  0 0.41334479E+03</rscale>
<asrwt>0</asrwt>
<pdfrwt beam="1">  1        2 0.13597626E-01 0.41334479E+03</pdfrwt>
<pdfrwt beam="2">  1       -2 0.64107050E-01 0.41334479E+03</pdfrwt>
<totfact> 0.10175236E+03</totfact>
</mgrwt>
</event>
<event>
 4    1  0.5917727E-005  0.9302858E+03  0.7818608E-02  0.9388495E-01
         -2   -1    0    0    0  501 -0.00000000000E+00  0.00000000000E+00  0.10461733922E+03  0.10461733925E+03  0.25500000000E-02 0. -1.
          2   -1    0    0  501    0  0.00000000000E+00 -0.00000000000E+00 -0.20680886446E+04  0.20680886446E+04  0.25500000000E-02 0.  1.
    5000001    1    1    2    0    0  0.35050322212E+03  0.12136363312E+01 -0.15449796418E+04  0.15953557833E+04  0.18800000000E+03 0.  0.
   -5000001    1    1    2    0    0 -0.35050322212E+03 -0.12136363312E+01 -0.41849166355E+03  0.57735020056E+03  0.18800000000E+03 0.  0.
<mgrwt>
<rscale>  0 0.93028583E+03</rscale>
<asrwt>0</asrwt>
<pdfrwt beam="1">  1        2 0.29544121E+00 0.93028583E+03</pdfrwt>
<pdfrwt beam="2">  1       -2 0.14945335E-01 0.93028583E+03</pdfrwt>
<totfact> 0.26302592E+02</totfact>
</mgrwt>
</event>
<event>
 4    1  0.5917727E-005  0.5932753E+03  0.7818608E-02  0.9919457E-01
          2   -1    0    0  501    0  0.00000000000E+00  0.00000000000E+00  0.16142724675E+04  0.16142724675E+04  0.25500000000E-02 0.  1.
         -2   -1    0    0    0  501 -0.00000000000E+00 -0.00000000000E+00 -0.54509942190E+02  0.54509942250E+02  0.25500000000E-02 0. -1.
    5000001    1    1    2    0    0  0.20358880545E+03  0.61698352036E+02  0.53799736168E+03  0.60830933704E+03  0.18800000000E+03 0.  0.
   -5000001    1    1    2    0    0 -0.20358880545E+03 -0.61698352036E+02  0.10217651636E+04  0.10604730727E+04  0.18800000000E+03 0.  0.
<mgrwt>
<rscale>  0 0.59327531E+03</rscale>
<asrwt>0</asrwt>
<pdfrwt beam="1">  1        2 0.23061028E+00 0.59327531E+03</pdfrwt>
<pdfrwt beam="2">  1       -2 0.77871372E-02 0.59327531E+03</pdfrwt>
<totfact> 0.13291871E+03</totfact>
</mgrwt>
</event>
<event>
 4    1  0.5917727E-005  0.4005512E+03  0.7818608E-02  0.1043589E+00
          2   -1    0    0  501    0  0.00000000000E+00  0.00000000000E+00  0.43563686275E+03  0.43563686276E+03  0.25500000000E-02 0.  1.
         -2   -1    0    0    0  501 -0.00000000000E+00 -0.00000000000E+00 -0.92072833880E+02  0.92072833916E+02  0.25500000000E-02 0. -1.
    5000001    1    1    2    0    0  0.13619922317E+02 -0.66460719327E+02  0.18864296456E+03  0.27483212617E+03  0.18800000000E+03 0.  0.
   -5000001    1    1    2    0    0 -0.13619922317E+02  0.66460719327E+02  0.15492106432E+03  0.25287757051E+03  0.18800000000E+03 0.  0.
<mgrwt>
<rscale>  0 0.40055122E+03</rscale>
<asrwt>0</asrwt>
<pdfrwt beam="1">  1        2 0.62233838E-01 0.40055122E+03</pdfrwt>
<pdfrwt beam="2">  1       -2 0.13153262E-01 0.40055122E+03</pdfrwt>
<totfact> 0.33783671E+03</totfact>
</mgrwt>
</event>
<event>
 4    1  0.5917727E-005  0.9465929E+03  0.7818608E-02  0.9369142E-01
          2   -1    0    0  501    0  0.00000000000E+00  0.00000000000E+00  0.11828629326E+04  0.11828629326E+04  0.25500000000E-02 0.  1.
         -2   -1    0    0    0  501 -0.00000000000E+00 -0.00000000000E+00 -0.18937911411E+03  0.18937911412E+03  0.25500000000E-02 0. -1.
    5000001    1    1    2    0    0  0.27708275577E+03 -0.32626415353E+03  0.38979653104E+03  0.60869408330E+03  0.18800000000E+03 0.  0.
   -5000001    1    1    2    0    0 -0.27708275577E+03  0.32626415353E+03  0.60368728742E+03  0.76354796340E+03  0.18800000000E+03 0.  0.
<mgrwt>
<rscale>  0 0.94659291E+03</rscale>
<asrwt>0</asrwt>
<pdfrwt beam="1">  1        2 0.16898041E+00 0.94659291E+03</pdfrwt>
<pdfrwt beam="2">  1       -2 0.27054161E-01 0.94659291E+03</pdfrwt>
<totfact> 0.27081101E+02</totfact>
</mgrwt>
</event>
<event>
 4    1  0.5917727E-005  0.7764869E+03  0.7818608E-02  0.9594689E-01
          2   -1    0    0  501    0  0.00000000000E+00  0.00000000000E+00  0.13691452551E+04  0.13691452551E+04  0.25500000000E-02 0.  1.
         -2   -1    0    0    0  501 -0.00000000000E+00 -0.00000000000E+00 -0.11009274670E+03  0.11009274673E+03  0.25500000000E-02 0. -1.
    5000001    1    1    2    0    0  0.26380049577E+03 -0.10864694736E+03  0.98076767383E+03  0.10385779175E+04  0.18800000000E+03 0.  0.
   -5000001    1    1    2    0    0 -0.26380049577E+03  0.10864694736E+03  0.27828483451E+03  0.44066008426E+03  0.18800000000E+03 0.  0.
<mgrwt>
<rscale>  0 0.77648686E+03</rscale>
<asrwt>0</asrwt>
<pdfrwt beam="1">  1        2 0.19559217E+00 0.77648686E+03</pdfrwt>
<pdfrwt beam="2">  1       -2 0.15727536E-01 0.77648686E+03</pdfrwt>
<totfact> 0.55954540E+02</totfact>
</mgrwt>
</event>
<event>
 4    1  0.5917727E-005  0.6328623E+03  0.7818608E-02  0.9839479E-01
          2   -1    0    0  501    0  0.00000000000E+00  0.00000000000E+00  0.24941697647E+03  0.24941697648E+03  0.25500000000E-02 0.  1.
         -2   -1    0    0    0  501 -0.00000000000E+00 -0.00000000000E+00 -0.40145091225E+03  0.40145091226E+03  0.25500000000E-02 0. -1.
    5000001    1    1    2    0    0 -0.10917340075E+03 -0.17362019986E+03  0.79009421363E+02  0.28922187658E+03  0.18800000000E+03 0.  0.
   -5000001    1    1    2    0    0  0.10917340075E+03  0.17362019986E+03 -0.23104335715E+03  0.36164601216E+03  0.18800000000E+03 0.  0.
<mgrwt>
<rscale>  0 0.63286230E+03</rscale>
<asrwt>0</asrwt>
<pdfrwt beam="1">  1        2 0.35630997E-01 0.63286230E+03</pdfrwt>
<pdfrwt beam="2">  1       -2 0.57350130E-01 0.63286230E+03</pdfrwt>
<totfact> 0.42127122E+02</totfact>
</mgrwt>
</event>
<event>
 4    1  0.5917727E-005  0.6729732E+03  0.7818608E-02  0.9764602E-01
         -2   -1    0    0    0  501 -0.00000000000E+00  0.00000000000E+00  0.81349863315E+02  0.81349863355E+02  0.25500000000E-02 0. -1.
          2   -1    0    0  501    0  0.00000000000E+00 -0.00000000000E+00 -0.13918059191E+04  0.13918059191E+04  0.25500000000E-02 0.  1.
    5000001    1    1    2    0    0 -0.10260018418E+03  0.25848482919E+03 -0.70600289112E+03  0.78174502684E+03  0.18800000000E+03 0.  0.
   -5000001    1    1    2    0    0  0.10260018418E+03 -0.25848482919E+03 -0.60445316470E+03  0.69141075566E+03  0.18800000000E+03 0.  0.
<mgrwt>
<rscale>  0 0.67297317E+03</rscale>
<asrwt>0</asrwt>
<pdfrwt beam="1">  1        2 0.19882940E+00 0.67297317E+03</pdfrwt>
<pdfrwt beam="2">  1       -2 0.11621410E-01 0.67297317E+03</pdfrwt>
<totfact> 0.90640655E+02</totfact>
</mgrwt>
</event>
<event>
 4    1  0.5917727E-005  0.8157858E+03  0.7818608E-02  0.9537445E-01
          2   -1    0    0  501    0  0.00000000000E+00  0.00000000000E+00  0.17279208421E+04  0.17279208421E+04  0.25500000000E-02 0.  1.
         -2   -1    0    0    0  501 -0.00000000000E+00 -0.00000000000E+00 -0.96287169998E+02  0.96287170032E+02  0.25500000000E-02 0. -1.
    5000001    1    1    2    0    0 -0.26233225633E+03  0.24159265489E+03  0.67711538193E+03  0.78804470943E+03  0.18800000000E+03 0.  0.
   -5000001    1    1    2    0    0  0.26233225633E+03 -0.24159265489E+03  0.95451829015E+03  0.10361633027E+04  0.18800000000E+03 0.  0.
<mgrwt>
<rscale>  0 0.81578578E+03</rscale>
<asrwt>0</asrwt>
<pdfrwt beam="1">  1        2 0.24684581E+00 0.81578578E+03</pdfrwt>
<pdfrwt beam="2">  1       -2 0.13755311E-01 0.81578578E+03</pdfrwt>
<totfact> 0.45430988E+02</totfact>
</mgrwt>
</event>
<event>
 4    1  0.5917727E-005  0.8962652E+03  0.7818608E-02  0.9430262E-01
         -2   -1    0    0    0  501 -0.00000000000E+00  0.00000000000E+00  0.91009230568E+03  0.91009230568E+03  0.25500000000E-02 0.  1.
          2   -1    0    0  501    0  0.00000000000E+00 -0.00000000000E+00 -0.22066203567E+03  0.22066203569E+03  0.25500000000E-02 0. -1.
    5000001    1    1    2    0    0  0.24279626450E+03 -0.30802138270E+03  0.20853149413E+03  0.48234487900E+03  0.18800000000E+03 0.  0.
   -5000001    1    1    2    0    0 -0.24279626450E+03  0.30802138270E+03  0.48089877587E+03  0.64840946237E+03  0.18800000000E+03 0.  0.
<mgrwt>
<rscale>  0 0.89626519E+03</rscale>
<asrwt>0</asrwt>
<pdfrwt beam="1">  1        2 0.31523148E-01 0.89626519E+03</pdfrwt>
<pdfrwt beam="2">  1       -2 0.13001319E+00 0.89626519E+03</pdfrwt>
<totfact> 0.73312508E+01</totfact>
</mgrwt>
</event>
<event>
 4    1  0.5917727E-005  0.5668367E+03  0.7818608E-02  0.9976703E-01
          2   -1    0    0  501    0  0.00000000000E+00  0.00000000000E+00  0.47186473371E+04  0.47186473371E+04  0.25500000000E-02 0.  1.
         -2   -1    0    0    0  501 -0.00000000000E+00 -0.00000000000E+00 -0.17023091255E+02  0.17023091446E+02  0.25500000000E-02 0. -1.
    5000001    1    1    2    0    0 -0.20692432665E+03  0.40690867098E+02  0.21624096896E+04  0.21807872637E+04  0.18800000000E+03 0.  0.
   -5000001    1    1    2    0    0  0.20692432665E+03 -0.40690867098E+02  0.25392145562E+04  0.25548831648E+04  0.18800000000E+03 0.  0.
<mgrwt>
<rscale>  0 0.56683671E+03</rscale>
<asrwt>0</asrwt>
<pdfrwt beam="1">  1        2 0.67409175E+00 0.56683671E+03</pdfrwt>
<pdfrwt beam="2">  1       -2 0.24318728E-02 0.56683671E+03</pdfrwt>
<totfact> 0.11567162E+02</totfact>
</mgrwt>
</event>
<event>
 4    1  0.5917727E-005  0.6148959E+03  0.7818608E-02  0.9874975E-01
          2   -1    0    0  501    0  0.00000000000E+00  0.00000000000E+00  0.21837430998E+03  0.21837431000E+03  0.25500000000E-02 0.  1.
         -2   -1    0    0    0  501 -0.00000000000E+00 -0.00000000000E+00 -0.43285425586E+03  0.43285425587E+03  0.25500000000E-02 0. -1.
    5000001    1    1    2    0    0  0.16184968493E+03  0.10563265237E+03 -0.26370799261E+03  0.37714650088E+03  0.18800000000E+03 0.  0.
   -5000001    1    1    2    0    0 -0.16184968493E+03 -0.10563265237E+03  0.49228046736E+02  0.27408206498E+03  0.18800000000E+03 0.  0.
<mgrwt>
<rscale>  0 0.61489592E+03</rscale>
<asrwt>0</asrwt>
<pdfrwt beam="1">  1        2 0.31196330E-01 0.61489592E+03</pdfrwt>
<pdfrwt beam="2">  1       -2 0.61836322E-01 0.61489592E+03</pdfrwt>
<totfact> 0.41735411E+02</totfact>
</mgrwt>
</event>
<event>
 4    1  0.5917727E-005  0.8222307E+03  0.7818608E-02  0.9528385E-01
         -2   -1    0    0    0  501 -0.00000000000E+00  0.00000000000E+00  0.80925845635E+02  0.80925845675E+02  0.25500000000E-02 0.  1.
          2   -1    0    0  501    0  0.00000000000E+00 -0.00000000000E+00 -0.20885270503E+04  0.20885270503E+04  0.25500000000E-02 0. -1.
    5000001    1    1    2    0    0 -0.16452382021E+02 -0.29339414031E+03 -0.42983802008E+03  0.55358425371E+03  0.18800000000E+03 0.  0.
   -5000001    1    1    2    0    0  0.16452382021E+02  0.29339414031E+03 -0.15777631846E+04  0.16158686423E+04  0.18800000000E+03 0.  0.
<mgrwt>
<rscale>  0 0.82223067E+03</rscale>
<asrwt>0</asrwt>
<pdfrwt beam="1">  1        2 0.29836097E+00 0.82223067E+03</pdfrwt>
<pdfrwt beam="2">  1       -2 0.11560836E-01 0.82223067E+03</pdfrwt>
<totfact> 0.39747384E+02</totfact>
</mgrwt>
</event>
<event>
 4    1  0.5917727E-005  0.6136347E+03  0.7818608E-02  0.9877515E-01
          2   -1    0    0  501    0  0.00000000000E+00  0.00000000000E+00  0.18353672322E+04  0.18353672322E+04  0.25500000000E-02 0.  1.
         -2   -1    0    0    0  501 -0.00000000000E+00 -0.00000000000E+00 -0.51290499161E+02  0.51290499225E+02  0.25500000000E-02 0. -1.
    5000001    1    1    2    0    0  0.34849508815E+02 -0.11847922420E+03  0.15335917596E+04  0.15499998386E+04  0.18800000000E+03 0.  0.
   -5000001    1    1    2    0    0 -0.34849508815E+02  0.11847922420E+03  0.25048497350E+03  0.33665789279E+03  0.18800000000E+03 0.  0.
<mgrwt>
<rscale>  0 0.61363475E+03</rscale>
<asrwt>0</asrwt>
<pdfrwt beam="1">  1        2 0.26219529E+00 0.61363475E+03</pdfrwt>
<pdfrwt beam="2">  1       -2 0.73272149E-02 0.61363475E+03</pdfrwt>
<totfact> 0.11294225E+03</totfact>
</mgrwt>
</event>
<event>
 4    1  0.5917727E-005  0.1345165E+04  0.7818608E-02  0.8994496E-01
         -2   -1    0    0    0  501 -0.00000000000E+00  0.00000000000E+00  0.12135901071E+03  0.12135901074E+03  0.25500000000E-02 0. -1.
          2   -1    0    0  501    0  0.00000000000E+00 -0.00000000000E+00 -0.37275109648E+04  0.37275109648E+04  0.25500000000E-02 0.  1.
    5000001    1    1    2    0    0 -0.32043190401E+03  0.54374586801E+03 -0.21942103981E+04  0.22909036307E+04  0.18800000000E+03 0.  0.
   -5000001    1    1    2    0    0  0.32043190401E+03 -0.54374586801E+03 -0.14119415560E+04  0.15579663449E+04  0.18800000000E+03 0.  0.
<mgrwt>
<rscale>  0 0.13451647E+04</rscale>
<asrwt>0</asrwt>
<pdfrwt beam="1">  1        2 0.53250149E+00 0.13451647E+04</pdfrwt>
<pdfrwt beam="2">  1       -2 0.17337004E-01 0.13451647E+04</pdfrwt>
<totfact> 0.23637419E+01</totfact>
</mgrwt>
</event>
<event>
 4    1  0.5917727E-005  0.8217085E+03  0.7818608E-02  0.9529116E-01
          2   -1    0    0  501    0  0.00000000000E+00  0.00000000000E+00  0.99354242898E+03  0.99354242898E+03  0.25500000000E-02 0.  1.
         -2   -1    0    0    0  501 -0.00000000000E+00 -0.00000000000E+00 -0.16989833725E+03  0.16989833727E+03  0.25500000000E-02 0. -1.
    5000001    1    1    2    0    0  0.25312854533E+03 -0.17366392314E+03  0.69223778231E+03  0.78023737793E+03  0.18800000000E+03 0.  0.
   -5000001    1    1    2    0    0 -0.25312854533E+03  0.17366392314E+03  0.13140630942E+03  0.38320338832E+03  0.18800000000E+03 0.  0.
<mgrwt>
<rscale>  0 0.82170848E+03</rscale>
<asrwt>0</asrwt>
<pdfrwt beam="1">  1        2 0.14193462E+00 0.82170848E+03</pdfrwt>
<pdfrwt beam="2">  1       -2 0.24271192E-01 0.82170848E+03</pdfrwt>
<totfact> 0.42946486E+02</totfact>
</mgrwt>
</event>
<event>
 4    1  0.5917727E-005  0.7337420E+03  0.7818608E-02  0.9661207E-01
          2   -1    0    0  501    0  0.00000000000E+00  0.00000000000E+00  0.11701625796E+04  0.11701625796E+04  0.25500000000E-02 0.  1.
         -2   -1    0    0    0  501 -0.00000000000E+00 -0.00000000000E+00 -0.11502191747E+03  0.11502191750E+03  0.25500000000E-02 0. -1.
    5000001    1    1    2    0    0 -0.37520623182E+02  0.31200408009E+03  0.56657918089E+03  0.67461864144E+03  0.18800000000E+03 0.  0.
   -5000001    1    1    2    0    0  0.37520623182E+02 -0.31200408009E+03  0.48856148123E+03  0.61056585566E+03  0.18800000000E+03 0.  0.
<mgrwt>
<rscale>  0 0.73374204E+03</rscale>
<asrwt>0</asrwt>
<pdfrwt beam="1">  1        2 0.16716609E+00 0.73374204E+03</pdfrwt>
<pdfrwt beam="2">  1       -2 0.16431702E-01 0.73374204E+03</pdfrwt>
<totfact> 0.67045123E+02</totfact>
</mgrwt>
</event>
<event>
 4    1  0.5917727E-005  0.5152309E+03  0.7818608E-02  0.1009878E+00
         -2   -1    0    0    0  501 -0.00000000000E+00  0.00000000000E+00  0.53129644256E+02  0.53129644317E+02  0.25500000000E-02 0. -1.
          2   -1    0    0  501    0  0.00000000000E+00 -0.00000000000E+00 -0.12491279182E+04  0.12491279182E+04  0.25500000000E-02 0.  1.
    5000001    1    1    2    0    0  0.11330365344E+03 -0.10106638079E+03 -0.82363752642E+03  0.85835593208E+03  0.18800000000E+03 0.  0.
   -5000001    1    1    2    0    0 -0.11330365344E+03  0.10106638079E+03 -0.37236074751E+03  0.44390163043E+03  0.18800000000E+03 0.  0.
<mgrwt>
<rscale>  0 0.51523091E+03</rscale>
<asrwt>0</asrwt>
<pdfrwt beam="1">  1        2 0.17844683E+00 0.51523091E+03</pdfrwt>
<pdfrwt beam="2">  1       -2 0.75899500E-02 0.51523091E+03</pdfrwt>
<totfact> 0.21619860E+03</totfact>
</mgrwt>
</event>
<event>
 4    1  0.5917727E-005  0.7680064E+03  0.7818608E-02  0.9607517E-01
          2   -1    0    0  501    0  0.00000000000E+00  0.00000000000E+00  0.16053140050E+04  0.16053140050E+04  0.25500000000E-02 0.  1.
         -2   -1    0    0    0  501 -0.00000000000E+00 -0.00000000000E+00 -0.91856455962E+02  0.91856455997E+02  0.25500000000E-02 0. -1.
    5000001    1    1    2    0    0  0.31484544859E+03 -0.11199912375E+03  0.80324024290E+03  0.89006199112E+03  0.18800000000E+03 0.  0.
   -5000001    1    1    2    0    0 -0.31484544859E+03  0.11199912375E+03  0.71021730617E+03  0.80710846991E+03  0.18800000000E+03 0.  0.
<mgrwt>
<rscale>  0 0.76800639E+03</rscale>
<asrwt>0</asrwt>
<pdfrwt beam="1">  1        2 0.22933057E+00 0.76800639E+03</pdfrwt>
<pdfrwt beam="2">  1       -2 0.13122351E-01 0.76800639E+03</pdfrwt>
<totfact> 0.57001603E+02</totfact>
</mgrwt>
</event>
<event>
 4    1  0.5917727E-005  0.5096168E+03  0.7818608E-02  0.1011299E+00
          2   -1    0    0  501    0  0.00000000000E+00  0.00000000000E+00  0.31135584660E+03  0.31135584661E+03  0.25500000000E-02 0.  1.
         -2   -1    0    0    0  501 -0.00000000000E+00 -0.00000000000E+00 -0.20853089756E+03  0.20853089757E+03  0.25500000000E-02 0. -1.
    5000001    1    1    2    0    0 -0.37655246204E+02  0.67897308535E+02  0.20798293528E+03  0.29091040449E+03  0.18800000000E+03 0.  0.
   -5000001    1    1    2    0    0  0.37655246204E+02 -0.67897308535E+02 -0.10515798624E+03  0.22897633970E+03  0.18800000000E+03 0.  0.
<mgrwt>
<rscale>  0 0.50961677E+03</rscale>
<asrwt>0</asrwt>
<pdfrwt beam="1">  1        2 0.44479407E-01 0.50961677E+03</pdfrwt>
<pdfrwt beam="2">  1       -2 0.29790128E-01 0.50961677E+03</pdfrwt>
<totfact> 0.11877765E+03</totfact>
</mgrwt>
</event>
<event>
 4    1  0.5917727E-005  0.6005445E+03  0.7818608E-02  0.9904277E-01
          2   -1    0    0  501    0  0.00000000000E+00  0.00000000000E+00  0.47938490948E+03  0.47938490949E+03  0.25500000000E-02 0.  1.
         -2   -1    0    0    0  501 -0.00000000000E+00 -0.00000000000E+00 -0.18808150876E+03  0.18808150878E+03  0.25500000000E-02 0. -1.
    5000001    1    1    2    0    0  0.18856221234E+02  0.23230762863E+03  0.17043061835E+03  0.34454751062E+03  0.18800000000E+03 0.  0.
   -5000001    1    1    2    0    0 -0.18856221234E+02 -0.23230762863E+03  0.12087278237E+03  0.32291890765E+03  0.18800000000E+03 0.  0.
<mgrwt>
<rscale>  0 0.60054454E+03</rscale>
<asrwt>0</asrwt>
<pdfrwt beam="1">  1        2 0.68483557E-01 0.60054454E+03</pdfrwt>
<pdfrwt beam="2">  1       -2 0.26868788E-01 0.60054454E+03</pdfrwt>
<totfact> 0.88816534E+02</totfact>
</mgrwt>
</event>
<event>
 4    1  0.5917727E-005  0.5866001E+03  0.7818608E-02  0.9933603E-01
         -2   -1    0    0    0  501 -0.00000000000E+00  0.00000000000E+00  0.50343148192E+02  0.50343148257E+02  0.25500000000E-02 0. -1.
          2   -1    0    0  501    0  0.00000000000E+00 -0.00000000000E+00 -0.17087712580E+04  0.17087712580E+04  0.25500000000E-02 0.  1.
    5000001    1    1    2    0    0 -0.43402943876E+02  0.21273496857E+03 -0.10076619240E+04  0.10477912652E+04  0.18800000000E+03 0.  0.
   -5000001    1    1    2    0    0  0.43402943876E+02 -0.21273496857E+03 -0.65076618580E+03  0.71132314103E+03  0.18800000000E+03 0.  0.
<mgrwt>
<rscale>  0 0.58660012E+03</rscale>
<asrwt>0</asrwt>
<pdfrwt beam="1">  1        2 0.24411014E+00 0.58660012E+03</pdfrwt>
<pdfrwt beam="2">  1       -2 0.71918794E-02 0.58660012E+03</pdfrwt>
<totfact> 0.13498159E+03</totfact>
</mgrwt>
</event>
<event>
 4    1  0.5917727E-005  0.6426537E+03  0.7818608E-02  0.9820662E-01
          2   -1    0    0  501    0  0.00000000000E+00  0.00000000000E+00  0.38477346869E+04  0.38477346869E+04  0.25500000000E-02 0.  1.
         -2   -1    0    0    0  501 -0.00000000000E+00 -0.00000000000E+00 -0.26834219929E+02  0.26834220050E+02  0.25500000000E-02 0. -1.
    5000001    1    1    2    0    0  0.85158565942E+02 -0.24311840810E+03  0.21476915687E+04  0.21712396495E+04  0.18800000000E+03 0.  0.
   -5000001    1    1    2    0    0 -0.85158565942E+02  0.24311840810E+03  0.16732088983E+04  0.17033292574E+04  0.18800000000E+03 0.  0.
<mgrwt>
<rscale>  0 0.64265375E+03</rscale>
<asrwt>0</asrwt>
<pdfrwt beam="1">  1        2 0.54967608E+00 0.64265375E+03</pdfrwt>
<pdfrwt beam="2">  1       -2 0.38334621E-02 0.64265375E+03</pdfrwt>
<totfact> 0.24624764E+02</totfact>
</mgrwt>
</event>
<event>
 4    1  0.5917727E-005  0.4037957E+03  0.7818608E-02  0.1042473E+00
          2   -1    0    0  501    0  0.00000000000E+00  0.00000000000E+00  0.14209814046E+04  0.14209814046E+04  0.25500000000E-02 0.  1.
         -2   -1    0    0    0  501 -0.00000000000E+00 -0.00000000000E+00 -0.28686331287E+02  0.28686331401E+02  0.25500000000E-02 0. -1.
    5000001    1    1    2    0    0  0.72323365925E+02 -0.51830864529E+01  0.65056458439E+03  0.68105492591E+03  0.18800000000E+03 0.  0.
   -5000001    1    1    2    0    0 -0.72323365925E+02  0.51830864529E+01  0.74173048897E+03  0.76861281014E+03  0.18800000000E+03 0.  0.
<mgrwt>
<rscale>  0 0.40379571E+03</rscale>
<asrwt>0</asrwt>
<pdfrwt beam="1">  1        2 0.20299732E+00 0.40379571E+03</pdfrwt>
<pdfrwt beam="2">  1       -2 0.40980477E-02 0.40379571E+03</pdfrwt>
<totfact> 0.45531028E+03</totfact>
</mgrwt>
</event>
<event>
 4    1  0.5917727E-005  0.4133430E+03  0.7818608E-02  0.1039255E+00
          2   -1    0    0  501    0  0.00000000000E+00  0.00000000000E+00  0.12142816071E+04  0.12142816071E+04  0.25500000000E-02 0.  1.
         -2   -1    0    0    0  501 -0.00000000000E+00 -0.00000000000E+00 -0.35175616483E+02  0.35175616575E+02  0.25500000000E-02 0. -1.
    5000001    1    1    2    0    0 -0.21065160833E+02 -0.64770718600E+02  0.74749639198E+03  0.77377893678E+03  0.18800000000E+03 0.  0.
   -5000001    1    1    2    0    0  0.21065160833E+02  0.64770718600E+02  0.43160959867E+03  0.47567828693E+03  0.18800000000E+03 0.  0.
<mgrwt>
<rscale>  0 0.41334298E+03</rscale>
<asrwt>0</asrwt>
<pdfrwt beam="1">  1        2 0.17346879E+00 0.41334298E+03</pdfrwt>
<pdfrwt beam="2">  1       -2 0.50250883E-02 0.41334298E+03</pdfrwt>
<totfact> 0.42976933E+03</totfact>
</mgrwt>
</event>
<event>
 4    1  0.5917727E-005  0.4938387E+03  0.7818608E-02  0.1015400E+00
          2   -1    0    0  501    0  0.00000000000E+00  0.00000000000E+00  0.31104169874E+03  0.31104169875E+03  0.25500000000E-02 0.  1.
         -2   -1    0    0    0  501 -0.00000000000E+00 -0.00000000000E+00 -0.19601603955E+03  0.19601603956E+03  0.25500000000E-02 0. -1.
    5000001    1    1    2    0    0  0.12339503707E+03  0.11759077884E+02 -0.46492991016E+02  0.22993522849E+03  0.18800000000E+03 0.  0.
   -5000001    1    1    2    0    0 -0.12339503707E+03 -0.11759077884E+02  0.16151865021E+03  0.27712250982E+03  0.18800000000E+03 0.  0.
<mgrwt>
<rscale>  0 0.49383869E+03</rscale>
<asrwt>0</asrwt>
<pdfrwt beam="1">  1        2 0.44434528E-01 0.49383869E+03</pdfrwt>
<pdfrwt beam="2">  1       -2 0.28002291E-01 0.49383869E+03</pdfrwt>
<totfact> 0.13315744E+03</totfact>
</mgrwt>
</event>
<event>
 4    1  0.5917727E-005  0.4849203E+03  0.7818608E-02  0.1017792E+00
         -2   -1    0    0    0  501 -0.00000000000E+00  0.00000000000E+00  0.25735899335E+02  0.25735899462E+02  0.25500000000E-02 0. -1.
          2   -1    0    0  501    0  0.00000000000E+00 -0.00000000000E+00 -0.22842382560E+04  0.22842382560E+04  0.25500000000E-02 0.  1.
    5000001    1    1    2    0    0  0.85731263117E+02 -0.94987446988E+02 -0.15298047676E+04  0.15466153664E+04  0.18800000000E+03 0.  0.
   -5000001    1    1    2    0    0 -0.85731263117E+02  0.94987446988E+02 -0.72869758913E+03  0.76335878915E+03  0.18800000000E+03 0.  0.
<mgrwt>
<rscale>  0 0.48492031E+03</rscale>
<asrwt>0</asrwt>
<pdfrwt beam="1">  1        2 0.32631962E+00 0.48492031E+03</pdfrwt>
<pdfrwt beam="2">  1       -2 0.36765585E-02 0.48492031E+03</pdfrwt>
<totfact> 0.19746192E+03</totfact>
</mgrwt>
</event>
<event>
 4    1  0.5917727E-005  0.7889715E+03  0.7818608E-02  0.9576119E-01
          2   -1    0    0  501    0  0.00000000000E+00  0.00000000000E+00  0.93691464013E+03  0.93691464013E+03  0.25500000000E-02 0.  1.
         -2   -1    0    0    0  501 -0.00000000000E+00 -0.00000000000E+00 -0.16609729867E+03  0.16609729869E+03  0.25500000000E-02 0. -1.
    5000001    1    1    2    0    0 -0.33949505796E+03  0.70526963120E+02  0.39468683162E+03  0.55798982245E+03  0.18800000000E+03 0.  0.
   -5000001    1    1    2    0    0  0.33949505796E+03 -0.70526963120E+02  0.37613050984E+03  0.54502211638E+03  0.18800000000E+03 0.  0.
<mgrwt>
<rscale>  0 0.78897146E+03</rscale>
<asrwt>0</asrwt>
<pdfrwt beam="1">  1        2 0.13384495E+00 0.78897146E+03</pdfrwt>
<pdfrwt beam="2">  1       -2 0.23728186E-01 0.78897146E+03</pdfrwt>
<totfact> 0.48599036E+02</totfact>
</mgrwt>
</event>
<event>
 4    1  0.5917727E-005  0.8011267E+03  0.7818608E-02  0.9558388E-01
         -2   -1    0    0    0  501 -0.00000000000E+00  0.00000000000E+00  0.17170286287E+03  0.17170286289E+03  0.25500000000E-02 0. -1.
          2   -1    0    0  501    0  0.00000000000E+00 -0.00000000000E+00 -0.93446893326E+03  0.93446893326E+03  0.25500000000E-02 0.  1.
    5000001    1    1    2    0    0  0.15018799871E+03  0.19688312203E+03 -0.73011317886E+03  0.79355444214E+03  0.18800000000E+03 0.  0.
   -5000001    1    1    2    0    0 -0.15018799871E+03 -0.19688312203E+03 -0.32652891526E+02  0.31261735400E+03  0.18800000000E+03 0.  0.
<mgrwt>
<rscale>  0 0.80112668E+03</rscale>
<asrwt>0</asrwt>
<pdfrwt beam="1">  1        2 0.13349556E+00 0.80112668E+03</pdfrwt>
<pdfrwt beam="2">  1       -2 0.24528981E-01 0.80112668E+03</pdfrwt>
<totfact> 0.45931065E+02</totfact>
</mgrwt>
</event>
<event>
 4    1  0.5917727E-005  0.4897344E+03  0.7818608E-02  0.1016494E+00
          2   -1    0    0  501    0  0.00000000000E+00  0.00000000000E+00  0.12499969643E+03  0.12499969645E+03  0.25500000000E-02 0.  1.
         -2   -1    0    0    0  501 -0.00000000000E+00 -0.00000000000E+00 -0.47968069667E+03  0.47968069668E+03  0.25500000000E-02 0. -1.
    5000001    1    1    2    0    0  0.44668334372E+02 -0.11320722214E+03 -0.29960061477E+03  0.37405302246E+03  0.18800000000E+03 0.  0.
   -5000001    1    1    2    0    0 -0.44668334372E+02  0.11320722214E+03 -0.55080385480E+02  0.23062737068E+03  0.18800000000E+03 0.  0.
<mgrwt>
<rscale>  0 0.48973438E+03</rscale>
<asrwt>0</asrwt>
<pdfrwt beam="1">  1        2 0.17857100E-01 0.48973438E+03</pdfrwt>
<pdfrwt beam="2">  1       -2 0.68525813E-01 0.48973438E+03</pdfrwt>
<totfact> 0.63709118E+02</totfact>
</mgrwt>
</event>
<event>
 4    1  0.5917727E-005  0.1342745E+04  0.7818608E-02  0.8996338E-01
          2   -1    0    0  501    0  0.00000000000E+00  0.00000000000E+00  0.30627856345E+03  0.30627856346E+03  0.25500000000E-02 0.  1.
         -2   -1    0    0    0  501 -0.00000000000E+00 -0.00000000000E+00 -0.14716699822E+04  0.14716699822E+04  0.25500000000E-02 0. -1.
    5000001    1    1    2    0    0  0.84333809797E+02 -0.63895791550E+03 -0.57714724459E+03  0.88533742223E+03  0.18800000000E+03 0.  0.
   -5000001    1    1    2    0    0 -0.84333809797E+02  0.63895791550E+03 -0.58824417413E+03  0.89261112342E+03  0.18800000000E+03 0.  0.
<mgrwt>
<rscale>  0 0.13427449E+04</rscale>
<asrwt>0</asrwt>
<pdfrwt beam="1">  1        2 0.43754081E-01 0.13427449E+04</pdfrwt>
<pdfrwt beam="2">  1       -2 0.21023857E+00 0.13427449E+04</pdfrwt>
<totfact> 0.13008881E+01</totfact>
</mgrwt>
</event>
<event>
 4    1  0.5917727E-005  0.4622597E+03  0.7818608E-02  0.1024128E+00
          2   -1    0    0  501    0  0.00000000000E+00  0.00000000000E+00  0.10380689054E+04  0.10380689054E+04  0.25500000000E-02 0.  1.
         -2   -1    0    0    0  501 -0.00000000000E+00 -0.00000000000E+00 -0.51461913862E+02  0.51461913925E+02  0.25500000000E-02 0. -1.
    5000001    1    1    2    0    0  0.53250867866E+02  0.11788133640E+03  0.57975465515E+03  0.62304985720E+03  0.18800000000E+03 0.  0.
   -5000001    1    1    2    0    0 -0.53250867866E+02 -0.11788133640E+03  0.40685233642E+03  0.46648096215E+03  0.18800000000E+03 0.  0.
<mgrwt>
<rscale>  0 0.46225972E+03</rscale>
<asrwt>0</asrwt>
<pdfrwt beam="1">  1        2 0.14829553E+00 0.46225972E+03</pdfrwt>
<pdfrwt beam="2">  1       -2 0.73517032E-02 0.46225972E+03</pdfrwt>
<totfact> 0.29975481E+03</totfact>
</mgrwt>
</event>
<event>
 4    1  0.5917727E-005  0.6608404E+03  0.7818608E-02  0.9786648E-01
          2   -1    0    0  501    0  0.00000000000E+00  0.00000000000E+00  0.24435131592E+04  0.24435131592E+04  0.25500000000E-02 0.  1.
         -2   -1    0    0    0  501 -0.00000000000E+00 -0.00000000000E+00 -0.44680550756E+02  0.44680550828E+02  0.25500000000E-02 0. -1.
    5000001    1    1    2    0    0  0.26744431734E+03  0.46752700754E+02  0.12408738171E+04  0.12840654609E+04  0.18800000000E+03 0.  0.
   -5000001    1    1    2    0    0 -0.26744431734E+03 -0.46752700754E+02  0.11579587914E+04  0.12041282492E+04  0.18800000000E+03 0.  0.
<mgrwt>
<rscale>  0 0.66084042E+03</rscale>
<asrwt>0</asrwt>
<pdfrwt beam="1">  1        2 0.34907332E+00 0.66084042E+03</pdfrwt>
<pdfrwt beam="2">  1       -2 0.63829356E-02 0.66084042E+03</pdfrwt>
<totfact> 0.69008189E+02</totfact>
</mgrwt>
</event>
<event>
 4    1  0.5917727E-005  0.5454555E+03  0.7818608E-02  0.1002551E+00
         -2   -1    0    0    0  501 -0.00000000000E+00  0.00000000000E+00  0.34102826369E+03  0.34102826370E+03  0.25500000000E-02 0. -1.
          2   -1    0    0  501    0  0.00000000000E+00 -0.00000000000E+00 -0.21810631469E+03  0.21810631471E+03  0.25500000000E-02 0.  1.
    5000001    1    1    2    0    0 -0.11030769623E+02  0.18938284800E+03  0.48595987572E+01  0.26712386021E+03  0.18800000000E+03 0.  0.
   -5000001    1    1    2    0    0  0.11030769623E+02 -0.18938284800E+03  0.11806235024E+03  0.29201071819E+03  0.18800000000E+03 0.  0.
<mgrwt>
<rscale>  0 0.54545547E+03</rscale>
<asrwt>0</asrwt>
<pdfrwt beam="1">  1        2 0.31158045E-01 0.54545547E+03</pdfrwt>
<pdfrwt beam="2">  1       -2 0.48718323E-01 0.54545547E+03</pdfrwt>
<totfact> 0.68427158E+02</totfact>
</mgrwt>
</event>
<event>
 4    1  0.5917727E-005  0.7395875E+03  0.7818608E-02  0.9651829E-01
         -2   -1    0    0    0  501 -0.00000000000E+00  0.00000000000E+00  0.61560732541E+02  0.61560732594E+02  0.25500000000E-02 0. -1.
          2   -1    0    0  501    0  0.00000000000E+00 -0.00000000000E+00 -0.22213414087E+04  0.22213414087E+04  0.25500000000E-02 0.  1.
    5000001    1    1    2    0    0  0.13240689635E+03  0.14378762772E+03 -0.18558618304E+04  0.18755728729E+04  0.18800000000E+03 0.  0.
   -5000001    1    1    2    0    0 -0.13240689635E+03 -0.14378762772E+03 -0.30391884583E+03  0.40732926845E+03  0.18800000000E+03 0.  0.
<mgrwt>
<rscale>  0 0.73958746E+03</rscale>
<asrwt>0</asrwt>
<pdfrwt beam="1">  1        2 0.31733444E+00 0.73958746E+03</pdfrwt>
<pdfrwt beam="2">  1       -2 0.87943917E-02 0.73958746E+03</pdfrwt>
<totfact> 0.53461118E+02</totfact>
</mgrwt>
</event>
<event>
 4    1  0.5917727E-005  0.7202093E+03  0.7818608E-02  0.9683282E-01
          2   -1    0    0  501    0  0.00000000000E+00  0.00000000000E+00  0.30039115371E+04  0.30039115371E+04  0.25500000000E-02 0.  1.
         -2   -1    0    0    0  501 -0.00000000000E+00 -0.00000000000E+00 -0.43168834791E+02  0.43168834867E+02  0.25500000000E-02 0. -1.
    5000001    1    1    2    0    0  0.34612604348E+02 -0.26154967622E+03  0.21456355764E+04  0.21699544448E+04  0.18800000000E+03 0.  0.
   -5000001    1    1    2    0    0 -0.34612604348E+02  0.26154967622E+03  0.81510712587E+03  0.87712592720E+03  0.18800000000E+03 0.  0.
<mgrwt>
<rscale>  0 0.72020931E+03</rscale>
<asrwt>0</asrwt>
<pdfrwt beam="1">  1        2 0.42913030E+00 0.72020931E+03</pdfrwt>
<pdfrwt beam="2">  1       -2 0.61669752E-02 0.72020931E+03</pdfrwt>
<totfact> 0.36673012E+02</totfact>
</mgrwt>
</event>
<event>
 4    1  0.5917727E-005  0.4660079E+03  0.7818608E-02  0.1023053E+00
          2   -1    0    0  501    0  0.00000000000E+00  0.00000000000E+00  0.52703504866E+03  0.52703504867E+03  0.25500000000E-02 0.  1.
         -2   -1    0    0    0  501 -0.00000000000E+00 -0.00000000000E+00 -0.10301184253E+03  0.10301184256E+03  0.25500000000E-02 0. -1.
    5000001    1    1    2    0    0  0.14505132997E+02 -0.13237225519E+03  0.16490347977E+03  0.28331955539E+03  0.18800000000E+03 0.  0.
   -5000001    1    1    2    0    0 -0.14505132997E+02  0.13237225519E+03  0.25911972636E+03  0.34672733584E+03  0.18800000000E+03 0.  0.
<mgrwt>
<rscale>  0 0.46600795E+03</rscale>
<asrwt>0</asrwt>
<pdfrwt beam="1">  1        2 0.75290721E-01 0.46600795E+03</pdfrwt>
<pdfrwt beam="2">  1       -2 0.14715978E-01 0.46600795E+03</pdfrwt>
<totfact> 0.22705371E+03</totfact>
</mgrwt>
</event>
<event>
 4    1  0.5917727E-005  0.5767849E+03  0.7818608E-02  0.9954776E-01
         -2   -1    0    0    0  501 -0.00000000000E+00  0.00000000000E+00  0.36930203760E+02  0.36930203848E+02  0.25500000000E-02 0. -1.
          2   -1    0    0  501    0  0.00000000000E+00 -0.00000000000E+00 -0.22520915941E+04  0.22520915941E+04  0.25500000000E-02 0.  1.
    5000001    1    1    2    0    0 -0.17995042250E+03  0.41056895728E+02 -0.64208070163E+03  0.69403130380E+03  0.18800000000E+03 0.  0.
   -5000001    1    1    2    0    0  0.17995042250E+03 -0.41056895728E+02 -0.15730806887E+04  0.15949904941E+04  0.18800000000E+03 0.  0.
<mgrwt>
<rscale>  0 0.57678489E+03</rscale>
<asrwt>0</asrwt>
<pdfrwt beam="1">  1        2 0.32172728E+00 0.57678489E+03</pdfrwt>
<pdfrwt beam="2">  1       -2 0.52757448E-02 0.57678489E+03</pdfrwt>
<totfact> 0.11697067E+03</totfact>
</mgrwt>
</event>
<event>
 4    1  0.5917727E-005  0.4530599E+03  0.7818608E-02  0.1026813E+00
         -2   -1    0    0    0  501 -0.00000000000E+00  0.00000000000E+00  0.27839553340E+02  0.27839553457E+02  0.25500000000E-02 0. -1.
          2   -1    0    0  501    0  0.00000000000E+00 -0.00000000000E+00 -0.18432698726E+04  0.18432698726E+04  0.25500000000E-02 0.  1.
    5000001    1    1    2    0    0 -0.31590988983E+02  0.79423071481E+02 -0.12921721896E+04  0.13085713516E+04  0.18800000000E+03 0.  0.
   -5000001    1    1    2    0    0  0.31590988983E+02 -0.79423071481E+02 -0.52325812968E+03  0.56253807439E+03  0.18800000000E+03 0.  0.
<mgrwt>
<rscale>  0 0.45305986E+03</rscale>
<asrwt>0</asrwt>
<pdfrwt beam="1">  1        2 0.26332419E+00 0.45305986E+03</pdfrwt>
<pdfrwt beam="2">  1       -2 0.39770802E-02 0.45305986E+03</pdfrwt>
<totfact> 0.29101564E+03</totfact>
</mgrwt>
</event>
<event>
 4    1  0.5917727E-005  0.4028803E+03  0.7818608E-02  0.1042787E+00
         -2   -1    0    0    0  501 -0.00000000000E+00  0.00000000000E+00  0.77099108201E+02  0.77099108244E+02  0.25500000000E-02 0. -1.
          2   -1    0    0  501    0  0.00000000000E+00 -0.00000000000E+00 -0.52631124794E+03  0.52631124794E+03  0.25500000000E-02 0.  1.
    5000001    1    1    2    0    0 -0.37589039605E+02 -0.33557015930E+01 -0.13215853621E+03  0.23288210607E+03  0.18800000000E+03 0.  0.
   -5000001    1    1    2    0    0  0.37589039605E+02  0.33557015930E+01 -0.31705360352E+03  0.37052825012E+03  0.18800000000E+03 0.  0.
<mgrwt>
<rscale>  0 0.40288027E+03</rscale>
<asrwt>0</asrwt>
<pdfrwt beam="1">  1        2 0.75187319E-01 0.40288027E+03</pdfrwt>
<pdfrwt beam="2">  1       -2 0.11014159E-01 0.40288027E+03</pdfrwt>
<totfact> 0.36544843E+03</totfact>
</mgrwt>
</event>
<event>
 4    1  0.5917727E-005  0.7106434E+03  0.7818608E-02  0.9699202E-01
          2   -1    0    0  501    0  0.00000000000E+00  0.00000000000E+00  0.29874730120E+04  0.29874730120E+04  0.25500000000E-02 0.  1.
         -2   -1    0    0    0  501 -0.00000000000E+00 -0.00000000000E+00 -0.42260970954E+02  0.42260971031E+02  0.25500000000E-02 0. -1.
    5000001    1    1    2    0    0 -0.14320114443E+03  0.24114585723E+03  0.19445054981E+04  0.19736016631E+04  0.18800000000E+03 0.  0.
   -5000001    1    1    2    0    0  0.14320114443E+03 -0.24114585723E+03  0.10007065429E+04  0.10561323199E+04  0.18800000000E+03 0.  0.
<mgrwt>
<rscale>  0 0.71064340E+03</rscale>
<asrwt>0</asrwt>
<pdfrwt beam="1">  1        2 0.42678193E+00 0.71064340E+03</pdfrwt>
<pdfrwt beam="2">  1       -2 0.60372806E-02 0.71064340E+03</pdfrwt>
<totfact> 0.38748663E+02</totfact>
</mgrwt>
</event>
<event>
 4    1  0.5917727E-005  0.6895440E+03  0.7818608E-02  0.9735282E-01
          2   -1    0    0  501    0  0.00000000000E+00  0.00000000000E+00  0.20187851834E+03  0.20187851836E+03  0.25500000000E-02 0.  1.
         -2   -1    0    0    0  501 -0.00000000000E+00 -0.00000000000E+00 -0.58880822132E+03  0.58880822132E+03  0.25500000000E-02 0. -1.
    5000001    1    1    2    0    0  0.24324085806E+03 -0.13314170420E+03 -0.10009024026E+03  0.34964965983E+03  0.18800000000E+03 0.  0.
   -5000001    1    1    2    0    0 -0.24324085806E+03  0.13314170420E+03 -0.28683946272E+03  0.44103707985E+03  0.18800000000E+03 0.  0.
<mgrwt>
<rscale>  0 0.68954400E+03</rscale>
<asrwt>0</asrwt>
<pdfrwt beam="1">  1        2 0.28839789E-01 0.68954400E+03</pdfrwt>
<pdfrwt beam="2">  1       -2 0.84115459E-01 0.68954400E+03</pdfrwt>
<totfact> 0.23189964E+02</totfact>
</mgrwt>
</event>
<event>
 4    1  0.5917727E-005  0.4471072E+03  0.7818608E-02  0.1028588E+00
          2   -1    0    0  501    0  0.00000000000E+00  0.00000000000E+00  0.96244130079E+02  0.96244130112E+02  0.25500000000E-02 0.  1.
         -2   -1    0    0    0  501 -0.00000000000E+00 -0.00000000000E+00 -0.51926507752E+03  0.51926507752E+03  0.25500000000E-02 0. -1.
    5000001    1    1    2    0    0 -0.64836972864E+02 -0.67983514227E+02 -0.10660823828E+03  0.23565845567E+03  0.18800000000E+03 0.  0.
   -5000001    1    1    2    0    0  0.64836972864E+02  0.67983514227E+02 -0.31641270915E+03  0.37985075197E+03  0.18800000000E+03 0.  0.
<mgrwt>
<rscale>  0 0.44710722E+03</rscale>
<asrwt>0</asrwt>
<pdfrwt beam="1">  1        2 0.13749162E-01 0.44710722E+03</pdfrwt>
<pdfrwt beam="2">  1       -2 0.74180724E-01 0.44710722E+03</pdfrwt>
<totfact> 0.73343755E+02</totfact>
</mgrwt>
</event>
<event>
 4    1  0.5917727E-005  0.7638005E+03  0.7818608E-02  0.9613945E-01
         -2   -1    0    0    0  501 -0.00000000000E+00  0.00000000000E+00  0.26586787061E+02  0.26586787183E+02  0.25500000000E-02 0. -1.
          2   -1    0    0  501    0  0.00000000000E+00 -0.00000000000E+00 -0.54857254975E+04  0.54857254975E+04  0.25500000000E-02 0.  1.
    5000001    1    1    2    0    0  0.26402480039E+03 -0.16813416017E+03 -0.35372758125E+04  0.35560711979E+04  0.18800000000E+03 0.  0.
   -5000001    1    1    2    0    0 -0.26402480039E+03  0.16813416017E+03 -0.19218628980E+04  0.19562410868E+04  0.18800000000E+03 0.  0.
<mgrwt>
<rscale>  0 0.76380054E+03</rscale>
<asrwt>0</asrwt>
<pdfrwt beam="1">  1        2 0.78367435E+00 0.76380054E+03</pdfrwt>
<pdfrwt beam="2">  1       -2 0.37981159E-02 0.76380054E+03</pdfrwt>
<totfact> 0.96430639E+00</totfact>
</mgrwt>
</event>
<event>
 4    1  0.5917727E-005  0.4931280E+03  0.7818608E-02  0.1015588E+00
          2   -1    0    0  501    0  0.00000000000E+00  0.00000000000E+00  0.54067472580E+03  0.54067472580E+03  0.25500000000E-02 0.  1.
         -2   -1    0    0    0  501 -0.00000000000E+00 -0.00000000000E+00 -0.11244064139E+03  0.11244064142E+03  0.25500000000E-02 0. -1.
    5000001    1    1    2    0    0 -0.11846175075E+03  0.97561336338E+02  0.27182364080E+03  0.36439469321E+03  0.18800000000E+03 0.  0.
   -5000001    1    1    2    0    0  0.11846175075E+03 -0.97561336338E+02  0.15641044360E+03  0.28872067402E+03  0.18800000000E+03 0.  0.
<mgrwt>
<rscale>  0 0.49312803E+03</rscale>
<asrwt>0</asrwt>
<pdfrwt beam="1">  1        2 0.77239248E-01 0.49312803E+03</pdfrwt>
<pdfrwt beam="2">  1       -2 0.16062948E-01 0.49312803E+03</pdfrwt>
<totfact> 0.19043910E+03</totfact>
</mgrwt>
</event>
<event>
 4    1  0.5917727E-005  0.4322943E+03  0.7818608E-02  0.1033138E+00
          2   -1    0    0  501    0  0.00000000000E+00  0.00000000000E+00  0.20507407645E+03  0.20507407647E+03  0.25500000000E-02 0.  1.
         -2   -1    0    0    0  501 -0.00000000000E+00 -0.00000000000E+00 -0.22781807010E+03  0.22781807012E+03  0.25500000000E-02 0. -1.
    5000001    1    1    2    0    0  0.70546334650E+02  0.40404374873E+02  0.57761749022E+02  0.21281381180E+03  0.18800000000E+03 0.  0.
   -5000001    1    1    2    0    0 -0.70546334650E+02 -0.40404374873E+02 -0.80505742671E+02  0.22007833479E+03  0.18800000000E+03 0.  0.
<mgrwt>
<rscale>  0 0.43229425E+03</rscale>
<asrwt>0</asrwt>
<pdfrwt beam="1">  1        2 0.29296297E-01 0.43229425E+03</pdfrwt>
<pdfrwt beam="2">  1       -2 0.32545439E-01 0.43229425E+03</pdfrwt>
<totfact> 0.15978231E+03</totfact>
</mgrwt>
</event>
<event>
 4    1  0.5917727E-005  0.6965139E+03  0.7818608E-02  0.9723212E-01
         -2   -1    0    0    0  501 -0.00000000000E+00  0.00000000000E+00  0.41852737517E+03  0.41852737517E+03  0.25500000000E-02 0. -1.
          2   -1    0    0  501    0  0.00000000000E+00 -0.00000000000E+00 -0.28978489271E+03  0.28978489273E+03  0.25500000000E-02 0.  1.
    5000001    1    1    2    0    0  0.16506481254E+03  0.21610780500E+03 -0.46982130950E+02  0.33391660089E+03  0.18800000000E+03 0.  0.
   -5000001    1    1    2    0    0 -0.16506481254E+03 -0.21610780500E+03  0.17572461340E+03  0.37439566701E+03  0.18800000000E+03 0.  0.
<mgrwt>
<rscale>  0 0.69651392E+03</rscale>
<asrwt>0</asrwt>
<pdfrwt beam="1">  1        2 0.41397842E-01 0.69651392E+03</pdfrwt>
<pdfrwt beam="2">  1       -2 0.59789625E-01 0.69651392E+03</pdfrwt>
<totfact> 0.32630948E+02</totfact>
</mgrwt>
</event>
<event>
 4    1  0.5917727E-005  0.5391299E+03  0.7818608E-02  0.1004042E+00
          2   -1    0    0  501    0  0.00000000000E+00  0.00000000000E+00  0.15856366007E+04  0.15856366007E+04  0.25500000000E-02 0.  1.
         -2   -1    0    0    0  501 -0.00000000000E+00 -0.00000000000E+00 -0.45827183139E+02  0.45827183210E+02  0.25500000000E-02 0. -1.
    5000001    1    1    2    0    0 -0.12380420356E+03  0.14490462755E+03  0.86542745128E+03  0.90588824108E+03  0.18800000000E+03 0.  0.
   -5000001    1    1    2    0    0  0.12380420356E+03 -0.14490462755E+03  0.67438196628E+03  0.72557554282E+03  0.18800000000E+03 0.  0.
<mgrwt>
<rscale>  0 0.53912989E+03</rscale>
<asrwt>0</asrwt>
<pdfrwt beam="1">  1        2 0.22651950E+00 0.53912989E+03</pdfrwt>
<pdfrwt beam="2">  1       -2 0.65467409E-02 0.53912989E+03</pdfrwt>
<totfact> 0.18120736E+03</totfact>
</mgrwt>
</event>
<event>
 4    1  0.5917727E-005  0.7891120E+03  0.7818608E-02  0.9575912E-01
          2   -1    0    0  501    0  0.00000000000E+00  0.00000000000E+00  0.15950783273E+04  0.15950783273E+04  0.25500000000E-02 0.  1.
         -2   -1    0    0    0  501 -0.00000000000E+00 -0.00000000000E+00 -0.97596728022E+02  0.97596728055E+02  0.25500000000E-02 0. -1.
    5000001    1    1    2    0    0 -0.89726009655E+01  0.34675678009E+03  0.75540548526E+03  0.85223366471E+03  0.18800000000E+03 0.  0.
   -5000001    1    1    2    0    0  0.89726009655E+01 -0.34675678009E+03  0.74207611398E+03  0.84044139061E+03  0.18800000000E+03 0.  0.
<mgrwt>
<rscale>  0 0.78911197E+03</rscale>
<asrwt>0</asrwt>
<pdfrwt beam="1">  1        2 0.22786831E+00 0.78911197E+03</pdfrwt>
<pdfrwt beam="2">  1       -2 0.13942391E-01 0.78911197E+03</pdfrwt>
<totfact> 0.52076628E+02</totfact>
</mgrwt>
</event>
<event>
 4    1  0.5917727E-005  0.6334191E+03  0.7818608E-02  0.9838399E-01
         -2   -1    0    0    0  501 -0.00000000000E+00  0.00000000000E+00  0.18924838676E+02  0.18924838848E+02  0.25500000000E-02 0. -1.
          2   -1    0    0  501    0  0.00000000000E+00 -0.00000000000E+00 -0.53001746338E+04  0.53001746338E+04  0.25500000000E-02 0.  1.
    5000001    1    1    2    0    0 -0.11384908538E+03 -0.16686484863E+03 -0.13354924871E+04  0.13637043943E+04  0.18800000000E+03 0.  0.
   -5000001    1    1    2    0    0  0.11384908538E+03  0.16686484863E+03 -0.39457573080E+04  0.39553950783E+04  0.18800000000E+03 0.  0.
<mgrwt>
<rscale>  0 0.63341914E+03</rscale>
<asrwt>0</asrwt>
<pdfrwt beam="1">  1        2 0.75716686E+00 0.63341914E+03</pdfrwt>
<pdfrwt beam="2">  1       -2 0.27035518E-02 0.63341914E+03</pdfrwt>
<totfact> 0.27245138E+01</totfact>
</mgrwt>
</event>
<event>
 4    1  0.5917727E-005  0.5862862E+03  0.7818608E-02  0.9934273E-01
         -2   -1    0    0    0  501 -0.00000000000E+00  0.00000000000E+00  0.35327397632E+02  0.35327397724E+02  0.25500000000E-02 0. -1.
          2   -1    0    0  501    0  0.00000000000E+00 -0.00000000000E+00 -0.24324711751E+04  0.24324711751E+04  0.25500000000E-02 0.  1.
    5000001    1    1    2    0    0 -0.18269922764E+03  0.12780877451E+03 -0.10740771692E+04  0.11129689376E+04  0.18800000000E+03 0.  0.
   -5000001    1    1    2    0    0  0.18269922764E+03 -0.12780877451E+03 -0.13230666082E+04  0.13548296352E+04  0.18800000000E+03 0.  0.
<mgrwt>
<rscale>  0 0.58628620E+03</rscale>
<asrwt>0</asrwt>
<pdfrwt beam="1">  1        2 0.34749577E+00 0.58628620E+03</pdfrwt>
<pdfrwt beam="2">  1       -2 0.50467727E-02 0.58628620E+03</pdfrwt>
<totfact> 0.10145865E+03</totfact>
</mgrwt>
</event>
<event>
 4    1  0.5917727E-005  0.1143660E+04  0.7818608E-02  0.9163652E-01
          2   -1    0    0  501    0  0.00000000000E+00  0.00000000000E+00  0.14935782685E+04  0.14935782685E+04  0.25500000000E-02 0. -1.
         -2   -1    0    0    0  501 -0.00000000000E+00 -0.00000000000E+00 -0.21893032155E+03  0.21893032156E+03  0.25500000000E-02 0.  1.
    5000001    1    1    2    0    0 -0.57782048928E+02  0.53470279770E+03  0.56397122017E+03  0.80165664983E+03  0.18800000000E+03 0.  0.
   -5000001    1    1    2    0    0  0.57782048928E+02 -0.53470279770E+03  0.71067672680E+03  0.91085194025E+03  0.18800000000E+03 0.  0.
<mgrwt>
<rscale>  0 0.11436600E+04</rscale>
<asrwt>0</asrwt>
<pdfrwt beam="1">  1        2 0.21336832E+00 0.11436600E+04</pdfrwt>
<pdfrwt beam="2">  1       -2 0.31275760E-01 0.11436600E+04</pdfrwt>
<totfact> 0.13819078E+02</totfact>
</mgrwt>
</event>
<event>
 4    1  0.5917727E-005  0.6837446E+03  0.7818608E-02  0.9745442E-01
         -2   -1    0    0    0  501 -0.00000000000E+00  0.00000000000E+00  0.48600693509E+02  0.48600693576E+02  0.25500000000E-02 0. -1.
          2   -1    0    0  501    0  0.00000000000E+00 -0.00000000000E+00 -0.24048356529E+04  0.24048356529E+04  0.25500000000E-02 0.  1.
    5000001    1    1    2    0    0 -0.12629627171E+03 -0.23073141939E+03 -0.77943657523E+03  0.84383239506E+03  0.18800000000E+03 0.  0.
   -5000001    1    1    2    0    0  0.12629627171E+03  0.23073141939E+03 -0.15767983842E+04  0.16096039514E+04  0.18800000000E+03 0.  0.
<mgrwt>
<rscale>  0 0.68374463E+03</rscale>
<asrwt>0</asrwt>
<pdfrwt beam="1">  1        2 0.34354787E+00 0.68374463E+03</pdfrwt>
<pdfrwt beam="2">  1       -2 0.69429578E-02 0.68374463E+03</pdfrwt>
<totfact> 0.63135963E+02</totfact>
</mgrwt>
</event>
<event>
 4    1  0.5917727E-005  0.4000360E+03  0.7818608E-02  0.1043767E+00
          2   -1    0    0  501    0  0.00000000000E+00  0.00000000000E+00  0.63354181009E+03  0.63354181009E+03  0.25500000000E-02 0.  1.
         -2   -1    0    0    0  501 -0.00000000000E+00 -0.00000000000E+00 -0.63148472388E+02  0.63148472439E+02  0.25500000000E-02 0. -1.
    5000001    1    1    2    0    0 -0.49655058843E+02 -0.38339119682E+02  0.33217658858E+03  0.38680847841E+03  0.18800000000E+03 0.  0.
   -5000001    1    1    2    0    0  0.49655058843E+02  0.38339119682E+02  0.23821674912E+03  0.30988180412E+03  0.18800000000E+03 0.  0.
<mgrwt>
<rscale>  0 0.40003599E+03</rscale>
<asrwt>0</asrwt>
<pdfrwt beam="1">  1        2 0.90505975E-01 0.40003599E+03</pdfrwt>
<pdfrwt beam="2">  1       -2 0.90212101E-02 0.40003599E+03</pdfrwt>
<totfact> 0.40662816E+03</totfact>
</mgrwt>
</event>
<event>
 4    1  0.5917727E-005  0.5606933E+03  0.7818608E-02  0.9990487E-01
          2   -1    0    0  501    0  0.00000000000E+00  0.00000000000E+00  0.22621018303E+04  0.22621018303E+04  0.25500000000E-02 0.  1.
         -2   -1    0    0    0  501 -0.00000000000E+00 -0.00000000000E+00 -0.34743901155E+02  0.34743901249E+02  0.25500000000E-02 0. -1.
    5000001    1    1    2    0    0  0.17657204067E+03  0.82703247180E+02  0.14100055538E+04  0.14357845153E+04  0.18800000000E+03 0.  0.
   -5000001    1    1    2    0    0 -0.17657204067E+03 -0.82703247180E+02  0.81735237533E+03  0.86106121623E+03  0.18800000000E+03 0.  0.
<mgrwt>
<rscale>  0 0.56069329E+03</rscale>
<asrwt>0</asrwt>
<pdfrwt beam="1">  1        2 0.32315750E+00 0.56069329E+03</pdfrwt>
<pdfrwt beam="2">  1       -2 0.49634131E-02 0.56069329E+03</pdfrwt>
<totfact> 0.12722742E+03</totfact>
</mgrwt>
</event>
<event>
 4    1  0.5917727E-005  0.5796820E+03  0.7818608E-02  0.9948480E-01
         -2   -1    0    0    0  501 -0.00000000000E+00  0.00000000000E+00  0.35687758427E+02  0.35687758518E+02  0.25500000000E-02 0. -1.
          2   -1    0    0  501    0  0.00000000000E+00 -0.00000000000E+00 -0.23539669093E+04  0.23539669093E+04  0.25500000000E-02 0.  1.
    5000001    1    1    2    0    0  0.50679486984E+02 -0.20126429063E+03 -0.85097937729E+03  0.89587143367E+03  0.18800000000E+03 0.  0.
   -5000001    1    1    2    0    0 -0.50679486984E+02  0.20126429063E+03 -0.14672997735E+04  0.14937832341E+04  0.18800000000E+03 0.  0.
<mgrwt>
<rscale>  0 0.57968199E+03</rscale>
<asrwt>0</asrwt>
<pdfrwt beam="1">  1        2 0.33628089E+00 0.57968199E+03</pdfrwt>
<pdfrwt beam="2">  1       -2 0.50982527E-02 0.57968199E+03</pdfrwt>
<totfact> 0.10953930E+03</totfact>
</mgrwt>
</event>
<event>
 4    1  0.5917727E-005  0.5031135E+03  0.7818608E-02  0.1012969E+00
          2   -1    0    0  501    0  0.00000000000E+00  0.00000000000E+00  0.24351648912E+04  0.24351648912E+04  0.25500000000E-02 0.  1.
         -2   -1    0    0    0  501 -0.00000000000E+00 -0.00000000000E+00 -0.25986251038E+02  0.25986251163E+02  0.25500000000E-02 0. -1.
    5000001    1    1    2    0    0 -0.56648422136E+02  0.14955466311E+03  0.14422927716E+04  0.14632594028E+04  0.18800000000E+03 0.  0.
   -5000001    1    1    2    0    0  0.56648422136E+02 -0.14955466311E+03  0.96688586863E+03  0.99789173959E+03  0.18800000000E+03 0.  0.
<mgrwt>
<rscale>  0 0.50311353E+03</rscale>
<asrwt>0</asrwt>
<pdfrwt beam="1">  1        2 0.34788085E+00 0.50311353E+03</pdfrwt>
<pdfrwt beam="2">  1       -2 0.37123200E-02 0.50311353E+03</pdfrwt>
<totfact> 0.16310234E+03</totfact>
</mgrwt>
</event>
<event>
 4    1  0.5917727E-005  0.4256045E+03  0.7818608E-02  0.1035258E+00
          2   -1    0    0  501    0  0.00000000000E+00  0.00000000000E+00  0.11112436445E+04  0.11112436445E+04  0.25500000000E-02 0.  1.
         -2   -1    0    0    0  501 -0.00000000000E+00 -0.00000000000E+00 -0.40751460685E+02  0.40751460764E+02  0.25500000000E-02 0. -1.
    5000001    1    1    2    0    0 -0.72850359490E+02  0.82341923742E+00  0.35101066073E+03  0.40479666111E+03  0.18800000000E+03 0.  0.
   -5000001    1    1    2    0    0  0.72850359490E+02 -0.82341923742E+00  0.71948152313E+03  0.74719844421E+03  0.18800000000E+03 0.  0.
<mgrwt>
<rscale>  0 0.42560452E+03</rscale>
<asrwt>0</asrwt>
<pdfrwt beam="1">  1        2 0.15874907E+00 0.42560452E+03</pdfrwt>
<pdfrwt beam="2">  1       -2 0.58216379E-02 0.42560452E+03</pdfrwt>
<totfact> 0.39119083E+03</totfact>
</mgrwt>
</event>
<event>
 4    1  0.5917727E-005  0.5641324E+03  0.7818608E-02  0.9982748E-01
          2   -1    0    0  501    0  0.00000000000E+00  0.00000000000E+00  0.24330334984E+03  0.24330334985E+03  0.25500000000E-02 0.  1.
         -2   -1    0    0    0  501 -0.00000000000E+00 -0.00000000000E+00 -0.32700469578E+03  0.32700469579E+03  0.25500000000E-02 0. -1.
    5000001    1    1    2    0    0  0.20695429953E+03  0.20347471358E+02 -0.10312422732E+02  0.28052530679E+03  0.18800000000E+03 0.  0.
   -5000001    1    1    2    0    0 -0.20695429953E+03 -0.20347471358E+02 -0.73388923208E+02  0.28978273885E+03  0.18800000000E+03 0.  0.
<mgrwt>
<rscale>  0 0.56413239E+03</rscale>
<asrwt>0</asrwt>
<pdfrwt beam="1">  1        2 0.34757622E-01 0.56413239E+03</pdfrwt>
<pdfrwt beam="2">  1       -2 0.46714956E-01 0.56413239E+03</pdfrwt>
<totfact> 0.65886472E+02</totfact>
</mgrwt>
</event>
<event>
 4    1  0.5917727E-005  0.6592384E+03  0.7818608E-02  0.9789597E-01
          2   -1    0    0  501    0  0.00000000000E+00  0.00000000000E+00  0.14480435055E+03  0.14480435057E+03  0.25500000000E-02 0.  1.
         -2   -1    0    0    0  501 -0.00000000000E+00 -0.00000000000E+00 -0.75031461396E+03  0.75031461397E+03  0.25500000000E-02 0. -1.
    5000001    1    1    2    0    0  0.25152085376E+03  0.99012338186E+02 -0.32373039963E+03  0.46174836722E+03  0.18800000000E+03 0.  0.
   -5000001    1    1    2    0    0 -0.25152085376E+03 -0.99012338186E+02 -0.28177986378E+03  0.43337059732E+03  0.18800000000E+03 0.  0.
<mgrwt>
<rscale>  0 0.65923841E+03</rscale>
<asrwt>0</asrwt>
<pdfrwt beam="1">  1        2 0.20686336E-01 0.65923841E+03</pdfrwt>
<pdfrwt beam="2">  1       -2 0.10718780E+00 0.65923841E+03</pdfrwt>
<totfact> 0.19318684E+02</totfact>
</mgrwt>
</event>
<event>
 4    1  0.5917727E-005  0.5779596E+03  0.7818608E-02  0.9952218E-01
         -2   -1    0    0    0  501 -0.00000000000E+00  0.00000000000E+00  0.39573879234E+02  0.39573879316E+02  0.25500000000E-02 0. -1.
          2   -1    0    0  501    0  0.00000000000E+00 -0.00000000000E+00 -0.21102135311E+04  0.21102135311E+04  0.25500000000E-02 0.  1.
    5000001    1    1    2    0    0  0.59651821189E+02  0.15848905434E+03 -0.15545788362E+04  0.15750353895E+04  0.18800000000E+03 0.  0.
   -5000001    1    1    2    0    0 -0.59651821189E+02 -0.15848905434E+03 -0.51606081562E+03  0.57475202090E+03  0.18800000000E+03 0.  0.
<mgrwt>
<rscale>  0 0.57795964E+03</rscale>
<asrwt>0</asrwt>
<pdfrwt beam="1">  1        2 0.30145900E+00 0.57795964E+03</pdfrwt>
<pdfrwt beam="2">  1       -2 0.56534127E-02 0.57795964E+03</pdfrwt>
<totfact> 0.12377974E+03</totfact>
</mgrwt>
</event>
<event>
 4    1  0.5917727E-005  0.4619485E+03  0.7818608E-02  0.1024218E+00
          2   -1    0    0  501    0  0.00000000000E+00  0.00000000000E+00  0.75048336515E+02  0.75048336558E+02  0.25500000000E-02 0.  1.
         -2   -1    0    0    0  501 -0.00000000000E+00 -0.00000000000E+00 -0.71086310796E+03  0.71086310797E+03  0.25500000000E-02 0. -1.
    5000001    1    1    2    0    0 -0.82164426746E+02  0.60798111955E+02 -0.17000518354E+03  0.27330050470E+03  0.18800000000E+03 0.  0.
   -5000001    1    1    2    0    0  0.82164426746E+02 -0.60798111955E+02 -0.46580958791E+03  0.51261093983E+03  0.18800000000E+03 0.  0.
<mgrwt>
<rscale>  0 0.46194845E+03</rscale>
<asrwt>0</asrwt>
<pdfrwt beam="1">  1        2 0.10721191E-01 0.46194845E+03</pdfrwt>
<pdfrwt beam="2">  1       -2 0.10155187E+00 0.46194845E+03</pdfrwt>
<totfact> 0.48881764E+02</totfact>
</mgrwt>
</event>
<event>
 4    1  0.5917727E-005  0.6631690E+03  0.7818608E-02  0.9782378E-01
         -2   -1    0    0    0  501 -0.00000000000E+00  0.00000000000E+00  0.15130852761E+03  0.15130852763E+03  0.25500000000E-02 0. -1.
          2   -1    0    0  501    0  0.00000000000E+00 -0.00000000000E+00 -0.72664955564E+03  0.72664955564E+03  0.25500000000E-02 0.  1.
    5000001    1    1    2    0    0  0.24976391491E+03  0.10187316979E+03 -0.23081874490E+03  0.40172309980E+03  0.18800000000E+03 0.  0.
   -5000001    1    1    2    0    0 -0.24976391491E+03 -0.10187316979E+03 -0.34452228313E+03  0.47623498348E+03  0.18800000000E+03 0.  0.
<mgrwt>
<rscale>  0 0.66316898E+03</rscale>
<asrwt>0</asrwt>
<pdfrwt beam="1">  1        2 0.10380708E+00 0.66316898E+03</pdfrwt>
<pdfrwt beam="2">  1       -2 0.21615504E-01 0.66316898E+03</pdfrwt>
<totfact> 0.80180655E+02</totfact>
</mgrwt>
</event>
<event>
 4    1  0.5917727E-005  0.5270766E+03  0.7818608E-02  0.1006944E+00
         -2   -1    0    0    0  501 -0.00000000000E+00  0.00000000000E+00  0.55540658207E+02  0.55540658266E+02  0.25500000000E-02 0. -1.
          2   -1    0    0  501    0  0.00000000000E+00 -0.00000000000E+00 -0.12504793763E+04  0.12504793763E+04  0.25500000000E-02 0.  1.
    5000001    1    1    2    0    0  0.16190044813E+03  0.55558272072E+02 -0.42562024666E+03  0.49577723936E+03  0.18800000000E+03 0.  0.
   -5000001    1    1    2    0    0 -0.16190044813E+03 -0.55558272072E+02 -0.76931847147E+03  0.81024279525E+03  0.18800000000E+03 0.  0.
<mgrwt>
<rscale>  0 0.52707665E+03</rscale>
<asrwt>0</asrwt>
<pdfrwt beam="1">  1        2 0.17863989E+00 0.52707665E+03</pdfrwt>
<pdfrwt beam="2">  1       -2 0.79343805E-02 0.52707665E+03</pdfrwt>
<totfact> 0.20112785E+03</totfact>
</mgrwt>
</event>
<event>
 4    1  0.5917727E-005  0.6099235E+03  0.7818608E-02  0.9885029E-01
          2   -1    0    0  501    0  0.00000000000E+00  0.00000000000E+00  0.10223240419E+04  0.10223240419E+04  0.25500000000E-02 0.  1.
         -2   -1    0    0    0  501 -0.00000000000E+00 -0.00000000000E+00 -0.90970846385E+02  0.90970846421E+02  0.25500000000E-02 0. -1.
    5000001    1    1    2    0    0 -0.21379777338E+03  0.95563958573E+02  0.56253336218E+03  0.63767526347E+03  0.18800000000E+03 0.  0.
   -5000001    1    1    2    0    0  0.21379777338E+03 -0.95563958573E+02  0.36881983333E+03  0.47561962484E+03  0.18800000000E+03 0.  0.
<mgrwt>
<rscale>  0 0.60992355E+03</rscale>
<asrwt>0</asrwt>
<pdfrwt beam="1">  1        2 0.14604629E+00 0.60992355E+03</pdfrwt>
<pdfrwt beam="2">  1       -2 0.12995835E-01 0.60992355E+03</pdfrwt>
<totfact> 0.12191671E+03</totfact>
</mgrwt>
</event>
<event>
 4    1  0.5917727E-005  0.7340817E+03  0.7818608E-02  0.9660660E-01
         -2   -1    0    0    0  501 -0.00000000000E+00  0.00000000000E+00  0.38188586813E+03  0.38188586814E+03  0.25500000000E-02 0. -1.
          2   -1    0    0  501    0  0.00000000000E+00 -0.00000000000E+00 -0.35277294291E+03  0.35277294292E+03  0.25500000000E-02 0.  1.
    5000001    1    1    2    0    0 -0.17888655473E+03 -0.23024847540E+03 -0.10537196584E+03  0.36257690366E+03  0.18800000000E+03 0.  0.
   -5000001    1    1    2    0    0  0.17888655473E+03  0.23024847540E+03  0.13448489106E+03  0.37208190739E+03  0.18800000000E+03 0.  0.
<mgrwt>
<rscale>  0 0.73408174E+03</rscale>
<asrwt>0</asrwt>
<pdfrwt beam="1">  1        2 0.50396134E-01 0.73408174E+03</pdfrwt>
<pdfrwt beam="2">  1       -2 0.54555124E-01 0.73408174E+03</pdfrwt>
<totfact> 0.31731337E+02</totfact>
</mgrwt>
</event>
<event>
 4    1  0.5917727E-005  0.5921261E+03  0.7818608E-02  0.9921878E-01
         -2   -1    0    0    0  501 -0.00000000000E+00  0.00000000000E+00  0.77239385912E+03  0.77239385913E+03  0.25500000000E-02 0. -1.
          2   -1    0    0  501    0  0.00000000000E+00 -0.00000000000E+00 -0.11348269101E+03  0.11348269104E+03  0.25500000000E-02 0.  1.
    5000001    1    1    2    0    0  0.15481503668E+03  0.16711610599E+03  0.35989090968E+03  0.46557593938E+03  0.18800000000E+03 0.  0.
   -5000001    1    1    2    0    0 -0.15481503668E+03 -0.16711610599E+03  0.29902025844E+03  0.42030061078E+03  0.18800000000E+03 0.  0.
<mgrwt>
<rscale>  0 0.59212611E+03</rscale>
<asrwt>0</asrwt>
<pdfrwt beam="1">  1        2 0.16211812E-01 0.59212611E+03</pdfrwt>
<pdfrwt beam="2">  1       -2 0.11034199E+00 0.59212611E+03</pdfrwt>
<totfact> 0.24095292E+02</totfact>
</mgrwt>
</event>
<event>
 4    1  0.5917727E-005  0.6273281E+03  0.7818608E-02  0.9850277E-01
          2   -1    0    0  501    0  0.00000000000E+00  0.00000000000E+00  0.12410756992E+04  0.12410756992E+04  0.25500000000E-02 0.  1.
         -2   -1    0    0    0  501 -0.00000000000E+00 -0.00000000000E+00 -0.79274091748E+02  0.79274091789E+02  0.25500000000E-02 0. -1.
    5000001    1    1    2    0    0 -0.89416780225E+02  0.23304695344E+03  0.63795795216E+03  0.71038059645E+03  0.18800000000E+03 0.  0.
   -5000001    1    1    2    0    0  0.89416780225E+02 -0.23304695344E+03  0.52384365527E+03  0.60996919452E+03  0.18800000000E+03 0.  0.
<mgrwt>
<rscale>  0 0.62732814E+03</rscale>
<asrwt>0</asrwt>
<pdfrwt beam="1">  1        2 0.17729653E+00 0.62732814E+03</pdfrwt>
<pdfrwt beam="2">  1       -2 0.11324870E-01 0.62732814E+03</pdfrwt>
<totfact> 0.11438663E+03</totfact>
</mgrwt>
</event>
<event>
 4    1  0.5917727E-005  0.6612643E+03  0.7818608E-02  0.9785869E-01
          2   -1    0    0  501    0  0.00000000000E+00  0.00000000000E+00  0.77304017788E+03  0.77304017788E+03  0.25500000000E-02 0.  1.
         -2   -1    0    0    0  501 -0.00000000000E+00 -0.00000000000E+00 -0.14141259588E+03  0.14141259591E+03  0.25500000000E-02 0. -1.
    5000001    1    1    2    0    0 -0.20379541939E+03  0.14237090064E+03  0.16324716528E+03  0.35184610739E+03  0.18800000000E+03 0.  0.
   -5000001    1    1    2    0    0  0.20379541939E+03 -0.14237090064E+03  0.46838041672E+03  0.56260666640E+03  0.18800000000E+03 0.  0.
<mgrwt>
<rscale>  0 0.66126430E+03</rscale>
<asrwt>0</asrwt>
<pdfrwt beam="1">  1        2 0.11043431E+00 0.66126430E+03</pdfrwt>
<pdfrwt beam="2">  1       -2 0.20201800E-01 0.66126430E+03</pdfrwt>
<totfact> 0.83549075E+02</totfact>
</mgrwt>
</event>
<event>
 4    1  0.5917727E-005  0.6903572E+03  0.7818608E-02  0.9733866E-01
         -2   -1    0    0    0  501 -0.00000000000E+00  0.00000000000E+00  0.83325883010E+02  0.83325883049E+02  0.25500000000E-02 0. -1.
          2   -1    0    0  501    0  0.00000000000E+00 -0.00000000000E+00 -0.14299069357E+04  0.14299069357E+04  0.25500000000E-02 0.  1.
    5000001    1    1    2    0    0 -0.22733896036E+03 -0.14999474477E+03 -0.45826830074E+03  0.56527450130E+03  0.18800000000E+03 0.  0.
   -5000001    1    1    2    0    0  0.22733896036E+03  0.14999474477E+03 -0.88831275199E+03  0.94795831750E+03  0.18800000000E+03 0.  0.
<mgrwt>
<rscale>  0 0.69035718E+03</rscale>
<asrwt>0</asrwt>
<pdfrwt beam="1">  1        2 0.20427240E+00 0.69035718E+03</pdfrwt>
<pdfrwt beam="2">  1       -2 0.11903698E-01 0.69035718E+03</pdfrwt>
<totfact> 0.83092075E+02</totfact>
</mgrwt>
</event>
<event>
 4    1  0.5917727E-005  0.5473797E+03  0.7818608E-02  0.1002102E+00
         -2   -1    0    0    0  501 -0.00000000000E+00  0.00000000000E+00  0.46250562821E+02  0.46250562891E+02  0.25500000000E-02 0. -1.
          2   -1    0    0  501    0  0.00000000000E+00 -0.00000000000E+00 -0.16195725814E+04  0.16195725815E+04  0.25500000000E-02 0.  1.
    5000001    1    1    2    0    0 -0.12160899014E+03  0.15601048668E+03 -0.72325249212E+03  0.77302405254E+03  0.18800000000E+03 0.  0.
   -5000001    1    1    2    0    0  0.12160899014E+03 -0.15601048668E+03 -0.85006952650E+03  0.89279909180E+03  0.18800000000E+03 0.  0.
<mgrwt>
<rscale>  0 0.54737973E+03</rscale>
<asrwt>0</asrwt>
<pdfrwt beam="1">  1        2 0.23136748E+00 0.54737973E+03</pdfrwt>
<pdfrwt beam="2">  1       -2 0.66072243E-02 0.54737973E+03</pdfrwt>
<totfact> 0.17155964E+03</totfact>
</mgrwt>
</event>
<event>
 4    1  0.5917727E-005  0.6554040E+03  0.7818608E-02  0.9796691E-01
          2   -1    0    0  501    0  0.00000000000E+00  0.00000000000E+00  0.21462663926E+04  0.21462663926E+04  0.25500000000E-02 0.  1.
         -2   -1    0    0    0  501 -0.00000000000E+00 -0.00000000000E+00 -0.50035075877E+02  0.50035075942E+02  0.25500000000E-02 0. -1.
    5000001    1    1    2    0    0  0.22754909470E+03  0.72292974445E+02  0.63715240919E+03  0.70591221635E+03  0.18800000000E+03 0.  0.
   -5000001    1    1    2    0    0 -0.22754909470E+03 -0.72292974445E+02  0.14590789075E+04  0.14903892522E+04  0.18800000000E+03 0.  0.
<mgrwt>
<rscale>  0 0.65540400E+03</rscale>
<asrwt>0</asrwt>
<pdfrwt beam="1">  1        2 0.30660943E+00 0.65540400E+03</pdfrwt>
<pdfrwt beam="2">  1       -2 0.71478693E-02 0.65540400E+03</pdfrwt>
<totfact> 0.81720902E+02</totfact>
</mgrwt>
</event>
<event>
 4    1  0.5917727E-005  0.4890784E+03  0.7818608E-02  0.1016670E+00
          2   -1    0    0  501    0  0.00000000000E+00  0.00000000000E+00  0.54842535714E+02  0.54842535773E+02  0.25500000000E-02 0.  1.
         -2   -1    0    0    0  501 -0.00000000000E+00 -0.00000000000E+00 -0.10903839489E+04  0.10903839489E+04  0.25500000000E-02 0. -1.
    5000001    1    1    2    0    0 -0.15604335919E+03  0.10285361772E+02 -0.51702255859E+03  0.57193674887E+03  0.18800000000E+03 0.  0.
   -5000001    1    1    2    0    0  0.15604335919E+03 -0.10285361772E+02 -0.51851885458E+03  0.57328973579E+03  0.18800000000E+03 0.  0.
<mgrwt>
<rscale>  0 0.48907840E+03</rscale>
<asrwt>0</asrwt>
<pdfrwt beam="1">  1        2 0.78346486E-02 0.48907840E+03</pdfrwt>
<pdfrwt beam="2">  1       -2 0.15576912E+00 0.48907840E+03</pdfrwt>
<totfact> 0.25101936E+02</totfact>
</mgrwt>
</event>
<event>
 4    1  0.5917727E-005  0.6478341E+03  0.7818608E-02  0.9810852E-01
          2   -1    0    0  501    0  0.00000000000E+00  0.00000000000E+00  0.15098275561E+04  0.15098275561E+04  0.25500000000E-02 0.  1.
         -2   -1    0    0    0  501 -0.00000000000E+00 -0.00000000000E+00 -0.69492875447E+02  0.69492875493E+02  0.25500000000E-02 0. -1.
    5000001    1    1    2    0    0 -0.19759642464E+03  0.29835592322E+02  0.30043444694E+03  0.40686529283E+03  0.18800000000E+03 0.  0.
   -5000001    1    1    2    0    0  0.19759642464E+03 -0.29835592322E+02  0.11399002337E+04  0.11724551387E+04  0.18800000000E+03 0.  0.
<mgrwt>
<rscale>  0 0.64783411E+03</rscale>
<asrwt>0</asrwt>
<pdfrwt beam="1">  1        2 0.21568964E+00 0.64783411E+03</pdfrwt>
<pdfrwt beam="2">  1       -2 0.99275542E-02 0.64783411E+03</pdfrwt>
<totfact> 0.10168551E+03</totfact>
</mgrwt>
</event>
<event>
 4    1  0.5917727E-005  0.7175812E+03  0.7818608E-02  0.9687629E-01
          2   -1    0    0  501    0  0.00000000000E+00  0.00000000000E+00  0.20586168211E+04  0.20586168211E+04  0.25500000000E-02 0.  1.
         -2   -1    0    0    0  501 -0.00000000000E+00 -0.00000000000E+00 -0.62532623618E+02  0.62532623670E+02  0.25500000000E-02 0. -1.
    5000001    1    1    2    0    0  0.21664806172E+03  0.21552005543E+03  0.99450237575E+03  0.10572437053E+04  0.18800000000E+03 0.  0.
   -5000001    1    1    2    0    0 -0.21664806172E+03 -0.21552005543E+03  0.10015818217E+04  0.10639057395E+04  0.18800000000E+03 0.  0.
<mgrwt>
<rscale>  0 0.71758125E+03</rscale>
<asrwt>0</asrwt>
<pdfrwt beam="1">  1        2 0.29408814E+00 0.71758125E+03</pdfrwt>
<pdfrwt beam="2">  1       -2 0.89332314E-02 0.71758125E+03</pdfrwt>
<totfact> 0.63107152E+02</totfact>
</mgrwt>
</event>
<event>
 4    1  0.5917727E-005  0.4838885E+03  0.7818608E-02  0.1018072E+00
          2   -1    0    0  501    0  0.00000000000E+00  0.00000000000E+00  0.19814873124E+04  0.19814873124E+04  0.25500000000E-02 0.  1.
         -2   -1    0    0    0  501 -0.00000000000E+00 -0.00000000000E+00 -0.29541957543E+02  0.29541957653E+02  0.25500000000E-02 0. -1.
    5000001    1    1    2    0    0 -0.58067156396E+02  0.10586771526E+03  0.13616788136E+04  0.13798887488E+04  0.18800000000E+03 0.  0.
   -5000001    1    1    2    0    0  0.58067156396E+02 -0.10586771526E+03  0.59026654129E+03  0.63114052124E+03  0.18800000000E+03 0.  0.
<mgrwt>
<rscale>  0 0.48388848E+03</rscale>
<asrwt>0</asrwt>
<pdfrwt beam="1">  1        2 0.28306973E+00 0.48388848E+03</pdfrwt>
<pdfrwt beam="2">  1       -2 0.42202780E-02 0.48388848E+03</pdfrwt>
<totfact> 0.22657159E+03</totfact>
</mgrwt>
</event>
<event>
 4    1  0.5917727E-005  0.4497822E+03  0.7818608E-02  0.1027787E+00
          2   -1    0    0  501    0  0.00000000000E+00  0.00000000000E+00  0.11186158204E+03  0.11186158207E+03  0.25500000000E-02 0.  1.
         -2   -1    0    0    0  501 -0.00000000000E+00 -0.00000000000E+00 -0.45213024217E+03  0.45213024218E+03  0.25500000000E-02 0. -1.
    5000001    1    1    2    0    0 -0.11498038482E+03 -0.29464979700E+02 -0.12773525277E+03  0.25641561716E+03  0.18800000000E+03 0.  0.
   -5000001    1    1    2    0    0  0.11498038482E+03  0.29464979700E+02 -0.21253340736E+03  0.30757620709E+03  0.18800000000E+03 0.  0.
<mgrwt>
<rscale>  0 0.44978219E+03</rscale>
<asrwt>0</asrwt>
<pdfrwt beam="1">  1        2 0.15980226E-01 0.44978219E+03</pdfrwt>
<pdfrwt beam="2">  1       -2 0.64590034E-01 0.44978219E+03</pdfrwt>
<totfact> 0.82488697E+02</totfact>
</mgrwt>
</event>
<event>
 4    1  0.5917727E-005  0.1238639E+04  0.7818608E-02  0.9079692E-01
         -2   -1    0    0    0  501 -0.00000000000E+00  0.00000000000E+00  0.29558985645E+03  0.29558985646E+03  0.25500000000E-02 0. -1.
          2   -1    0    0  501    0  0.00000000000E+00 -0.00000000000E+00 -0.12975973461E+04  0.12975973461E+04  0.25500000000E-02 0.  1.
    5000001    1    1    2    0    0 -0.43108281543E+03 -0.15885310932E+03 -0.97733985396E+03  0.10961769448E+04  0.18800000000E+03 0.  0.
   -5000001    1    1    2    0    0  0.43108281543E+03  0.15885310932E+03 -0.24667635698E+02  0.49701025779E+03  0.18800000000E+03 0.  0.
<mgrwt>
<rscale>  0 0.12386390E+04</rscale>
<asrwt>0</asrwt>
<pdfrwt beam="1">  1        2 0.18537105E+00 0.12386390E+04</pdfrwt>
<pdfrwt beam="2">  1       -2 0.42227123E-01 0.12386390E+04</pdfrwt>
<totfact> 0.98482026E+01</totfact>
</mgrwt>
</event>
<event>
 4    1  0.5917727E-005  0.5443930E+03  0.7818608E-02  0.1002800E+00
          2   -1    0    0  501    0  0.00000000000E+00  0.00000000000E+00  0.53942566354E+03  0.53942566355E+03  0.25500000000E-02 0.  1.
         -2   -1    0    0    0  501 -0.00000000000E+00 -0.00000000000E+00 -0.13735152104E+03  0.13735152106E+03  0.25500000000E-02 0. -1.
    5000001    1    1    2    0    0  0.15018167672E+03  0.10038809307E+03  0.29824871149E+03  0.39614214514E+03  0.18800000000E+03 0.  0.
   -5000001    1    1    2    0    0 -0.15018167672E+03 -0.10038809307E+03  0.10382543101E+03  0.28063503947E+03  0.18800000000E+03 0.  0.
<mgrwt>
<rscale>  0 0.54439300E+03</rscale>
<asrwt>0</asrwt>
<pdfrwt beam="1">  1        2 0.77060812E-01 0.54439300E+03</pdfrwt>
<pdfrwt beam="2">  1       -2 0.19621645E-01 0.54439300E+03</pdfrwt>
<totfact> 0.13561391E+03</totfact>
</mgrwt>
</event>
<event>
 4    1  0.5917727E-005  0.6052875E+03  0.7818608E-02  0.9894496E-01
          2   -1    0    0  501    0  0.00000000000E+00  0.00000000000E+00  0.60094419795E+03  0.60094419795E+03  0.25500000000E-02 0.  1.
         -2   -1    0    0    0  501 -0.00000000000E+00 -0.00000000000E+00 -0.15241555534E+03  0.15241555536E+03  0.25500000000E-02 0. -1.
    5000001    1    1    2    0    0 -0.30651341779E+02 -0.23418696101E+03  0.19739048137E+03  0.36067996838E+03  0.18800000000E+03 0.  0.
   -5000001    1    1    2    0    0  0.30651341779E+02  0.23418696101E+03  0.25113816124E+03  0.39267978493E+03  0.18800000000E+03 0.  0.
<mgrwt>
<rscale>  0 0.60528751E+03</rscale>
<asrwt>0</asrwt>
<pdfrwt beam="1">  1        2 0.85849173E-01 0.60528751E+03</pdfrwt>
<pdfrwt beam="2">  1       -2 0.21773650E-01 0.60528751E+03</pdfrwt>
<totfact> 0.99674046E+02</totfact>
</mgrwt>
</event>
<event>
 4    1  0.5917727E-005  0.4477144E+03  0.7818608E-02  0.1028406E+00
         -2   -1    0    0    0  501 -0.00000000000E+00  0.00000000000E+00  0.42526673730E+02  0.42526673806E+02  0.25500000000E-02 0. -1.
          2   -1    0    0  501    0  0.00000000000E+00 -0.00000000000E+00 -0.11783676179E+04  0.11783676179E+04  0.25500000000E-02 0.  1.
    5000001    1    1    2    0    0  0.23431325350E+02  0.11834959019E+03 -0.60766314205E+03  0.64742115096E+03  0.18800000000E+03 0.  0.
   -5000001    1    1    2    0    0 -0.23431325350E+02 -0.11834959019E+03 -0.52817780211E+03  0.57347314074E+03  0.18800000000E+03 0.  0.
<mgrwt>
<rscale>  0 0.44771444E+03</rscale>
<asrwt>0</asrwt>
<pdfrwt beam="1">  1        2 0.16833821E+00 0.44771444E+03</pdfrwt>
<pdfrwt beam="2">  1       -2 0.60752398E-02 0.44771444E+03</pdfrwt>
<totfact> 0.33561194E+03</totfact>
</mgrwt>
</event>
<event>
 4    1  0.5917727E-005  0.4237216E+03  0.7818608E-02  0.1035862E+00
          2   -1    0    0  501    0  0.00000000000E+00  0.00000000000E+00  0.51917293428E+03  0.51917293429E+03  0.25500000000E-02 0.  1.
         -2   -1    0    0    0  501 -0.00000000000E+00 -0.00000000000E+00 -0.86454811733E+02  0.86454811770E+02  0.25500000000E-02 0. -1.
    5000001    1    1    2    0    0 -0.58000892024E+02  0.31903987888E+02  0.31902093920E+03  0.37616529288E+03  0.18800000000E+03 0.  0.
   -5000001    1    1    2    0    0  0.58000892024E+02 -0.31903987888E+02  0.11369718336E+03  0.22946245319E+03  0.18800000000E+03 0.  0.
<mgrwt>
<rscale>  0 0.42372160E+03</rscale>
<asrwt>0</asrwt>
<pdfrwt beam="1">  1        2 0.74167561E-01 0.42372160E+03</pdfrwt>
<pdfrwt beam="2">  1       -2 0.12350688E-01 0.42372160E+03</pdfrwt>
<totfact> 0.30826007E+03</totfact>
</mgrwt>
</event>
<event>
 4    1  0.5917727E-005  0.7648986E+03  0.7818608E-02  0.9612262E-01
         -2   -1    0    0    0  501 -0.00000000000E+00  0.00000000000E+00  0.16823889263E+03  0.16823889265E+03  0.25500000000E-02 0. -1.
          2   -1    0    0  501    0  0.00000000000E+00 -0.00000000000E+00 -0.86940342731E+03  0.86940342731E+03  0.25500000000E-02 0.  1.
    5000001    1    1    2    0    0 -0.14615741166E+03 -0.29917306496E+03 -0.36082041762E+03  0.52573937037E+03  0.18800000000E+03 0.  0.
   -5000001    1    1    2    0    0  0.14615741166E+03  0.29917306496E+03 -0.34034411706E+03  0.51190294959E+03  0.18800000000E+03 0.  0.
<mgrwt>
<rscale>  0 0.76489861E+03</rscale>
<asrwt>0</asrwt>
<pdfrwt beam="1">  1        2 0.12420049E+00 0.76489861E+03</pdfrwt>
<pdfrwt beam="2">  1       -2 0.24034128E-01 0.76489861E+03</pdfrwt>
<totfact> 0.52592253E+02</totfact>
</mgrwt>
</event>
<event>
 4    1  0.5917727E-005  0.4675387E+03  0.7818608E-02  0.1022617E+00
          2   -1    0    0  501    0  0.00000000000E+00  0.00000000000E+00  0.80984701671E+03  0.80984701671E+03  0.25500000000E-02 0.  1.
         -2   -1    0    0    0  501 -0.00000000000E+00 -0.00000000000E+00 -0.67479537624E+02  0.67479537672E+02  0.25500000000E-02 0. -1.
    5000001    1    1    2    0    0  0.54728771203E+02 -0.80500939750E+02  0.18515222143E+03  0.28124897297E+03  0.18800000000E+03 0.  0.
   -5000001    1    1    2    0    0 -0.54728771203E+02  0.80500939750E+02  0.55721525765E+03  0.59607758141E+03  0.18800000000E+03 0.  0.
<mgrwt>
<rscale>  0 0.46753867E+03</rscale>
<asrwt>0</asrwt>
<pdfrwt beam="1">  1        2 0.11569243E+00 0.46753867E+03</pdfrwt>
<pdfrwt beam="2">  1       -2 0.96399344E-02 0.46753867E+03</pdfrwt>
<totfact> 0.27158613E+03</totfact>
</mgrwt>
</event>
<event>
 4    1  0.5917727E-005  0.6251312E+03  0.7818608E-02  0.9854596E-01
         -2   -1    0    0    0  501 -0.00000000000E+00  0.00000000000E+00  0.21237285535E+02  0.21237285688E+02  0.25500000000E-02 0. -1.
          2   -1    0    0  501    0  0.00000000000E+00 -0.00000000000E+00 -0.46002707096E+04  0.46002707096E+04  0.25500000000E-02 0.  1.
    5000001    1    1    2    0    0  0.33460161621E+02  0.24571961356E+03 -0.25057565623E+04  0.25250064674E+04  0.18800000000E+03 0.  0.
   -5000001    1    1    2    0    0 -0.33460161621E+02 -0.24571961356E+03 -0.20732768618E+04  0.20965015279E+04  0.18800000000E+03 0.  0.
<mgrwt>
<rscale>  0 0.62513123E+03</rscale>
<asrwt>0</asrwt>
<pdfrwt beam="1">  1        2 0.65718090E+00 0.62513123E+03</pdfrwt>
<pdfrwt beam="2">  1       -2 0.30339009E-02 0.62513123E+03</pdfrwt>
<totfact> 0.10230830E+02</totfact>
</mgrwt>
</event>
<event>
 4    1  0.5917727E-005  0.4252938E+03  0.7818608E-02  0.1035357E+00
          2   -1    0    0  501    0  0.00000000000E+00  0.00000000000E+00  0.80174174056E+03  0.80174174057E+03  0.25500000000E-02 0.  1.
         -2   -1    0    0    0  501 -0.00000000000E+00 -0.00000000000E+00 -0.56400578374E+02  0.56400578431E+02  0.25500000000E-02 0. -1.
    5000001    1    1    2    0    0 -0.49019216168E+02  0.86112185237E+02  0.35750296951E+03  0.41589730128E+03  0.18800000000E+03 0.  0.
   -5000001    1    1    2    0    0  0.49019216168E+02 -0.86112185237E+02  0.38783819268E+03  0.44224501772E+03  0.18800000000E+03 0.  0.
<mgrwt>
<rscale>  0 0.42529377E+03</rscale>
<asrwt>0</asrwt>
<pdfrwt beam="1">  1        2 0.11453454E+00 0.42529377E+03</pdfrwt>
<pdfrwt beam="2">  1       -2 0.80572251E-02 0.42529377E+03</pdfrwt>
<totfact> 0.36578506E+03</totfact>
</mgrwt>
</event>
<event>
 4    1  0.5917727E-005  0.5686707E+03  0.7818608E-02  0.9972625E-01
         -2   -1    0    0    0  501 -0.00000000000E+00  0.00000000000E+00  0.29646091997E+02  0.29646092107E+02  0.25500000000E-02 0. -1.
          2   -1    0    0  501    0  0.00000000000E+00 -0.00000000000E+00 -0.27270569932E+04  0.27270569932E+04  0.25500000000E-02 0.  1.
    5000001    1    1    2    0    0 -0.17060435634E+03  0.46436791891E+02 -0.77022370819E+03  0.81231199837E+03  0.18800000000E+03 0.  0.
   -5000001    1    1    2    0    0  0.17060435634E+03 -0.46436791891E+02 -0.19271871931E+04  0.19443910870E+04  0.18800000000E+03 0.  0.
<mgrwt>
<rscale>  0 0.56867067E+03</rscale>
<asrwt>0</asrwt>
<pdfrwt beam="1">  1        2 0.38957941E+00 0.56867067E+03</pdfrwt>
<pdfrwt beam="2">  1       -2 0.42351577E-02 0.56867067E+03</pdfrwt>
<totfact> 0.93831429E+02</totfact>
</mgrwt>
</event>
<event>
 4    1  0.5917727E-005  0.4345359E+03  0.7818608E-02  0.1032437E+00
         -2   -1    0    0    0  501 -0.00000000000E+00  0.00000000000E+00  0.16215752127E+02  0.16215752328E+02  0.25500000000E-02 0. -1.
          2   -1    0    0  501    0  0.00000000000E+00 -0.00000000000E+00 -0.29110799757E+04  0.29110799757E+04  0.25500000000E-02 0.  1.
    5000001    1    1    2    0    0  0.77739850842E+02 -0.37297767185E+02 -0.99922042456E+03  0.10204019133E+04  0.18800000000E+03 0.  0.
   -5000001    1    1    2    0    0 -0.77739850842E+02  0.37297767185E+02 -0.18956437990E+04  0.19068938147E+04  0.18800000000E+03 0.  0.
<mgrwt>
<rscale>  0 0.43453585E+03</rscale>
<asrwt>0</asrwt>
<pdfrwt beam="1">  1        2 0.41586823E+00 0.43453585E+03</pdfrwt>
<pdfrwt beam="2">  1       -2 0.23165379E-02 0.43453585E+03</pdfrwt>
<totfact> 0.18936620E+03</totfact>
</mgrwt>
</event>
<event>
 4    1  0.5917727E-005  0.5315352E+03  0.7818608E-02  0.1005860E+00
          2   -1    0    0  501    0  0.00000000000E+00  0.00000000000E+00  0.39509281942E+03  0.39509281943E+03  0.25500000000E-02 0.  1.
         -2   -1    0    0    0  501 -0.00000000000E+00 -0.00000000000E+00 -0.17877423260E+03  0.17877423262E+03  0.25500000000E-02 0. -1.
    5000001    1    1    2    0    0  0.15741984746E+03 -0.59151936374E+02  0.17775527936E+02  0.25286345988E+03  0.18800000000E+03 0.  0.
   -5000001    1    1    2    0    0 -0.15741984746E+03  0.59151936374E+02  0.19854305889E+03  0.32100359217E+03  0.18800000000E+03 0.  0.
<mgrwt>
<rscale>  0 0.53153519E+03</rscale>
<asrwt>0</asrwt>
<pdfrwt beam="1">  1        2 0.56441831E-01 0.53153519E+03</pdfrwt>
<pdfrwt beam="2">  1       -2 0.25539176E-01 0.53153519E+03</pdfrwt>
<totfact> 0.12087455E+03</totfact>
</mgrwt>
</event>
<event>
 4    1  0.5917727E-005  0.4986638E+03  0.7818608E-02  0.1014128E+00
          2   -1    0    0  501    0  0.00000000000E+00  0.00000000000E+00  0.43155617095E+03  0.43155617096E+03  0.25500000000E-02 0.  1.
         -2   -1    0    0    0  501 -0.00000000000E+00 -0.00000000000E+00 -0.14405169310E+03  0.14405169313E+03  0.25500000000E-02 0. -1.
    5000001    1    1    2    0    0 -0.96374084506E+02  0.12540919167E+03  0.19281975287E+03  0.31231216214E+03  0.18800000000E+03 0.  0.
   -5000001    1    1    2    0    0  0.96374084506E+02 -0.12540919167E+03  0.94684724975E+02  0.26329570195E+03  0.18800000000E+03 0.  0.
<mgrwt>
<rscale>  0 0.49866380E+03</rscale>
<asrwt>0</asrwt>
<pdfrwt beam="1">  1        2 0.61650880E-01 0.49866380E+03</pdfrwt>
<pdfrwt beam="2">  1       -2 0.20578814E-01 0.49866380E+03</pdfrwt>
<totfact> 0.16055739E+03</totfact>
</mgrwt>
</event>
<event>
 4    1  0.5917727E-005  0.7745218E+03  0.7818608E-02  0.9597646E-01
          2   -1    0    0  501    0  0.00000000000E+00  0.00000000000E+00  0.25052565937E+04  0.25052565937E+04  0.25500000000E-02 0.  1.
         -2   -1    0    0    0  501 -0.00000000000E+00 -0.00000000000E+00 -0.59862537302E+02  0.59862537357E+02  0.25500000000E-02 0. -1.
    5000001    1    1    2    0    0 -0.12871973428E+03 -0.30239321910E+03  0.95330117651E+03  0.10257375698E+04  0.18800000000E+03 0.  0.
   -5000001    1    1    2    0    0  0.12871973428E+03  0.30239321910E+03  0.14920928799E+04  0.15393815613E+04  0.18800000000E+03 0.  0.
<mgrwt>
<rscale>  0 0.77452183E+03</rscale>
<asrwt>0</asrwt>
<pdfrwt beam="1">  1        2 0.35789378E+00 0.77452183E+03</pdfrwt>
<pdfrwt beam="2">  1       -2 0.85517915E-02 0.77452183E+03</pdfrwt>
<totfact> 0.39912672E+02</totfact>
</mgrwt>
</event>
<event>
 4    1  0.5917727E-005  0.5091732E+03  0.7818608E-02  0.1011412E+00
          2   -1    0    0  501    0  0.00000000000E+00  0.00000000000E+00  0.34913519997E+03  0.34913519998E+03  0.25500000000E-02 0.  1.
         -2   -1    0    0    0  501 -0.00000000000E+00 -0.00000000000E+00 -0.18564253185E+03  0.18564253187E+03  0.25500000000E-02 0. -1.
    5000001    1    1    2    0    0 -0.14241637074E+03  0.95804494154E+02  0.84969658437E+02  0.26837430319E+03  0.18800000000E+03 0.  0.
   -5000001    1    1    2    0    0  0.14241637074E+03 -0.95804494154E+02  0.78523009681E+02  0.26640342867E+03  0.18800000000E+03 0.  0.
<mgrwt>
<rscale>  0 0.50917322E+03</rscale>
<asrwt>0</asrwt>
<pdfrwt beam="1">  1        2 0.49876457E-01 0.50917322E+03</pdfrwt>
<pdfrwt beam="2">  1       -2 0.26520362E-01 0.50917322E+03</pdfrwt>
<totfact> 0.12944803E+03</totfact>
</mgrwt>
</event>
<event>
 4    1  0.5917727E-005  0.6754879E+03  0.7818608E-02  0.9760094E-01
          2   -1    0    0  501    0  0.00000000000E+00  0.00000000000E+00  0.34916719677E+03  0.34916719677E+03  0.25500000000E-02 0.  1.
         -2   -1    0    0    0  501 -0.00000000000E+00 -0.00000000000E+00 -0.32669443652E+03  0.32669443653E+03  0.25500000000E-02 0. -1.
    5000001    1    1    2    0    0  0.25229633871E+03 -0.44126444260E+02 -0.10339748738E+03  0.33411917934E+03  0.18800000000E+03 0.  0.
   -5000001    1    1    2    0    0 -0.25229633871E+03  0.44126444260E+02  0.12587024762E+03  0.34174245397E+03  0.18800000000E+03 0.  0.
<mgrwt>
<rscale>  0 0.67548791E+03</rscale>
<asrwt>0</asrwt>
<pdfrwt beam="1">  1        2 0.49881028E-01 0.67548791E+03</pdfrwt>
<pdfrwt beam="2">  1       -2 0.46670634E-01 0.67548791E+03</pdfrwt>
<totfact> 0.44167047E+02</totfact>
</mgrwt>
</event>
<event>
 4    1  0.5917727E-005  0.1061627E+04  0.7818608E-02  0.9243422E-01
         -2   -1    0    0    0  501 -0.00000000000E+00  0.00000000000E+00  0.20123109617E+03  0.20123109618E+03  0.25500000000E-02 0. -1.
          2   -1    0    0  501    0  0.00000000000E+00 -0.00000000000E+00 -0.14001960084E+04  0.14001960084E+04  0.25500000000E-02 0.  1.
    5000001    1    1    2    0    0  0.22632678348E+03  0.43523819373E+03 -0.71399550602E+03  0.88644778799E+03  0.18800000000E+03 0.  0.
   -5000001    1    1    2    0    0 -0.22632678348E+03 -0.43523819373E+03 -0.48496940622E+03  0.71497931661E+03  0.18800000000E+03 0.  0.
<mgrwt>
<rscale>  0 0.10616270E+04</rscale>
<asrwt>0</asrwt>
<pdfrwt beam="1">  1        2 0.20002800E+00 0.10616270E+04</pdfrwt>
<pdfrwt beam="2">  1       -2 0.28747300E-01 0.10616270E+04</pdfrwt>
<totfact> 0.18233301E+02</totfact>
</mgrwt>
</event>
<event>
 4    1  0.5917727E-005  0.4861566E+03  0.7818608E-02  0.1017457E+00
          2   -1    0    0  501    0  0.00000000000E+00  0.00000000000E+00  0.19758041645E+04  0.19758041645E+04  0.25500000000E-02 0.  1.
         -2   -1    0    0    0  501 -0.00000000000E+00 -0.00000000000E+00 -0.29905322834E+02  0.29905322943E+02  0.25500000000E-02 0. -1.
    5000001    1    1    2    0    0  0.15056064102E+03 -0.32776859363E+02  0.97493819729E+03  0.10047842145E+04  0.18800000000E+03 0.  0.
   -5000001    1    1    2    0    0 -0.15056064102E+03  0.32776859363E+02  0.97096064437E+03  0.10009252730E+04  0.18800000000E+03 0.  0.
<mgrwt>
<rscale>  0 0.48615661E+03</rscale>
<asrwt>0</asrwt>
<pdfrwt beam="1">  1        2 0.28225785E+00 0.48615661E+03</pdfrwt>
<pdfrwt beam="2">  1       -2 0.42721873E-02 0.48615661E+03</pdfrwt>
<totfact> 0.22380202E+03</totfact>
</mgrwt>
</event>
<event>
 4    1  0.5917727E-005  0.4293200E+03  0.7818608E-02  0.1034075E+00
          2   -1    0    0  501    0  0.00000000000E+00  0.00000000000E+00  0.60738230381E+03  0.60738230382E+03  0.25500000000E-02 0.  1.
         -2   -1    0    0    0  501 -0.00000000000E+00 -0.00000000000E+00 -0.75864747929E+02  0.75864747972E+02  0.25500000000E-02 0. -1.
    5000001    1    1    2    0    0 -0.53142800873E+02 -0.51111848257E+02  0.38160078571E+03  0.43174035944E+03  0.18800000000E+03 0.  0.
   -5000001    1    1    2    0    0  0.53142800873E+02  0.51111848257E+02  0.14991677018E+03  0.25150669235E+03  0.18800000000E+03 0.  0.
<mgrwt>
<rscale>  0 0.42931995E+03</rscale>
<asrwt>0</asrwt>
<pdfrwt beam="1">  1        2 0.86768907E-01 0.42931995E+03</pdfrwt>
<pdfrwt beam="2">  1       -2 0.10837820E-01 0.42931995E+03</pdfrwt>
<totfact> 0.31854599E+03</totfact>
</mgrwt>
</event>
<event>
 4    1  0.5917727E-005  0.5815119E+03  0.7818608E-02  0.9944523E-01
          2   -1    0    0  501    0  0.00000000000E+00  0.00000000000E+00  0.57992150685E+03  0.57992150686E+03  0.25500000000E-02 0.  1.
         -2   -1    0    0    0  501 -0.00000000000E+00 -0.00000000000E+00 -0.14577667525E+03  0.14577667527E+03  0.25500000000E-02 0. -1.
    5000001    1    1    2    0    0 -0.49241451937E+02 -0.19309175926E+03  0.95527653180E+02  0.29013562450E+03  0.18800000000E+03 0.  0.
   -5000001    1    1    2    0    0  0.49241451937E+02  0.19309175926E+03  0.33861717843E+03  0.43556255763E+03  0.18800000000E+03 0.  0.
<mgrwt>
<rscale>  0 0.58151192E+03</rscale>
<asrwt>0</asrwt>
<pdfrwt beam="1">  1        2 0.82845928E-01 0.58151192E+03</pdfrwt>
<pdfrwt beam="2">  1       -2 0.20825240E-01 0.58151192E+03</pdfrwt>
<totfact> 0.11240423E+03</totfact>
</mgrwt>
</event>
<event>
 4    1  0.5917727E-005  0.5420781E+03  0.7818608E-02  0.1003344E+00
          2   -1    0    0  501    0  0.00000000000E+00  0.00000000000E+00  0.30918497487E+04  0.30918497487E+04  0.25500000000E-02 0.  1.
         -2   -1    0    0    0  501 -0.00000000000E+00 -0.00000000000E+00 -0.23759937425E+02  0.23759937562E+02  0.25500000000E-02 0. -1.
    5000001    1    1    2    0    0 -0.49578676497E+02  0.94143373660E+02  0.59318403062E+03  0.63129415818E+03  0.18800000000E+03 0.  0.
   -5000001    1    1    2    0    0  0.49578676497E+02 -0.94143373660E+02  0.24749057807E+04  0.24843155281E+04  0.18800000000E+03 0.  0.
<mgrwt>
<rscale>  0 0.54207806E+03</rscale>
<asrwt>0</asrwt>
<pdfrwt beam="1">  1        2 0.44169277E+00 0.54207806E+03</pdfrwt>
<pdfrwt beam="2">  1       -2 0.33942772E-02 0.54207806E+03</pdfrwt>
<totfact> 0.84118123E+02</totfact>
</mgrwt>
</event>
<event>
 4    1  0.5917727E-005  0.4457048E+03  0.7818608E-02  0.1029011E+00
          2   -1    0    0  501    0  0.00000000000E+00  0.00000000000E+00  0.21388992599E+04  0.21388992599E+04  0.25500000000E-02 0.  1.
         -2   -1    0    0    0  501 -0.00000000000E+00 -0.00000000000E+00 -0.23219041992E+02  0.23219042132E+02  0.25500000000E-02 0. -1.
    5000001    1    1    2    0    0 -0.82509010409E+02  0.51520399384E+02  0.71975906280E+03  0.75023942634E+03  0.18800000000E+03 0.  0.
   -5000001    1    1    2    0    0  0.82509010409E+02 -0.51520399384E+02  0.13959211551E+04  0.14118788757E+04  0.18800000000E+03 0.  0.
<mgrwt>
<rscale>  0 0.44570480E+03</rscale>
<asrwt>0</asrwt>
<pdfrwt beam="1">  1        2 0.30555691E+00 0.44570480E+03</pdfrwt>
<pdfrwt beam="2">  1       -2 0.33170074E-02 0.44570480E+03</pdfrwt>
<totfact> 0.27338373E+03</totfact>
</mgrwt>
</event>
<event>
 4    1  0.5917727E-005  0.6681859E+03  0.7818608E-02  0.9773241E-01
          2   -1    0    0  501    0  0.00000000000E+00  0.00000000000E+00  0.80720612251E+03  0.80720612251E+03  0.25500000000E-02 0. -1.
         -2   -1    0    0    0  501 -0.00000000000E+00 -0.00000000000E+00 -0.13827706099E+03  0.13827706102E+03  0.25500000000E-02 0.  1.
    5000001    1    1    2    0    0 -0.24005229929E+03  0.11296932297E+03  0.22589688113E+03  0.39593001305E+03  0.18800000000E+03 0.  0.
   -5000001    1    1    2    0    0  0.24005229929E+03 -0.11296932297E+03  0.44303218038E+03  0.54955317048E+03  0.18800000000E+03 0.  0.
<mgrwt>
<rscale>  0 0.66818587E+03</rscale>
<asrwt>0</asrwt>
<pdfrwt beam="1">  1        2 0.11531516E+00 0.66818587E+03</pdfrwt>
<pdfrwt beam="2">  1       -2 0.19753866E-01 0.66818587E+03</pdfrwt>
<totfact> 0.82203125E+02</totfact>
</mgrwt>
</event>
<event>
 4    1  0.5917727E-005  0.4350857E+03  0.7818608E-02  0.1032265E+00
         -2   -1    0    0    0  501 -0.00000000000E+00  0.00000000000E+00  0.50693185124E+02  0.50693185188E+02  0.25500000000E-02 0. -1.
          2   -1    0    0  501    0  0.00000000000E+00 -0.00000000000E+00 -0.93355514996E+03  0.93355514996E+03  0.25500000000E-02 0.  1.
    5000001    1    1    2    0    0 -0.76442215370E+02  0.78336801978E+02 -0.43938593066E+03  0.49028977441E+03  0.18800000000E+03 0.  0.
   -5000001    1    1    2    0    0  0.76442215370E+02 -0.78336801978E+02 -0.44347603418E+03  0.49395856074E+03  0.18800000000E+03 0.  0.
<mgrwt>
<rscale>  0 0.43508567E+03</rscale>
<asrwt>0</asrwt>
<pdfrwt beam="1">  1        2 0.13336501E+00 0.43508567E+03</pdfrwt>
<pdfrwt beam="2">  1       -2 0.72418842E-02 0.43508567E+03</pdfrwt>
<totfact> 0.35513207E+03</totfact>
</mgrwt>
</event>
<event>
 4    1  0.5917727E-005  0.9786530E+03  0.7818608E-02  0.9332273E-01
         -2   -1    0    0    0  501 -0.00000000000E+00  0.00000000000E+00  0.11587942763E+03  0.11587942766E+03  0.25500000000E-02 0. -1.
          2   -1    0    0  501    0  0.00000000000E+00 -0.00000000000E+00 -0.20662894197E+04  0.20662894197E+04  0.25500000000E-02 0.  1.
    5000001    1    1    2    0    0  0.42026511282E+03 -0.12621469640E+03 -0.73563702682E+03  0.87695994770E+03  0.18800000000E+03 0.  0.
   -5000001    1    1    2    0    0 -0.42026511282E+03  0.12621469640E+03 -0.12147729652E+04  0.13052088996E+04  0.18800000000E+03 0.  0.
<mgrwt>
<rscale>  0 0.97865302E+03</rscale>
<asrwt>0</asrwt>
<pdfrwt beam="1">  1        2 0.29518418E+00 0.97865302E+03</pdfrwt>
<pdfrwt beam="2">  1       -2 0.16554205E-01 0.97865302E+03</pdfrwt>
<totfact> 0.22066631E+02</totfact>
</mgrwt>
</event>
<event>
 4    1  0.5917727E-005  0.4380584E+03  0.7818608E-02  0.1031344E+00
          2   -1    0    0  501    0  0.00000000000E+00  0.00000000000E+00  0.28059224831E+02  0.28059224947E+02  0.25500000000E-02 0.  1.
         -2   -1    0    0    0  501 -0.00000000000E+00 -0.00000000000E+00 -0.17097329251E+04  0.17097329251E+04  0.25500000000E-02 0. -1.
    5000001    1    1    2    0    0 -0.80842517470E+02 -0.57694383830E+02 -0.63221365390E+03  0.66700993901E+03  0.18800000000E+03 0.  0.
   -5000001    1    1    2    0    0  0.80842517470E+02  0.57694383830E+02 -0.10494600463E+04  0.10707822110E+04  0.18800000000E+03 0.  0.
<mgrwt>
<rscale>  0 0.43805836E+03</rscale>
<asrwt>0</asrwt>
<pdfrwt beam="1">  1        2 0.40084618E-02 0.43805836E+03</pdfrwt>
<pdfrwt beam="2">  1       -2 0.24424749E+00 0.43805836E+03</pdfrwt>
<totfact> 0.16273467E+02</totfact>
</mgrwt>
</event>
<event>
 4    1  0.5917727E-005  0.1001117E+04  0.7818608E-02  0.9307320E-01
          2   -1    0    0  501    0  0.00000000000E+00  0.00000000000E+00  0.20205672381E+04  0.20205672381E+04  0.25500000000E-02 0.  1.
         -2   -1    0    0    0  501 -0.00000000000E+00 -0.00000000000E+00 -0.12400420521E+03  0.12400420524E+03  0.25500000000E-02 0. -1.
    5000001    1    1    2    0    0  0.98371142371E+02 -0.40689370083E+03  0.13765858288E+04  0.14510588925E+04  0.18800000000E+03 0.  0.
   -5000001    1    1    2    0    0 -0.98371142371E+02  0.40689370083E+03  0.51997720411E+03  0.69351255088E+03  0.18800000000E+03 0.  0.
<mgrwt>
<rscale>  0 0.10011170E+04</rscale>
<asrwt>0</asrwt>
<pdfrwt beam="1">  1        2 0.28865243E+00 0.10011170E+04</pdfrwt>
<pdfrwt beam="2">  1       -2 0.17714888E-01 0.10011170E+04</pdfrwt>
<totfact> 0.20686727E+02</totfact>
</mgrwt>
</event>
<event>
 4    1  0.5917727E-005  0.4515019E+03  0.7818608E-02  0.1027275E+00
         -2   -1    0    0    0  501 -0.00000000000E+00  0.00000000000E+00  0.34128570000E+03  0.34128570001E+03  0.25500000000E-02 0. -1.
          2   -1    0    0  501    0  0.00000000000E+00 -0.00000000000E+00 -0.14932793745E+03  0.14932793747E+03  0.25500000000E-02 0.  1.
    5000001    1    1    2    0    0 -0.72327120115E+02 -0.94784628114E+02  0.13669693835E+03  0.26123818822E+03  0.18800000000E+03 0.  0.
   -5000001    1    1    2    0    0  0.72327120115E+02  0.94784628114E+02  0.55260824205E+02  0.22937544926E+03  0.18800000000E+03 0.  0.
<mgrwt>
<rscale>  0 0.45150189E+03</rscale>
<asrwt>0</asrwt>
<pdfrwt beam="1">  1        2 0.21332563E-01 0.45150189E+03</pdfrwt>
<pdfrwt beam="2">  1       -2 0.48755100E-01 0.45150189E+03</pdfrwt>
<totfact> 0.10501075E+03</totfact>
</mgrwt>
</event>
<event>
 4    1  0.5917727E-005  0.6434245E+03  0.7818608E-02  0.9819196E-01
         -2   -1    0    0    0  501 -0.00000000000E+00  0.00000000000E+00  0.20820145639E+03  0.20820145641E+03  0.25500000000E-02 0. -1.
          2   -1    0    0  501    0  0.00000000000E+00 -0.00000000000E+00 -0.49710880866E+03  0.49710880867E+03  0.25500000000E-02 0.  1.
    5000001    1    1    2    0    0  0.11139677106E+03  0.22260996629E+03 -0.23069985417E+03  0.38798306717E+03  0.18800000000E+03 0.  0.
   -5000001    1    1    2    0    0 -0.11139677106E+03 -0.22260996629E+03 -0.58207498097E+02  0.31732719791E+03  0.18800000000E+03 0.  0.
<mgrwt>
<rscale>  0 0.64342452E+03</rscale>
<asrwt>0</asrwt>
<pdfrwt beam="1">  1        2 0.71015544E-01 0.64342452E+03</pdfrwt>
<pdfrwt beam="2">  1       -2 0.29743065E-01 0.64342452E+03</pdfrwt>
<totfact> 0.70707284E+02</totfact>
</mgrwt>
</event>
<event>
 4    1  0.5917727E-005  0.5993023E+03  0.7818608E-02  0.9906855E-01
          2   -1    0    0  501    0  0.00000000000E+00  0.00000000000E+00  0.10386933605E+04  0.10386933605E+04  0.25500000000E-02 0.  1.
         -2   -1    0    0    0  501 -0.00000000000E+00 -0.00000000000E+00 -0.86445942005E+02  0.86445942042E+02  0.25500000000E-02 0. -1.
    5000001    1    1    2    0    0  0.13191178407E+03 -0.96459096475E+02  0.78882324955E+03  0.82721895234E+03  0.18800000000E+03 0.  0.
   -5000001    1    1    2    0    0 -0.13191178407E+03  0.96459096475E+02  0.16342416892E+03  0.29792035019E+03  0.18800000000E+03 0.  0.
<mgrwt>
<rscale>  0 0.59930235E+03</rscale>
<asrwt>0</asrwt>
<pdfrwt beam="1">  1        2 0.14838477E+00 0.59930235E+03</pdfrwt>
<pdfrwt beam="2">  1       -2 0.12349420E-01 0.59930235E+03</pdfrwt>
<totfact> 0.12972002E+03</totfact>
</mgrwt>
</event>
<event>
 4    1  0.5917727E-005  0.5057806E+03  0.7818608E-02  0.1012281E+00
         -2   -1    0    0    0  501 -0.00000000000E+00  0.00000000000E+00  0.63212773268E+02  0.63212773320E+02  0.25500000000E-02 0. -1.
          2   -1    0    0  501    0  0.00000000000E+00 -0.00000000000E+00 -0.10117179922E+04  0.10117179922E+04  0.25500000000E-02 0.  1.
    5000001    1    1    2    0    0  0.84725114675E+02 -0.14482765719E+03 -0.51964161101E+03  0.57751605973E+03  0.18800000000E+03 0.  0.
   -5000001    1    1    2    0    0 -0.84725114675E+02  0.14482765719E+03 -0.42886360789E+03  0.49741470577E+03  0.18800000000E+03 0.  0.
<mgrwt>
<rscale>  0 0.50578059E+03</rscale>
<asrwt>0</asrwt>
<pdfrwt beam="1">  1        2 0.14453113E+00 0.50578059E+03</pdfrwt>
<pdfrwt beam="2">  1       -2 0.90303968E-02 0.50578059E+03</pdfrwt>
<totfact> 0.22422590E+03</totfact>
</mgrwt>
</event>
<event>
 4    1  0.5917727E-005  0.5251160E+03  0.7818608E-02  0.1007424E+00
          2   -1    0    0  501    0  0.00000000000E+00  0.00000000000E+00  0.12569790553E+04  0.12569790553E+04  0.25500000000E-02 0.  1.
         -2   -1    0    0    0  501 -0.00000000000E+00 -0.00000000000E+00 -0.54843152664E+02  0.54843152724E+02  0.25500000000E-02 0. -1.
    5000001    1    1    2    0    0 -0.16807654217E+03  0.27774486856E+02  0.43215949068E+03  0.50112570432E+03  0.18800000000E+03 0.  0.
   -5000001    1    1    2    0    0  0.16807654217E+03 -0.27774486856E+02  0.76997641199E+03  0.81069650374E+03  0.18800000000E+03 0.  0.
<mgrwt>
<rscale>  0 0.52511597E+03</rscale>
<asrwt>0</asrwt>
<pdfrwt beam="1">  1        2 0.17956846E+00 0.52511597E+03</pdfrwt>
<pdfrwt beam="2">  1       -2 0.78347349E-02 0.52511597E+03</pdfrwt>
<totfact> 0.20353359E+03</totfact>
</mgrwt>
</event>
<event>
 4    1  0.5917727E-005  0.7142805E+03  0.7818608E-02  0.9693117E-01
          2   -1    0    0  501    0  0.00000000000E+00  0.00000000000E+00  0.78273053567E+02  0.78273053609E+02  0.25500000000E-02 0.  1.
         -2   -1    0    0    0  501 -0.00000000000E+00 -0.00000000000E+00 -0.16295412741E+04  0.16295412741E+04  0.25500000000E-02 0. -1.
    5000001    1    1    2    0    0  0.30078446580E+03 -0.12803880310E+02 -0.87036966095E+03  0.93995881873E+03  0.18800000000E+03 0.  0.
   -5000001    1    1    2    0    0 -0.30078446580E+03  0.12803880310E+02 -0.68089855957E+03  0.76785550896E+03  0.18800000000E+03 0.  0.
<mgrwt>
<rscale>  0 0.71428054E+03</rscale>
<asrwt>0</asrwt>
<pdfrwt beam="1">  1        2 0.11181866E-01 0.71428054E+03</pdfrwt>
<pdfrwt beam="2">  1       -2 0.23279159E+00 0.71428054E+03</pdfrwt>
<totfact> 0.48655589E+01</totfact>
</mgrwt>
</event>
<event>
 4    1  0.5917727E-005  0.5754893E+03  0.7818608E-02  0.9957605E-01
          2   -1    0    0  501    0  0.00000000000E+00  0.00000000000E+00  0.20568261153E+04  0.20568261153E+04  0.25500000000E-02 0.  1.
         -2   -1    0    0    0  501 -0.00000000000E+00 -0.00000000000E+00 -0.40254726919E+02  0.40254727000E+02  0.25500000000E-02 0. -1.
    5000001    1    1    2    0    0  0.11275071900E+03  0.10314010022E+03  0.15740138699E+04  0.15925496123E+04  0.18800000000E+03 0.  0.
   -5000001    1    1    2    0    0 -0.11275071900E+03 -0.10314010022E+03  0.44255751845E+03  0.50453123000E+03  0.18800000000E+03 0.  0.
<mgrwt>
<rscale>  0 0.57548927E+03</rscale>
<asrwt>0</asrwt>
<pdfrwt beam="1">  1        2 0.29383228E+00 0.57548927E+03</pdfrwt>
<pdfrwt beam="2">  1       -2 0.57506757E-02 0.57548927E+03</pdfrwt>
<totfact> 0.12821363E+03</totfact>
</mgrwt>
</event>
<event>
 4    1  0.5917727E-005  0.6263076E+03  0.7818608E-02  0.9852281E-01
          2   -1    0    0  501    0  0.00000000000E+00  0.00000000000E+00  0.86507023365E+03  0.86507023366E+03  0.25500000000E-02 0.  1.
         -2   -1    0    0    0  501 -0.00000000000E+00 -0.00000000000E+00 -0.11336107234E+03  0.11336107237E+03  0.25500000000E-02 0. -1.
    5000001    1    1    2    0    0 -0.88995203848E+02  0.17450128462E+03  0.13207566787E+03  0.30192520048E+03  0.18800000000E+03 0.  0.
   -5000001    1    1    2    0    0  0.88995203848E+02 -0.17450128462E+03  0.61963349345E+03  0.67650610555E+03  0.18800000000E+03 0.  0.
<mgrwt>
<rscale>  0 0.62630756E+03</rscale>
<asrwt>0</asrwt>
<pdfrwt beam="1">  1        2 0.12358146E+00 0.62630756E+03</pdfrwt>
<pdfrwt beam="2">  1       -2 0.16194439E-01 0.62630756E+03</pdfrwt>
<totfact> 0.10582261E+03</totfact>
</mgrwt>
</event>
<event>
 4    1  0.5917727E-005  0.7101328E+03  0.7818608E-02  0.9700059E-01
          2   -1    0    0  501    0  0.00000000000E+00  0.00000000000E+00  0.27766910792E+04  0.27766910792E+04  0.25500000000E-02 0.  1.
         -2   -1    0    0    0  501 -0.00000000000E+00 -0.00000000000E+00 -0.45403740251E+02  0.45403740323E+02  0.25500000000E-02 0. -1.
    5000001    1    1    2    0    0  0.25772534929E+03  0.92454361150E+02  0.18645080566E+04  0.18938596721E+04  0.18800000000E+03 0.  0.
   -5000001    1    1    2    0    0 -0.25772534929E+03 -0.92454361150E+02  0.86677928231E+03  0.92823514737E+03  0.18800000000E+03 0.  0.
<mgrwt>
<rscale>  0 0.71013283E+03</rscale>
<asrwt>0</asrwt>
<pdfrwt beam="1">  1        2 0.39667021E+00 0.71013283E+03</pdfrwt>
<pdfrwt beam="2">  1       -2 0.64862477E-02 0.71013283E+03</pdfrwt>
<totfact> 0.44936657E+02</totfact>
</mgrwt>
</event>
<event>
 4    1  0.5917727E-005  0.7240621E+03  0.7818608E-02  0.9676945E-01
         -2   -1    0    0    0  501 -0.00000000000E+00  0.00000000000E+00  0.16319640377E+03  0.16319640379E+03  0.25500000000E-02 0. -1.
          2   -1    0    0  501    0  0.00000000000E+00 -0.00000000000E+00 -0.80312116842E+03  0.80312116842E+03  0.25500000000E-02 0.  1.
    5000001    1    1    2    0    0 -0.30815747471E+02 -0.26049845746E+03 -0.10102063652E+03  0.33816893062E+03  0.18800000000E+03 0.  0.
   -5000001    1    1    2    0    0  0.30815747471E+02  0.26049845746E+03 -0.53890412812E+03  0.62814864160E+03  0.18800000000E+03 0.  0.
<mgrwt>
<rscale>  0 0.72406211E+03</rscale>
<asrwt>0</asrwt>
<pdfrwt beam="1">  1        2 0.11473159E+00 0.72406211E+03</pdfrwt>
<pdfrwt beam="2">  1       -2 0.23313772E-01 0.72406211E+03</pdfrwt>
<totfact> 0.61686894E+02</totfact>
</mgrwt>
</event>
<event>
 4    1  0.5917727E-005  0.5934999E+03  0.7818608E-02  0.9918984E-01
          2   -1    0    0  501    0  0.00000000000E+00  0.00000000000E+00  0.83120963638E+03  0.83120963639E+03  0.25500000000E-02 0. -1.
         -2   -1    0    0    0  501 -0.00000000000E+00 -0.00000000000E+00 -0.10594262865E+03  0.10594262868E+03  0.25500000000E-02 0.  1.
    5000001    1    1    2    0    0 -0.19340052491E+03 -0.12300790324E+03  0.38392558754E+03  0.48505418673E+03  0.18800000000E+03 0.  0.
   -5000001    1    1    2    0    0  0.19340052491E+03  0.12300790324E+03  0.34134142019E+03  0.45209807833E+03  0.18800000000E+03 0.  0.
<mgrwt>
<rscale>  0 0.59349990E+03</rscale>
<asrwt>0</asrwt>
<pdfrwt beam="1">  1        2 0.11874424E+00 0.59349990E+03</pdfrwt>
<pdfrwt beam="2">  1       -2 0.15134661E-01 0.59349990E+03</pdfrwt>
<totfact> 0.12509372E+03</totfact>
</mgrwt>
</event>
<event>
 4    1  0.5917727E-005  0.6301337E+03  0.7818608E-02  0.9844788E-01
         -2   -1    0    0    0  501 -0.00000000000E+00  0.00000000000E+00  0.32823664166E+02  0.32823664265E+02  0.25500000000E-02 0.  1.
          2   -1    0    0  501    0  0.00000000000E+00 -0.00000000000E+00 -0.30242548840E+04  0.30242548840E+04  0.25500000000E-02 0. -1.
    5000001    1    1    2    0    0  0.19683160225E+03  0.14660125574E+03 -0.12010700591E+04  0.12402209056E+04  0.18800000000E+03 0.  0.
   -5000001    1    1    2    0    0 -0.19683160225E+03 -0.14660125574E+03 -0.17903611608E+04  0.18168576427E+04  0.18800000000E+03 0.  0.
<mgrwt>
<rscale>  0 0.63013372E+03</rscale>
<asrwt>0</asrwt>
<pdfrwt beam="1">  1        2 0.43203624E+00 0.63013372E+03</pdfrwt>
<pdfrwt beam="2">  1       -2 0.46890968E-02 0.63013372E+03</pdfrwt>
<totfact> 0.55301764E+02</totfact>
</mgrwt>
</event>
<event>
 4    1  0.5917727E-005  0.5630808E+03  0.7818608E-02  0.9985108E-01
         -2   -1    0    0    0  501 -0.00000000000E+00  0.00000000000E+00  0.12915134592E+03  0.12915134595E+03  0.25500000000E-02 0. -1.
          2   -1    0    0  501    0  0.00000000000E+00 -0.00000000000E+00 -0.61373721601E+03  0.61373721602E+03  0.25500000000E-02 0.  1.
    5000001    1    1    2    0    0  0.13332397369E+03  0.17696939831E+02 -0.30243852434E+02  0.23312476113E+03  0.18800000000E+03 0.  0.
   -5000001    1    1    2    0    0 -0.13332397369E+03 -0.17696939831E+02 -0.45434201766E+03  0.50976380084E+03  0.18800000000E+03 0.  0.
<mgrwt>
<rscale>  0 0.56308077E+03</rscale>
<asrwt>0</asrwt>
<pdfrwt beam="1">  1        2 0.87676744E-01 0.56308077E+03</pdfrwt>
<pdfrwt beam="2">  1       -2 0.18450193E-01 0.56308077E+03</pdfrwt>
<totfact> 0.12978879E+03</totfact>
</mgrwt>
</event>
<event>
 4    1  0.5917727E-005  0.4763263E+03  0.7818608E-02  0.1020150E+00
          2   -1    0    0  501    0  0.00000000000E+00  0.00000000000E+00  0.72841077062E+03  0.72841077063E+03  0.25500000000E-02 0.  1.
         -2   -1    0    0    0  501 -0.00000000000E+00 -0.00000000000E+00 -0.77870452049E+02  0.77870452090E+02  0.25500000000E-02 0. -1.
    5000001    1    1    2    0    0  0.11980185180E+03  0.78059160282E+02  0.37694517456E+03  0.44483410484E+03  0.18800000000E+03 0.  0.
   -5000001    1    1    2    0    0 -0.11980185180E+03 -0.78059160282E+02  0.27359514401E+03  0.36144711788E+03  0.18800000000E+03 0.  0.
<mgrwt>
<rscale>  0 0.47632626E+03</rscale>
<asrwt>0</asrwt>
<pdfrwt beam="1">  1        2 0.10405869E+00 0.47632626E+03</pdfrwt>
<pdfrwt beam="2">  1       -2 0.11124350E-01 0.47632626E+03</pdfrwt>
<totfact> 0.24597760E+03</totfact>
</mgrwt>
</event>
<event>
 4    1  0.5917727E-005  0.6252995E+03  0.7818608E-02  0.9854265E-01
          2   -1    0    0  501    0  0.00000000000E+00  0.00000000000E+00  0.11244723434E+04  0.11244723434E+04  0.25500000000E-02 0.  1.
         -2   -1    0    0    0  501 -0.00000000000E+00 -0.00000000000E+00 -0.86929542149E+02  0.86929542186E+02  0.25500000000E-02 0. -1.
    5000001    1    1    2    0    0 -0.21883985908E+03 -0.12046513331E+03  0.52220090409E+03  0.60863824764E+03  0.18800000000E+03 0.  0.
   -5000001    1    1    2    0    0  0.21883985908E+03  0.12046513331E+03  0.51534189721E+03  0.60276363799E+03  0.18800000000E+03 0.  0.
<mgrwt>
<rscale>  0 0.62529950E+03</rscale>
<asrwt>0</asrwt>
<pdfrwt beam="1">  1        2 0.16063890E+00 0.62529950E+03</pdfrwt>
<pdfrwt beam="2">  1       -2 0.12418507E-01 0.62529950E+03</pdfrwt>
<totfact> 0.11438603E+03</totfact>
</mgrwt>
</event>
<event>
 4    1  0.5917727E-005  0.1841793E+04  0.7818608E-02  0.8684385E-01
          2   -1    0    0  501    0  0.00000000000E+00  0.00000000000E+00  0.30519881055E+04  0.30519881055E+04  0.25500000000E-02 0.  1.
         -2   -1    0    0    0  501 -0.00000000000E+00 -0.00000000000E+00 -0.27786803422E+03  0.27786803423E+03  0.25500000000E-02 0. -1.
    5000001    1    1    2    0    0 -0.31547324195E+02 -0.40280327140E+03 -0.69944965266E+02  0.45108979957E+03  0.18800000000E+03 0.  0.
   -5000001    1    1    2    0    0  0.31547324195E+02  0.40280327140E+03  0.28440650365E+04  0.28787663401E+04  0.18800000000E+03 0.  0.
<mgrwt>
<rscale>  0 0.18417925E+04</rscale>
<asrwt>0</asrwt>
<pdfrwt beam="1">  1        2 0.43599828E+00 0.18417925E+04</pdfrwt>
<pdfrwt beam="2">  1       -2 0.39695435E-01 0.18417925E+04</pdfrwt>
<totfact> 0.12517269E+01</totfact>
</mgrwt>
</event>
<event>
 4    1  0.5917727E-005  0.1130957E+04  0.7818608E-02  0.9175534E-01
         -2   -1    0    0    0  501 -0.00000000000E+00  0.00000000000E+00  0.14742070110E+03  0.14742070112E+03  0.25500000000E-02 0. -1.
          2   -1    0    0  501    0  0.00000000000E+00 -0.00000000000E+00 -0.21690706720E+04  0.21690706720E+04  0.25500000000E-02 0.  1.
    5000001    1    1    2    0    0  0.43747457439E+03  0.15836565953E+03 -0.47686877020E+03  0.69225104504E+03  0.18800000000E+03 0.  0.
   -5000001    1    1    2    0    0 -0.43747457439E+03 -0.15836565953E+03 -0.15447812007E+04  0.16242403281E+04  0.18800000000E+03 0.  0.
<mgrwt>
<rscale>  0 0.11309570E+04</rscale>
<asrwt>0</asrwt>
<pdfrwt beam="1">  1        2 0.30986722E+00 0.11309570E+04</pdfrwt>
<pdfrwt beam="2">  1       -2 0.21060101E-01 0.11309570E+04</pdfrwt>
<totfact> 0.12715644E+02</totfact>
</mgrwt>
</event>
<event>
 4    1  0.5917727E-005  0.5744282E+03  0.7818608E-02  0.9959927E-01
         -2   -1    0    0    0  501 -0.00000000000E+00  0.00000000000E+00  0.45157086508E+02  0.45157086580E+02  0.25500000000E-02 0. -1.
          2   -1    0    0  501    0  0.00000000000E+00 -0.00000000000E+00 -0.18267770909E+04  0.18267770909E+04  0.25500000000E-02 0.  1.
    5000001    1    1    2    0    0 -0.63754913632E+02  0.25112034005E+02 -0.15622498818E+04  0.15750123798E+04  0.18800000000E+03 0.  0.
   -5000001    1    1    2    0    0  0.63754913632E+02 -0.25112034005E+02 -0.21937012257E+03  0.29692179769E+03  0.18800000000E+03 0.  0.
<mgrwt>
<rscale>  0 0.57442817E+03</rscale>
<asrwt>0</asrwt>
<pdfrwt beam="1">  1        2 0.26096811E+00 0.57442817E+03</pdfrwt>
<pdfrwt beam="2">  1       -2 0.64510135E-02 0.57442817E+03</pdfrwt>
<totfact> 0.13972914E+03</totfact>
</mgrwt>
</event>
<event>
 4    1  0.5917727E-005  0.6086543E+03  0.7818608E-02  0.9887612E-01
          2   -1    0    0  501    0  0.00000000000E+00  0.00000000000E+00  0.26770936600E+04  0.26770936600E+04  0.25500000000E-02 0.  1.
         -2   -1    0    0    0  501 -0.00000000000E+00 -0.00000000000E+00 -0.34595357974E+02  0.34595358068E+02  0.25500000000E-02 0. -1.
    5000001    1    1    2    0    0  0.45643876209E+02  0.23344424040E+03  0.12040983025E+04  0.12416828496E+04  0.18800000000E+03 0.  0.
   -5000001    1    1    2    0    0 -0.45643876209E+02 -0.23344424040E+03  0.14383999995E+04  0.14700061685E+04  0.18800000000E+03 0.  0.
<mgrwt>
<rscale>  0 0.60865430E+03</rscale>
<asrwt>0</asrwt>
<pdfrwt beam="1">  1        2 0.38244206E+00 0.60865430E+03</pdfrwt>
<pdfrwt beam="2">  1       -2 0.49421926E-02 0.60865430E+03</pdfrwt>
<totfact> 0.78250960E+02</totfact>
</mgrwt>
</event>
<event>
 4    1  0.5917727E-005  0.4101623E+03  0.7818608E-02  0.1040317E+00
          2   -1    0    0  501    0  0.00000000000E+00  0.00000000000E+00  0.91936454268E+03  0.91936454268E+03  0.25500000000E-02 0.  1.
         -2   -1    0    0    0  501 -0.00000000000E+00 -0.00000000000E+00 -0.45747106806E+02  0.45747106877E+02  0.25500000000E-02 0. -1.
    5000001    1    1    2    0    0 -0.72749929616E+02  0.37484151109E+02  0.44641118256E+03  0.49124795955E+03  0.18800000000E+03 0.  0.
   -5000001    1    1    2    0    0  0.72749929616E+02 -0.37484151109E+02  0.42720625331E+03  0.47386369001E+03  0.18800000000E+03 0.  0.
<mgrwt>
<rscale>  0 0.41016225E+03</rscale>
<asrwt>0</asrwt>
<pdfrwt beam="1">  1        2 0.13133779E+00 0.41016225E+03</pdfrwt>
<pdfrwt beam="2">  1       -2 0.65353011E-02 0.41016225E+03</pdfrwt>
<totfact> 0.42541047E+03</totfact>
</mgrwt>
</event>
<event>
 4    1  0.5917727E-005  0.6487911E+03  0.7818608E-02  0.9809050E-01
         -2   -1    0    0    0  501 -0.00000000000E+00  0.00000000000E+00  0.93172378021E+02  0.93172378056E+02  0.25500000000E-02 0. -1.
          2   -1    0    0  501    0  0.00000000000E+00 -0.00000000000E+00 -0.11294385237E+04  0.11294385237E+04  0.25500000000E-02 0.  1.
    5000001    1    1    2    0    0  0.10686889806E+03 -0.52046878950E+02 -0.73154147201E+02  0.23414817581E+03  0.18800000000E+03 0.  0.
   -5000001    1    1    2    0    0 -0.10686889806E+03  0.52046878950E+02 -0.96311199843E+03  0.98846272591E+03  0.18800000000E+03 0.  0.
<mgrwt>
<rscale>  0 0.64879110E+03</rscale>
<asrwt>0</asrwt>
<pdfrwt beam="1">  1        2 0.16134835E+00 0.64879110E+03</pdfrwt>
<pdfrwt beam="2">  1       -2 0.13310340E-01 0.64879110E+03</pdfrwt>
<totfact> 0.10121377E+03</totfact>
</mgrwt>
</event>
<event>
 4    1  0.5917727E-005  0.4231381E+03  0.7818608E-02  0.1036050E+00
          2   -1    0    0  501    0  0.00000000000E+00  0.00000000000E+00  0.82593077153E+03  0.82593077153E+03  0.25500000000E-02 0.  1.
         -2   -1    0    0    0  501 -0.00000000000E+00 -0.00000000000E+00 -0.54195172416E+02  0.54195172476E+02  0.25500000000E-02 0. -1.
    5000001    1    1    2    0    0 -0.75324488274E+02  0.55261091056E+02  0.44050064844E+03  0.48796760957E+03  0.18800000000E+03 0.  0.
   -5000001    1    1    2    0    0  0.75324488274E+02 -0.55261091056E+02  0.33123495068E+03  0.39215833444E+03  0.18800000000E+03 0.  0.
<mgrwt>
<rscale>  0 0.42313809E+03</rscale>
<asrwt>0</asrwt>
<pdfrwt beam="1">  1        2 0.11799010E+00 0.42313809E+03</pdfrwt>
<pdfrwt beam="2">  1       -2 0.77421682E-02 0.42313809E+03</pdfrwt>
<totfact> 0.37512865E+03</totfact>
</mgrwt>
</event>
<event>
 4    1  0.5917727E-005  0.9004317E+03  0.7818608E-02  0.9425042E-01
         -2   -1    0    0    0  501 -0.00000000000E+00  0.00000000000E+00  0.90691922660E+02  0.90691922696E+02  0.25500000000E-02 0. -1.
          2   -1    0    0  501    0  0.00000000000E+00 -0.00000000000E+00 -0.22349765148E+04  0.22349765148E+04  0.25500000000E-02 0.  1.
    5000001    1    1    2    0    0  0.15469128147E+03 -0.14179560776E+03 -0.16514739047E+03  0.32657778173E+03  0.18800000000E+03 0.  0.
   -5000001    1    1    2    0    0 -0.15469128147E+03  0.14179560776E+03 -0.19791372017E+04  0.19990906558E+04  0.18800000000E+03 0.  0.
<mgrwt>
<rscale>  0 0.90043171E+03</rscale>
<asrwt>0</asrwt>
<pdfrwt beam="1">  1        2 0.31928233E+00 0.90043171E+03</pdfrwt>
<pdfrwt beam="2">  1       -2 0.12955990E-01 0.90043171E+03</pdfrwt>
<totfact> 0.27556378E+02</totfact>
</mgrwt>
</event>
<event>
 4    1  0.5917727E-005  0.4609180E+03  0.7818608E-02  0.1024515E+00
         -2   -1    0    0    0  501 -0.00000000000E+00  0.00000000000E+00  0.27196926318E+02  0.27196926438E+02  0.25500000000E-02 0. -1.
          2   -1    0    0  501    0  0.00000000000E+00 -0.00000000000E+00 -0.19528438555E+04  0.19528438556E+04  0.25500000000E-02 0.  1.
    5000001    1    1    2    0    0  0.31696097772E+02  0.11376695621E+03 -0.12283268580E+04  0.12482301202E+04  0.18800000000E+03 0.  0.
   -5000001    1    1    2    0    0 -0.31696097772E+02 -0.11376695621E+03 -0.69732007125E+03  0.73181066178E+03  0.18800000000E+03 0.  0.
<mgrwt>
<rscale>  0 0.46091800E+03</rscale>
<asrwt>0</asrwt>
<pdfrwt beam="1">  1        2 0.27897761E+00 0.46091800E+03</pdfrwt>
<pdfrwt beam="2">  1       -2 0.38852764E-02 0.46091800E+03</pdfrwt>
<totfact> 0.26589589E+03</totfact>
</mgrwt>
</event>
<event>
 4    1  0.5917727E-005  0.5553725E+03  0.7818608E-02  0.1000258E+00
          2   -1    0    0  501    0  0.00000000000E+00  0.00000000000E+00  0.12111268087E+04  0.12111268087E+04  0.25500000000E-02 0.  1.
         -2   -1    0    0    0  501 -0.00000000000E+00 -0.00000000000E+00 -0.63667685141E+02  0.63667685192E+02  0.25500000000E-02 0. -1.
    5000001    1    1    2    0    0  0.18122923227E+03 -0.31299519729E+02  0.77828889705E+03  0.82152376827E+03  0.18800000000E+03 0.  0.
   -5000001    1    1    2    0    0 -0.18122923227E+03  0.31299519729E+02  0.36917022651E+03  0.45327072563E+03  0.18800000000E+03 0.  0.
<mgrwt>
<rscale>  0 0.55537245E+03</rscale>
<asrwt>0</asrwt>
<pdfrwt beam="1">  1        2 0.17301811E+00 0.55537245E+03</pdfrwt>
<pdfrwt beam="2">  1       -2 0.90953839E-02 0.55537245E+03</pdfrwt>
<totfact> 0.16993701E+03</totfact>
</mgrwt>
</event>
<event>
 4    1  0.5917727E-005  0.1048395E+04  0.7818608E-02  0.9257003E-01
          2   -1    0    0  501    0  0.00000000000E+00  0.00000000000E+00  0.73304079576E+03  0.73304079577E+03  0.25500000000E-02 0.  1.
         -2   -1    0    0    0  501 -0.00000000000E+00 -0.00000000000E+00 -0.37485351852E+03  0.37485351853E+03  0.25500000000E-02 0. -1.
    5000001    1    1    2    0    0  0.11171619472E+02  0.44490137375E+03  0.39405101902E+03  0.62344385716E+03  0.18800000000E+03 0.  0.
   -5000001    1    1    2    0    0 -0.11171619472E+02 -0.44490137375E+03 -0.35863741774E+02  0.48445045713E+03  0.18800000000E+03 0.  0.
<mgrwt>
<rscale>  0 0.10483948E+04</rscale>
<asrwt>0</asrwt>
<pdfrwt beam="1">  1        2 0.10472011E+00 0.10483948E+04</pdfrwt>
<pdfrwt beam="2">  1       -2 0.53550502E-01 0.10483948E+04</pdfrwt>
<totfact> 0.13906995E+02</totfact>
</mgrwt>
</event>
<event>
 4    1  0.5917727E-005  0.9688611E+03  0.7818608E-02  0.9343372E-01
         -2   -1    0    0    0  501 -0.00000000000E+00  0.00000000000E+00  0.12398285607E+03  0.12398285609E+03  0.25500000000E-02 0. -1.
          2   -1    0    0  501    0  0.00000000000E+00 -0.00000000000E+00 -0.18927856443E+04  0.18927856443E+04  0.25500000000E-02 0.  1.
    5000001    1    1    2    0    0 -0.36813006619E+03  0.25241804712E+03 -0.90462109116E+03  0.10261178951E+04  0.18800000000E+03 0.  0.
   -5000001    1    1    2    0    0  0.36813006619E+03 -0.25241804712E+03 -0.86418169712E+03  0.99065060530E+03  0.18800000000E+03 0.  0.
<mgrwt>
<rscale>  0 0.96886113E+03</rscale>
<asrwt>0</asrwt>
<pdfrwt beam="1">  1        2 0.27039793E+00 0.96886113E+03</pdfrwt>
<pdfrwt beam="2">  1       -2 0.17711838E-01 0.96886113E+03</pdfrwt>
<totfact> 0.24097646E+02</totfact>
</mgrwt>
</event>
<event>
 4    1  0.5917727E-005  0.7047968E+03  0.7818608E-02  0.9709064E-01
          2   -1    0    0  501    0  0.00000000000E+00  0.00000000000E+00  0.15754123348E+04  0.15754123349E+04  0.25500000000E-02 0.  1.
         -2   -1    0    0    0  501 -0.00000000000E+00 -0.00000000000E+00 -0.78826755459E+02  0.78826755500E+02  0.25500000000E-02 0. -1.
    5000001    1    1    2    0    0  0.18145050474E+02  0.26154112099E+03  0.10811169999E+04  0.11282246976E+04  0.18800000000E+03 0.  0.
   -5000001    1    1    2    0    0 -0.18145050474E+02 -0.26154112099E+03  0.41546857948E+03  0.52601439273E+03  0.18800000000E+03 0.  0.
<mgrwt>
<rscale>  0 0.70479683E+03</rscale>
<asrwt>0</asrwt>
<pdfrwt beam="1">  1        2 0.22505888E+00 0.70479683E+03</pdfrwt>
<pdfrwt beam="2">  1       -2 0.11260966E-01 0.70479683E+03</pdfrwt>
<totfact> 0.76331339E+02</totfact>
</mgrwt>
</event>
<event>
 4    1  0.5917727E-005  0.5838069E+03  0.7818608E-02  0.9939583E-01
          2   -1    0    0  501    0  0.00000000000E+00  0.00000000000E+00  0.28768301989E+04  0.28768301989E+04  0.25500000000E-02 0.  1.
         -2   -1    0    0    0  501 -0.00000000000E+00 -0.00000000000E+00 -0.29618574616E+02  0.29618574725E+02  0.25500000000E-02 0. -1.
    5000001    1    1    2    0    0 -0.61522972555E+02 -0.15435539356E+03  0.21662610458E+04  0.21807433554E+04  0.18800000000E+03 0.  0.
   -5000001    1    1    2    0    0  0.61522972555E+02  0.15435539356E+03  0.68095057853E+03  0.72570541824E+03  0.18800000000E+03 0.  0.
<mgrwt>
<rscale>  0 0.58380685E+03</rscale>
<asrwt>0</asrwt>
<pdfrwt beam="1">  1        2 0.41097556E+00 0.58380685E+03</pdfrwt>
<pdfrwt beam="2">  1       -2 0.42312268E-02 0.58380685E+03</pdfrwt>
<totfact> 0.78191804E+02</totfact>
</mgrwt>
</event>
<event>
 4    1  0.5917727E-005  0.5198017E+03  0.7818608E-02  0.1008736E+00
          2   -1    0    0  501    0  0.00000000000E+00  0.00000000000E+00  0.24665226695E+04  0.24665226695E+04  0.25500000000E-02 0.  1.
         -2   -1    0    0    0  501 -0.00000000000E+00 -0.00000000000E+00 -0.27386106079E+02  0.27386106198E+02  0.25500000000E-02 0. -1.
    5000001    1    1    2    0    0 -0.14107255367E+03  0.95907440361E+02  0.95223309528E+03  0.98549052266E+03  0.18800000000E+03 0.  0.
   -5000001    1    1    2    0    0  0.14107255367E+03 -0.95907440361E+02  0.14869034681E+04  0.15084182530E+04  0.18800000000E+03 0.  0.
<mgrwt>
<rscale>  0 0.51980170E+03</rscale>
<asrwt>0</asrwt>
<pdfrwt beam="1">  1        2 0.35236045E+00 0.51980170E+03</pdfrwt>
<pdfrwt beam="2">  1       -2 0.39123002E-02 0.51980170E+03</pdfrwt>
<totfact> 0.14496076E+03</totfact>
</mgrwt>
</event>
<event>
 4    1  0.5917727E-005  0.1053174E+04  0.7818608E-02  0.9252074E-01
         -2   -1    0    0    0  501 -0.00000000000E+00  0.00000000000E+00  0.18032579385E+03  0.18032579387E+03  0.25500000000E-02 0. -1.
          2   -1    0    0  501    0  0.00000000000E+00 -0.00000000000E+00 -0.15377371857E+04  0.15377371857E+04  0.25500000000E-02 0.  1.
    5000001    1    1    2    0    0  0.81144734315E+02  0.46657589055E+03 -0.46184353336E+03  0.68769250313E+03  0.18800000000E+03 0.  0.
   -5000001    1    1    2    0    0 -0.81144734315E+02 -0.46657589055E+03 -0.89556785849E+03  0.10303704764E+04  0.18800000000E+03 0.  0.
<mgrwt>
<rscale>  0 0.10531736E+04</rscale>
<asrwt>0</asrwt>
<pdfrwt beam="1">  1        2 0.21967674E+00 0.10531736E+04</pdfrwt>
<pdfrwt beam="2">  1       -2 0.25760828E-01 0.10531736E+04</pdfrwt>
<totfact> 0.18839072E+02</totfact>
</mgrwt>
</event>
<event>
 4    1  0.5917727E-005  0.5806496E+03  0.7818608E-02  0.9946386E-01
          2   -1    0    0  501    0  0.00000000000E+00  0.00000000000E+00  0.94798997963E+03  0.94798997963E+03  0.25500000000E-02 0.  1.
         -2   -1    0    0    0  501 -0.00000000000E+00 -0.00000000000E+00 -0.88912850024E+02  0.88912850060E+02  0.25500000000E-02 0. -1.
    5000001    1    1    2    0    0  0.11651385719E+03 -0.17290165674E+03  0.56166127542E+03  0.62791548008E+03  0.18800000000E+03 0.  0.
   -5000001    1    1    2    0    0 -0.11651385719E+03  0.17290165674E+03  0.29741585418E+03  0.40898734961E+03  0.18800000000E+03 0.  0.
<mgrwt>
<rscale>  0 0.58064960E+03</rscale>
<asrwt>0</asrwt>
<pdfrwt beam="1">  1        2 0.13542714E+00 0.58064960E+03</pdfrwt>
<pdfrwt beam="2">  1       -2 0.12701835E-01 0.58064960E+03</pdfrwt>
<totfact> 0.14074428E+03</totfact>
</mgrwt>
</event>
<event>
 4    1  0.5917727E-005  0.1044441E+04  0.7818608E-02  0.9261102E-01
          2   -1    0    0  501    0  0.00000000000E+00  0.00000000000E+00  0.10201685658E+04  0.10201685658E+04  0.25500000000E-02 0. -1.
         -2   -1    0    0    0  501 -0.00000000000E+00 -0.00000000000E+00 -0.26732277235E+03  0.26732277236E+03  0.25500000000E-02 0.  1.
    5000001    1    1    2    0    0 -0.21806090940E+03  0.31726987982E+03  0.83411229605E+01  0.42851407349E+03  0.18800000000E+03 0.  0.
   -5000001    1    1    2    0    0  0.21806090940E+03 -0.31726987982E+03  0.74450467052E+03  0.85897726470E+03  0.18800000000E+03 0.  0.
<mgrwt>
<rscale>  0 0.10444411E+04</rscale>
<asrwt>0</asrwt>
<pdfrwt beam="1">  1        2 0.14573837E+00 0.10444411E+04</pdfrwt>
<pdfrwt beam="2">  1       -2 0.38188968E-01 0.10444411E+04</pdfrwt>
<totfact> 0.17570404E+02</totfact>
</mgrwt>
</event>
<event>
 4    1  0.5917727E-005  0.9629004E+03  0.7818608E-02  0.9350198E-01
         -2   -1    0    0    0  501 -0.00000000000E+00  0.00000000000E+00  0.49235571559E+03  0.49235571560E+03  0.25500000000E-02 0. -1.
          2   -1    0    0  501    0  0.00000000000E+00 -0.00000000000E+00 -0.47078619991E+03  0.47078619992E+03  0.25500000000E-02 0.  1.
    5000001    1    1    2    0    0  0.22425494650E+03  0.36161582252E+03  0.13488841092E+03  0.48435025295E+03  0.18800000000E+03 0.  0.
   -5000001    1    1    2    0    0 -0.22425494650E+03 -0.36161582252E+03 -0.11331889524E+03  0.47879166257E+03  0.18800000000E+03 0.  0.
<mgrwt>
<rscale>  0 0.96290036E+03</rscale>
<asrwt>0</asrwt>
<pdfrwt beam="1">  1        2 0.67255171E-01 0.96290036E+03</pdfrwt>
<pdfrwt beam="2">  1       -2 0.70336531E-01 0.96290036E+03</pdfrwt>
<totfact> 0.13247052E+02</totfact>
</mgrwt>
</event>
<event>
 4    1  0.5917727E-005  0.4534656E+03  0.7818608E-02  0.1026694E+00
         -2   -1    0    0    0  501 -0.00000000000E+00  0.00000000000E+00  0.13700507763E+03  0.13700507765E+03  0.25500000000E-02 0. -1.
          2   -1    0    0  501    0  0.00000000000E+00 -0.00000000000E+00 -0.37522530201E+03  0.37522530202E+03  0.25500000000E-02 0.  1.
    5000001    1    1    2    0    0 -0.75894590230E+02  0.95483712724E+02 -0.15802188919E+03  0.27421168043E+03  0.18800000000E+03 0.  0.
   -5000001    1    1    2    0    0  0.75894590230E+02 -0.95483712724E+02 -0.80198335188E+02  0.23801869924E+03  0.18800000000E+03 0.  0.
<mgrwt>
<rscale>  0 0.45346564E+03</rscale>
<asrwt>0</asrwt>
<pdfrwt beam="1">  1        2 0.53603614E-01 0.45346564E+03</pdfrwt>
<pdfrwt beam="2">  1       -2 0.19572154E-01 0.45346564E+03</pdfrwt>
<totfact> 0.20425904E+03</totfact>
</mgrwt>
</event>
<event>
 4    1  0.5917727E-005  0.4532800E+03  0.7818608E-02  0.1026748E+00
          2   -1    0    0  501    0  0.00000000000E+00  0.00000000000E+00  0.86866077845E+03  0.86866077846E+03  0.25500000000E-02 0.  1.
         -2   -1    0    0    0  501 -0.00000000000E+00 -0.00000000000E+00 -0.59132055763E+02  0.59132055818E+02  0.25500000000E-02 0. -1.
    5000001    1    1    2    0    0 -0.10289776708E+03 -0.73711290812E+02  0.40604712045E+03  0.46501566521E+03  0.18800000000E+03 0.  0.
   -5000001    1    1    2    0    0  0.10289776708E+03  0.73711290812E+02  0.40348160224E+03  0.46277716907E+03  0.18800000000E+03 0.  0.
<mgrwt>
<rscale>  0 0.45328004E+03</rscale>
<asrwt>0</asrwt>
<pdfrwt beam="1">  1        2 0.12409439E+00 0.45328004E+03</pdfrwt>
<pdfrwt beam="2">  1       -2 0.84474373E-02 0.45328004E+03</pdfrwt>
<totfact> 0.30637704E+03</totfact>
</mgrwt>
</event>
<event>
 4    1  0.5917727E-005  0.4788483E+03  0.7818608E-02  0.1019452E+00
          2   -1    0    0  501    0  0.00000000000E+00  0.00000000000E+00  0.60641072494E+03  0.60641072494E+03  0.25500000000E-02 0.  1.
         -2   -1    0    0    0  501 -0.00000000000E+00 -0.00000000000E+00 -0.94529861958E+02  0.94529861993E+02  0.25500000000E-02 0. -1.
    5000001    1    1    2    0    0  0.79689032405E-01  0.13609915996E+03  0.34200587979E+03  0.41332191994E+03  0.18800000000E+03 0.  0.
   -5000001    1    1    2    0    0 -0.79689032405E-01 -0.13609915996E+03  0.16987498319E+03  0.28761866700E+03  0.18800000000E+03 0.  0.
<mgrwt>
<rscale>  0 0.47884829E+03</rscale>
<asrwt>0</asrwt>
<pdfrwt beam="1">  1        2 0.86630105E-01 0.47884829E+03</pdfrwt>
<pdfrwt beam="2">  1       -2 0.13504266E-01 0.47884829E+03</pdfrwt>
<totfact> 0.22286833E+03</totfact>
</mgrwt>
</event>
<event>
 4    1  0.5917727E-005  0.4479006E+03  0.7818608E-02  0.1028350E+00
          2   -1    0    0  501    0  0.00000000000E+00  0.00000000000E+00  0.12164102513E+04  0.12164102513E+04  0.25500000000E-02 0.  1.
         -2   -1    0    0    0  501 -0.00000000000E+00 -0.00000000000E+00 -0.41230939172E+02  0.41230939251E+02  0.25500000000E-02 0. -1.
    5000001    1    1    2    0    0 -0.22025670500E+02  0.11939447821E+03  0.61100886395E+03  0.65070423651E+03  0.18800000000E+03 0.  0.
   -5000001    1    1    2    0    0  0.22025670500E+02 -0.11939447821E+03  0.56417044822E+03  0.60693695409E+03  0.18800000000E+03 0.  0.
<mgrwt>
<rscale>  0 0.44790060E+03</rscale>
<asrwt>0</asrwt>
<pdfrwt beam="1">  1        2 0.17377291E+00 0.44790060E+03</pdfrwt>
<pdfrwt beam="2">  1       -2 0.58901336E-02 0.44790060E+03</pdfrwt>
<totfact> 0.33544988E+03</totfact>
</mgrwt>
</event>
<event>
 4    1  0.5917727E-005  0.4753344E+03  0.7818608E-02  0.1020425E+00
          2   -1    0    0  501    0  0.00000000000E+00  0.00000000000E+00  0.26655158205E+04  0.26655158205E+04  0.25500000000E-02 0.  1.
         -2   -1    0    0    0  501 -0.00000000000E+00 -0.00000000000E+00 -0.21191278928E+02  0.21191279082E+02  0.25500000000E-02 0. -1.
    5000001    1    1    2    0    0  0.29118918385E+02 -0.13071944714E+03  0.16422114357E+04  0.16583539684E+04  0.18800000000E+03 0.  0.
   -5000001    1    1    2    0    0 -0.29118918385E+02  0.13071944714E+03  0.10021131059E+04  0.10283531312E+04  0.18800000000E+03 0.  0.
<mgrwt>
<rscale>  0 0.47533436E+03</rscale>
<asrwt>0</asrwt>
<pdfrwt beam="1">  1        2 0.38078836E+00 0.47533436E+03</pdfrwt>
<pdfrwt beam="2">  1       -2 0.30273225E-02 0.47533436E+03</pdfrwt>
<totfact> 0.16976561E+03</totfact>
</mgrwt>
</event>
<event>
 4    1  0.5917727E-005  0.4842971E+03  0.7818608E-02  0.1017961E+00
         -2   -1    0    0    0  501 -0.00000000000E+00  0.00000000000E+00  0.16031877919E+03  0.16031877921E+03  0.25500000000E-02 0. -1.
          2   -1    0    0  501    0  0.00000000000E+00 -0.00000000000E+00 -0.36574584470E+03  0.36574584470E+03  0.25500000000E-02 0.  1.
    5000001    1    1    2    0    0 -0.12937878463E+03 -0.79764742343E+02 -0.11771169217E+03  0.26888905985E+03  0.18800000000E+03 0.  0.
   -5000001    1    1    2    0    0  0.12937878463E+03  0.79764742343E+02 -0.87715373335E+02  0.25717556406E+03  0.18800000000E+03 0.  0.
<mgrwt>
<rscale>  0 0.48429713E+03</rscale>
<asrwt>0</asrwt>
<pdfrwt beam="1">  1        2 0.52249407E-01 0.48429713E+03</pdfrwt>
<pdfrwt beam="2">  1       -2 0.22902683E-01 0.48429713E+03</pdfrwt>
<totfact> 0.15977147E+03</totfact>
</mgrwt>
</event>
<event>
 4    1  0.5917727E-005  0.5449532E+03  0.7818608E-02  0.1002669E+00
          2   -1    0    0  501    0  0.00000000000E+00  0.00000000000E+00  0.15146810308E+03  0.15146810310E+03  0.25500000000E-02 0. -1.
         -2   -1    0    0    0  501 -0.00000000000E+00 -0.00000000000E+00 -0.49015931313E+03  0.49015931314E+03  0.25500000000E-02 0.  1.
    5000001    1    1    2    0    0 -0.80125150892E+02 -0.15031025128E+03 -0.28641418912E+03  0.38260985243E+03  0.18800000000E+03 0.  0.
   -5000001    1    1    2    0    0  0.80125150892E+02  0.15031025128E+03 -0.52277020932E+02  0.25901756381E+03  0.18800000000E+03 0.  0.
<mgrwt>
<rscale>  0 0.54495321E+03</rscale>
<asrwt>0</asrwt>
<pdfrwt beam="1">  1        2 0.21638301E-01 0.54495321E+03</pdfrwt>
<pdfrwt beam="2">  1       -2 0.70022758E-01 0.54495321E+03</pdfrwt>
<totfact> 0.48547990E+02</totfact>
</mgrwt>
</event>
<event>
 4    1  0.5917727E-005  0.4515424E+03  0.7818608E-02  0.1027263E+00
          2   -1    0    0  501    0  0.00000000000E+00  0.00000000000E+00  0.13535220945E+03  0.13535220947E+03  0.25500000000E-02 0.  1.
         -2   -1    0    0    0  501 -0.00000000000E+00 -0.00000000000E+00 -0.37659262845E+03  0.37659262846E+03  0.25500000000E-02 0. -1.
    5000001    1    1    2    0    0 -0.61752965987E+01  0.12445636759E+03 -0.10921905790E+03  0.25059992883E+03  0.18800000000E+03 0.  0.
   -5000001    1    1    2    0    0  0.61752965987E+01 -0.12445636759E+03 -0.13202136110E+03  0.26134490909E+03  0.18800000000E+03 0.  0.
<mgrwt>
<rscale>  0 0.45154244E+03</rscale>
<asrwt>0</asrwt>
<pdfrwt beam="1">  1        2 0.19336030E-01 0.45154244E+03</pdfrwt>
<pdfrwt beam="2">  1       -2 0.53798947E-01 0.45154244E+03</pdfrwt>
<totfact> 0.96417993E+02</totfact>
</mgrwt>
</event>
<event>
 4    1  0.5917727E-005  0.4072349E+03  0.7818608E-02  0.1041303E+00
          2   -1    0    0  501    0  0.00000000000E+00  0.00000000000E+00  0.20074723728E+04  0.20074723728E+04  0.25500000000E-02 0.  1.
         -2   -1    0    0    0  501 -0.00000000000E+00 -0.00000000000E+00 -0.20652869024E+02  0.20652869182E+02  0.25500000000E-02 0. -1.
    5000001    1    1    2    0    0  0.40367732239E+02 -0.66044207400E+02  0.93780191358E+03  0.95958731768E+03  0.18800000000E+03 0.  0.
   -5000001    1    1    2    0    0 -0.40367732239E+02  0.66044207400E+02  0.10490175902E+04  0.10685379243E+04  0.18800000000E+03 0.  0.
<mgrwt>
<rscale>  0 0.40723489E+03</rscale>
<asrwt>0</asrwt>
<pdfrwt beam="1">  1        2 0.28678168E+00 0.40723489E+03</pdfrwt>
<pdfrwt beam="2">  1       -2 0.29504108E-02 0.40723489E+03</pdfrwt>
<totfact> 0.37953839E+03</totfact>
</mgrwt>
</event>
<event>
 4    1  0.5917727E-005  0.5521365E+03  0.7818608E-02  0.1001001E+00
         -2   -1    0    0    0  501 -0.00000000000E+00  0.00000000000E+00  0.65314459399E+03  0.65314459400E+03  0.25500000000E-02 0. -1.
          2   -1    0    0  501    0  0.00000000000E+00 -0.00000000000E+00 -0.11668731123E+03  0.11668731126E+03  0.25500000000E-02 0.  1.
    5000001    1    1    2    0    0 -0.14725345573E+03 -0.85841773325E+02  0.11666030368E+03  0.27929557233E+03  0.18800000000E+03 0.  0.
   -5000001    1    1    2    0    0  0.14725345573E+03  0.85841773325E+02  0.41979697908E+03  0.49053633292E+03  0.18800000000E+03 0.  0.
<mgrwt>
<rscale>  0 0.55213653E+03</rscale>
<asrwt>0</asrwt>
<pdfrwt beam="1">  1        2 0.16669615E-01 0.55213653E+03</pdfrwt>
<pdfrwt beam="2">  1       -2 0.93306373E-01 0.55213653E+03</pdfrwt>
<totfact> 0.34678724E+02</totfact>
</mgrwt>
</event>
<event>
 4    1  0.5917727E-005  0.7308042E+03  0.7818608E-02  0.9665956E-01
         -2   -1    0    0    0  501 -0.00000000000E+00  0.00000000000E+00  0.71740111830E+02  0.71740111876E+02  0.25500000000E-02 0.  1.
          2   -1    0    0  501    0  0.00000000000E+00 -0.00000000000E+00 -0.18611443650E+04  0.18611443650E+04  0.25500000000E-02 0. -1.
    5000001    1    1    2    0    0 -0.41503344935E+02 -0.27908593454E+03 -0.53434635325E+03  0.63283608599E+03  0.18800000000E+03 0.  0.
   -5000001    1    1    2    0    0  0.41503344935E+02  0.27908593454E+03 -0.12550579000E+04  0.13000483909E+04  0.18800000000E+03 0.  0.
<mgrwt>
<rscale>  0 0.73080423E+03</rscale>
<asrwt>0</asrwt>
<pdfrwt beam="1">  1        2 0.26587774E+00 0.73080423E+03</pdfrwt>
<pdfrwt beam="2">  1       -2 0.10248589E-01 0.73080423E+03</pdfrwt>
<totfact> 0.63513908E+02</totfact>
</mgrwt>
</event>
<event>
 4    1  0.5917727E-005  0.6148285E+03  0.7818608E-02  0.9875110E-01
          2   -1    0    0  501    0  0.00000000000E+00  0.00000000000E+00  0.30153033956E+04  0.30153033956E+04  0.25500000000E-02 0.  1.
         -2   -1    0    0    0  501 -0.00000000000E+00 -0.00000000000E+00 -0.31341298325E+02  0.31341298429E+02  0.25500000000E-02 0. -1.
    5000001    1    1    2    0    0 -0.12492305924E+03 -0.15428605077E+02  0.46066794534E+03  0.51322779391E+03  0.18800000000E+03 0.  0.
   -5000001    1    1    2    0    0  0.12492305924E+03  0.15428605077E+02  0.25232941519E+04  0.25334169001E+04  0.18800000000E+03 0.  0.
<mgrwt>
<rscale>  0 0.61482851E+03</rscale>
<asrwt>0</asrwt>
<pdfrwt beam="1">  1        2 0.43075767E+00 0.61482851E+03</pdfrwt>
<pdfrwt beam="2">  1       -2 0.44773279E-02 0.61482851E+03</pdfrwt>
<totfact> 0.60158814E+02</totfact>
</mgrwt>
</event>
<event>
 4    1  0.5917727E-005  0.9901749E+03  0.7818608E-02  0.9319387E-01
         -2   -1    0    0    0  501 -0.00000000000E+00  0.00000000000E+00  0.10843585039E+04  0.10843585039E+04  0.25500000000E-02 0. -1.
          2   -1    0    0  501    0  0.00000000000E+00 -0.00000000000E+00 -0.22604292756E+03  0.22604292757E+03  0.25500000000E-02 0.  1.
    5000001    1    1    2    0    0  0.36743188408E+03 -0.22666469633E+03  0.22678297040E+03  0.52264480258E+03  0.18800000000E+03 0.  0.
   -5000001    1    1    2    0    0 -0.36743188408E+03  0.22666469633E+03  0.63153260593E+03  0.78775662889E+03  0.18800000000E+03 0.  0.
<mgrwt>
<rscale>  0 0.99017487E+03</rscale>
<asrwt>0</asrwt>
<pdfrwt beam="1">  1        2 0.32291847E-01 0.99017487E+03</pdfrwt>
<pdfrwt beam="2">  1       -2 0.15490836E+00 0.99017487E+03</pdfrwt>
<totfact> 0.44980954E+01</totfact>
</mgrwt>
</event>
<event>
 4    1  0.5917727E-005  0.7871813E+03  0.7818608E-02  0.9578759E-01
          2   -1    0    0  501    0  0.00000000000E+00  0.00000000000E+00  0.81358240553E+03  0.81358240553E+03  0.25500000000E-02 0.  1.
         -2   -1    0    0    0  501 -0.00000000000E+00 -0.00000000000E+00 -0.19040921986E+03  0.19040921988E+03  0.25500000000E-02 0. -1.
    5000001    1    1    2    0    0 -0.31268289642E+03  0.59754553236E+02  0.48378514640E+03  0.60887869746E+03  0.18800000000E+03 0.  0.
   -5000001    1    1    2    0    0  0.31268289642E+03 -0.59754553236E+02  0.13938803927E+03  0.39511292795E+03  0.18800000000E+03 0.  0.
<mgrwt>
<rscale>  0 0.78718128E+03</rscale>
<asrwt>0</asrwt>
<pdfrwt beam="1">  1        2 0.11622606E+00 0.78718128E+03</pdfrwt>
<pdfrwt beam="2">  1       -2 0.27201317E-01 0.78718128E+03</pdfrwt>
<totfact> 0.45826844E+02</totfact>
</mgrwt>
</event>
<event>
 4    1  0.5917727E-005  0.3999786E+03  0.7818608E-02  0.1043787E+00
         -2   -1    0    0    0  501 -0.00000000000E+00  0.00000000000E+00  0.22973223563E+03  0.22973223565E+03  0.25500000000E-02 0. -1.
          2   -1    0    0  501    0  0.00000000000E+00 -0.00000000000E+00 -0.17409709343E+03  0.17409709344E+03  0.25500000000E-02 0.  1.
    5000001    1    1    2    0    0 -0.52686669455E+02 -0.41565546902E+02  0.40105805527E+02  0.20360760169E+03  0.18800000000E+03 0.  0.
   -5000001    1    1    2    0    0  0.52686669455E+02  0.41565546902E+02  0.15529336681E+02  0.20022172741E+03  0.18800000000E+03 0.  0.
<mgrwt>
<rscale>  0 0.39997857E+03</rscale>
<asrwt>0</asrwt>
<pdfrwt beam="1">  1        2 0.24871013E-01 0.39997857E+03</pdfrwt>
<pdfrwt beam="2">  1       -2 0.32818891E-01 0.39997857E+03</pdfrwt>
<totfact> 0.18891743E+03</totfact>
</mgrwt>
</event>
<event>
 4    1  0.5917727E-005  0.6799710E+03  0.7818608E-02  0.9752111E-01
         -2   -1    0    0    0  501 -0.00000000000E+00  0.00000000000E+00  0.77570733995E+02  0.77570734037E+02  0.25500000000E-02 0. -1.
          2   -1    0    0  501    0  0.00000000000E+00 -0.00000000000E+00 -0.14901254309E+04  0.14901254309E+04  0.25500000000E-02 0.  1.
    5000001    1    1    2    0    0  0.25366136173E+03 -0.54461096383E+02 -0.96850106981E+03  0.10201217671E+04  0.18800000000E+03 0.  0.
   -5000001    1    1    2    0    0 -0.25366136173E+03  0.54461096383E+02 -0.44405362709E+03  0.54757439786E+03  0.18800000000E+03 0.  0.
<mgrwt>
<rscale>  0 0.67997095E+03</rscale>
<asrwt>0</asrwt>
<pdfrwt beam="1">  1        2 0.21287504E+00 0.67997095E+03</pdfrwt>
<pdfrwt beam="2">  1       -2 0.11081534E-01 0.67997095E+03</pdfrwt>
<totfact> 0.86916061E+02</totfact>
</mgrwt>
</event>
<event>
 4    1  0.5917727E-005  0.5620090E+03  0.7818608E-02  0.9987519E-01
          2   -1    0    0  501    0  0.00000000000E+00  0.00000000000E+00  0.34782083107E+03  0.34782083108E+03  0.25500000000E-02 0.  1.
         -2   -1    0    0    0  501 -0.00000000000E+00 -0.00000000000E+00 -0.22702358100E+03  0.22702358102E+03  0.25500000000E-02 0. -1.
    5000001    1    1    2    0    0 -0.15499275330E+03 -0.99935967317E+02 -0.39868654308E+02  0.26635213672E+03  0.18800000000E+03 0.  0.
   -5000001    1    1    2    0    0  0.15499275330E+03  0.99935967317E+02  0.16066590437E+03  0.30849227538E+03  0.18800000000E+03 0.  0.
<mgrwt>
<rscale>  0 0.56200901E+03</rscale>
<asrwt>0</asrwt>
<pdfrwt beam="1">  1        2 0.49688690E-01 0.56200901E+03</pdfrwt>
<pdfrwt beam="2">  1       -2 0.32431940E-01 0.56200901E+03</pdfrwt>
<totfact> 0.89815116E+02</totfact>
</mgrwt>
</event>
<event>
 4    1  0.5917727E-005  0.7195541E+03  0.7818608E-02  0.9684364E-01
         -2   -1    0    0    0  501 -0.00000000000E+00  0.00000000000E+00  0.12516703709E+03  0.12516703712E+03  0.25500000000E-02 0. -1.
          2   -1    0    0  501    0  0.00000000000E+00 -0.00000000000E+00 -0.10341343155E+04  0.10341343155E+04  0.25500000000E-02 0.  1.
    5000001    1    1    2    0    0 -0.19151069820E+03  0.23336112238E+03 -0.36680206236E+03  0.51090264622E+03  0.18800000000E+03 0.  0.
   -5000001    1    1    2    0    0  0.19151069820E+03 -0.23336112238E+03 -0.54216521604E+03  0.64839870639E+03  0.18800000000E+03 0.  0.
<mgrwt>
<rscale>  0 0.71955411E+03</rscale>
<asrwt>0</asrwt>
<pdfrwt beam="1">  1        2 0.14773347E+00 0.71955411E+03</pdfrwt>
<pdfrwt beam="2">  1       -2 0.17881006E-01 0.71955411E+03</pdfrwt>
<totfact> 0.69712510E+02</totfact>
</mgrwt>
</event>
<event>
 4    1  0.5917727E-005  0.5818277E+03  0.7818608E-02  0.9943842E-01
          2   -1    0    0  501    0  0.00000000000E+00  0.00000000000E+00  0.38271777679E+03  0.38271777680E+03  0.25500000000E-02 0.  1.
         -2   -1    0    0    0  501 -0.00000000000E+00 -0.00000000000E+00 -0.22113123792E+03  0.22113123793E+03  0.25500000000E-02 0. -1.
    5000001    1    1    2    0    0 -0.12400137385E+03 -0.17274659323E+03  0.14699735022E+03  0.31964034032E+03  0.18800000000E+03 0.  0.
   -5000001    1    1    2    0    0  0.12400137385E+03  0.17274659323E+03  0.14589188657E+02  0.28420867442E+03  0.18800000000E+03 0.  0.
<mgrwt>
<rscale>  0 0.58182766E+03</rscale>
<asrwt>0</asrwt>
<pdfrwt beam="1">  1        2 0.54673968E-01 0.58182766E+03</pdfrwt>
<pdfrwt beam="2">  1       -2 0.31590177E-01 0.58182766E+03</pdfrwt>
<totfact> 0.84854328E+02</totfact>
</mgrwt>
</event>
<event>
 4    1  0.5917727E-005  0.1168605E+04  0.7818608E-02  0.9140789E-01
          2   -1    0    0  501    0  0.00000000000E+00  0.00000000000E+00  0.17224565478E+04  0.17224565478E+04  0.25500000000E-02 0.  1.
         -2   -1    0    0    0  501 -0.00000000000E+00 -0.00000000000E+00 -0.19821087854E+03  0.19821087856E+03  0.25500000000E-02 0. -1.
    5000001    1    1    2    0    0  0.79466366046E+01 -0.54721294485E+03  0.89524542403E+03  0.10659800773E+04  0.18800000000E+03 0.  0.
   -5000001    1    1    2    0    0 -0.79466366046E+01  0.54721294485E+03  0.62900024519E+03  0.85468734897E+03  0.18800000000E+03 0.  0.
<mgrwt>
<rscale>  0 0.11686054E+04</rscale>
<asrwt>0</asrwt>
<pdfrwt beam="1">  1        2 0.24606523E+00 0.11686054E+04</pdfrwt>
<pdfrwt beam="2">  1       -2 0.28315839E-01 0.11686054E+04</pdfrwt>
<totfact> 0.12594991E+02</totfact>
</mgrwt>
</event>
<event>
 4    1  0.5917727E-005  0.6744566E+03  0.7818608E-02  0.9761940E-01
          2   -1    0    0  501    0  0.00000000000E+00  0.00000000000E+00  0.14540840784E+03  0.14540840786E+03  0.25500000000E-02 0.  1.
         -2   -1    0    0    0  501 -0.00000000000E+00 -0.00000000000E+00 -0.78209329561E+03  0.78209329561E+03  0.25500000000E-02 0. -1.
    5000001    1    1    2    0    0  0.17283626411E+03  0.20351571213E+03 -0.43411886822E+03  0.54322574591E+03  0.18800000000E+03 0.  0.
   -5000001    1    1    2    0    0 -0.17283626411E+03 -0.20351571213E+03 -0.20256601955E+03  0.38427595755E+03  0.18800000000E+03 0.  0.
<mgrwt>
<rscale>  0 0.67445664E+03</rscale>
<asrwt>0</asrwt>
<pdfrwt beam="1">  1        2 0.20772630E-01 0.67445664E+03</pdfrwt>
<pdfrwt beam="2">  1       -2 0.11172761E+00 0.67445664E+03</pdfrwt>
<totfact> 0.17385755E+02</totfact>
</mgrwt>
</event>
<event>
 4    1  0.5917727E-005  0.4474684E+03  0.7818608E-02  0.1028480E+00
         -2   -1    0    0    0  501 -0.00000000000E+00  0.00000000000E+00  0.78457665424E+02  0.78457665465E+02  0.25500000000E-02 0.  1.
          2   -1    0    0  501    0  0.00000000000E+00 -0.00000000000E+00 -0.63801289992E+03  0.63801289993E+03  0.25500000000E-02 0. -1.
    5000001    1    1    2    0    0 -0.11271492690E+03  0.36770421420E+02 -0.32079631331E+03  0.39027041045E+03  0.18800000000E+03 0.  0.
   -5000001    1    1    2    0    0  0.11271492690E+03 -0.36770421420E+02 -0.23875892119E+03  0.32620015494E+03  0.18800000000E+03 0.  0.
<mgrwt>
<rscale>  0 0.44746845E+03</rscale>
<asrwt>0</asrwt>
<pdfrwt beam="1">  1        2 0.91144696E-01 0.44746845E+03</pdfrwt>
<pdfrwt beam="2">  1       -2 0.11208238E-01 0.44746845E+03</pdfrwt>
<totfact> 0.28486270E+03</totfact>
</mgrwt>
</event>
<event>
 4    1  0.5917727E-005  0.6589269E+03  0.7818608E-02  0.9790171E-01
         -2   -1    0    0    0  501 -0.00000000000E+00  0.00000000000E+00  0.99231510747E+02  0.99231510779E+02  0.25500000000E-02 0. -1.
          2   -1    0    0  501    0  0.00000000000E+00 -0.00000000000E+00 -0.10938680520E+04  0.10938680520E+04  0.25500000000E-02 0.  1.
    5000001    1    1    2    0    0  0.26389162079E+03 -0.56243569292E+02 -0.53353406887E+03  0.62674135755E+03  0.18800000000E+03 0.  0.
   -5000001    1    1    2    0    0 -0.26389162079E+03  0.56243569292E+02 -0.46110247241E+03  0.56635820527E+03  0.18800000000E+03 0.  0.
<mgrwt>
<rscale>  0 0.65892694E+03</rscale>
<asrwt>0</asrwt>
<pdfrwt beam="1">  1        2 0.15626686E+00 0.65892694E+03</pdfrwt>
<pdfrwt beam="2">  1       -2 0.14175931E-01 0.65892694E+03</pdfrwt>
<totfact> 0.95507295E+02</totfact>
</mgrwt>
</event>
<event>
 4    1  0.5917727E-005  0.4174514E+03  0.7818608E-02  0.1037899E+00
         -2   -1    0    0    0  501 -0.00000000000E+00  0.00000000000E+00  0.66016620825E+02  0.66016620874E+02  0.25500000000E-02 0. -1.
          2   -1    0    0  501    0  0.00000000000E+00 -0.00000000000E+00 -0.65993118613E+03  0.65993118614E+03  0.25500000000E-02 0.  1.
    5000001    1    1    2    0    0  0.45534065123E+02  0.12919495059E+02 -0.16245534764E+03  0.25293478293E+03  0.18800000000E+03 0.  0.
   -5000001    1    1    2    0    0 -0.45534065123E+02 -0.12919495059E+02 -0.43145921767E+03  0.47301302408E+03  0.18800000000E+03 0.  0.
<mgrwt>
<rscale>  0 0.41745144E+03</rscale>
<asrwt>0</asrwt>
<pdfrwt beam="1">  1        2 0.94275880E-01 0.41745144E+03</pdfrwt>
<pdfrwt beam="2">  1       -2 0.94309462E-02 0.41745144E+03</pdfrwt>
<totfact> 0.36122390E+03</totfact>
</mgrwt>
</event>
<event>
 4    1  0.5917727E-005  0.6453998E+03  0.7818608E-02  0.9815450E-01
          2   -1    0    0  501    0  0.00000000000E+00  0.00000000000E+00  0.18878961000E+04  0.18878961000E+04  0.25500000000E-02 0.  1.
         -2   -1    0    0    0  501 -0.00000000000E+00 -0.00000000000E+00 -0.55159401987E+02  0.55159402046E+02  0.25500000000E-02 0. -1.
    5000001    1    1    2    0    0  0.18847402076E+03  0.17049872011E+03  0.11114546333E+04  0.11555378280E+04  0.18800000000E+03 0.  0.
   -5000001    1    1    2    0    0 -0.18847402076E+03 -0.17049872011E+03  0.72128206470E+03  0.78751767404E+03  0.18800000000E+03 0.  0.
<mgrwt>
<rscale>  0 0.64539978E+03</rscale>
<asrwt>0</asrwt>
<pdfrwt beam="1">  1        2 0.26969936E+00 0.64539978E+03</pdfrwt>
<pdfrwt beam="2">  1       -2 0.78799171E-02 0.64539978E+03</pdfrwt>
<totfact> 0.94499444E+02</totfact>
</mgrwt>
</event>
<event>
 4    1  0.5917727E-005  0.9820122E+03  0.7818608E-02  0.9328496E-01
          2   -1    0    0  501    0  0.00000000000E+00  0.00000000000E+00  0.19124768419E+04  0.19124768419E+04  0.25500000000E-02 0.  1.
         -2   -1    0    0    0  501 -0.00000000000E+00 -0.00000000000E+00 -0.12606009550E+03  0.12606009553E+03  0.25500000000E-02 0. -1.
    5000001    1    1    2    0    0  0.21618215199E+03  0.33755331986E+03  0.13338914901E+04  0.14054492072E+04  0.18800000000E+03 0.  0.
   -5000001    1    1    2    0    0 -0.21618215199E+03 -0.33755331986E+03  0.45252525625E+03  0.63308773020E+03  0.18800000000E+03 0.  0.
<mgrwt>
<rscale>  0 0.98201225E+03</rscale>
<asrwt>0</asrwt>
<pdfrwt beam="1">  1        2 0.27321097E+00 0.98201225E+03</pdfrwt>
<pdfrwt beam="2">  1       -2 0.18008585E-01 0.98201225E+03</pdfrwt>
<totfact> 0.22858875E+02</totfact>
</mgrwt>
</event>
<event>
 4    1  0.5917727E-005  0.6571361E+03  0.7818608E-02  0.9793480E-01
         -2   -1    0    0    0  501 -0.00000000000E+00  0.00000000000E+00  0.49570284921E+02  0.49570284986E+02  0.25500000000E-02 0. -1.
          2   -1    0    0  501    0  0.00000000000E+00 -0.00000000000E+00 -0.21778563595E+04  0.21778563595E+04  0.25500000000E-02 0.  1.
    5000001    1    1    2    0    0  0.83750931737E+02  0.24201872890E+03 -0.13482567327E+04  0.13851813964E+04  0.18800000000E+03 0.  0.
   -5000001    1    1    2    0    0 -0.83750931737E+02 -0.24201872890E+03 -0.78002934184E+03  0.84224524803E+03  0.18800000000E+03 0.  0.
<mgrwt>
<rscale>  0 0.65713609E+03</rscale>
<asrwt>0</asrwt>
<pdfrwt beam="1">  1        2 0.31112228E+00 0.65713609E+03</pdfrwt>
<pdfrwt beam="2">  1       -2 0.70814706E-02 0.65713609E+03</pdfrwt>
<totfact> 0.79940340E+02</totfact>
</mgrwt>
</event>
<event>
 4    1  0.5917727E-005  0.8436339E+03  0.7818608E-02  0.9498921E-01
          2   -1    0    0  501    0  0.00000000000E+00  0.00000000000E+00  0.31155018552E+04  0.31155018552E+04  0.25500000000E-02 0.  1.
         -2   -1    0    0    0  501 -0.00000000000E+00 -0.00000000000E+00 -0.57111036753E+02  0.57111036810E+02  0.25500000000E-02 0. -1.
    5000001    1    1    2    0    0  0.35432323120E+03  0.96943601762E+02  0.18579573605E+04  0.19032321371E+04  0.18800000000E+03 0.  0.
   -5000001    1    1    2    0    0 -0.35432323120E+03 -0.96943601762E+02  0.12004334579E+04  0.12693807549E+04  0.18800000000E+03 0.  0.
<mgrwt>
<rscale>  0 0.84363390E+03</rscale>
<asrwt>0</asrwt>
<pdfrwt beam="1">  1        2 0.44507186E+00 0.84363390E+03</pdfrwt>
<pdfrwt beam="2">  1       -2 0.81587164E-02 0.84363390E+03</pdfrwt>
<totfact> 0.20144761E+02</totfact>
</mgrwt>
</event>
<event>
 4    1  0.5917727E-005  0.6082689E+03  0.7818608E-02  0.9888398E-01
          2   -1    0    0  501    0  0.00000000000E+00  0.00000000000E+00  0.54779768769E+03  0.54779768770E+03  0.25500000000E-02 0.  1.
         -2   -1    0    0    0  501 -0.00000000000E+00 -0.00000000000E+00 -0.16885387497E+03  0.16885387499E+03  0.25500000000E-02 0. -1.
    5000001    1    1    2    0    0  0.16891859362E+03  0.70796892712E+02  0.37049863137E+03  0.45404727412E+03  0.18800000000E+03 0.  0.
   -5000001    1    1    2    0    0 -0.16891859362E+03 -0.70796892712E+02  0.84451813535E+01  0.26260428857E+03  0.18800000000E+03 0.  0.
<mgrwt>
<rscale>  0 0.60826890E+03</rscale>
<asrwt>0</asrwt>
<pdfrwt beam="1">  1        2 0.78256813E-01 0.60826890E+03</pdfrwt>
<pdfrwt beam="2">  1       -2 0.24121982E-01 0.60826890E+03</pdfrwt>
<totfact> 0.92588059E+02</totfact>
</mgrwt>
</event>
<event>
 4    1  0.5917727E-005  0.1294075E+04  0.7818608E-02  0.9034277E-01
          2   -1    0    0  501    0  0.00000000000E+00  0.00000000000E+00  0.16719289331E+04  0.16719289331E+04  0.25500000000E-02 0.  1.
         -2   -1    0    0    0  501 -0.00000000000E+00 -0.00000000000E+00 -0.25040408427E+03  0.25040408428E+03  0.25500000000E-02 0. -1.
    5000001    1    1    2    0    0  0.11575759701E+03  0.51918175136E+03  0.24015508633E+03  0.61316227681E+03  0.18800000000E+03 0.  0.
   -5000001    1    1    2    0    0 -0.11575759701E+03 -0.51918175136E+03  0.11813697625E+04  0.13091707406E+04  0.18800000000E+03 0.  0.
<mgrwt>
<rscale>  0 0.12940755E+04</rscale>
<asrwt>0</asrwt>
<pdfrwt beam="1">  1        2 0.23884699E+00 0.12940755E+04</pdfrwt>
<pdfrwt beam="2">  1       -2 0.35772012E-01 0.12940755E+04</pdfrwt>
<totfact> 0.85458308E+01</totfact>
</mgrwt>
</event>
<event>
 4    1  0.5917727E-005  0.5693485E+03  0.7818608E-02  0.9971121E-01
         -2   -1    0    0    0  501 -0.00000000000E+00  0.00000000000E+00  0.23897753747E+03  0.23897753748E+03  0.25500000000E-02 0. -1.
          2   -1    0    0  501    0  0.00000000000E+00 -0.00000000000E+00 -0.33910903558E+03  0.33910903559E+03  0.25500000000E-02 0.  1.
    5000001    1    1    2    0    0 -0.22179334016E+02 -0.18337628345E+03  0.59180432976E+02  0.27012054316E+03  0.18800000000E+03 0.  0.
   -5000001    1    1    2    0    0  0.22179334016E+02  0.18337628345E+03 -0.15931193109E+03  0.30796602991E+03  0.18800000000E+03 0.  0.
<mgrwt>
<rscale>  0 0.56934855E+03</rscale>
<asrwt>0</asrwt>
<pdfrwt beam="1">  1        2 0.48444147E-01 0.56934855E+03</pdfrwt>
<pdfrwt beam="2">  1       -2 0.34139649E-01 0.56934855E+03</pdfrwt>
<totfact> 0.83877744E+02</totfact>
</mgrwt>
</event>
<event>
 4    1  0.5917727E-005  0.5451616E+03  0.7818608E-02  0.1002620E+00
          2   -1    0    0  501    0  0.00000000000E+00  0.00000000000E+00  0.11651766674E+04  0.11651766674E+04  0.25500000000E-02 0.  1.
         -2   -1    0    0    0  501 -0.00000000000E+00 -0.00000000000E+00 -0.63767405765E+02  0.63767405816E+02  0.25500000000E-02 0. -1.
    5000001    1    1    2    0    0 -0.92462023225E+02  0.14533591907E+03  0.33349103022E+03  0.41979997898E+03  0.18800000000E+03 0.  0.
   -5000001    1    1    2    0    0  0.92462023225E+02 -0.14533591907E+03  0.76791823143E+03  0.80914409426E+03  0.18800000000E+03 0.  0.
<mgrwt>
<rscale>  0 0.54516160E+03</rscale>
<asrwt>0</asrwt>
<pdfrwt beam="1">  1        2 0.16645380E+00 0.54516160E+03</pdfrwt>
<pdfrwt beam="2">  1       -2 0.91096301E-02 0.54516160E+03</pdfrwt>
<totfact> 0.17990876E+03</totfact>
</mgrwt>
</event>
<event>
 4    1  0.5917727E-005  0.5453030E+03  0.7818608E-02  0.1002587E+00
          2   -1    0    0  501    0  0.00000000000E+00  0.00000000000E+00  0.23185849438E+04  0.23185849439E+04  0.25500000000E-02 0.  1.
         -2   -1    0    0    0  501 -0.00000000000E+00 -0.00000000000E+00 -0.32062159558E+02  0.32062159660E+02  0.25500000000E-02 0. -1.
    5000001    1    1    2    0    0 -0.15781588871E+03 -0.10102936163E+03  0.87467727443E+03  0.91406625637E+03  0.18800000000E+03 0.  0.
   -5000001    1    1    2    0    0  0.15781588871E+03  0.10102936163E+03  0.14118455099E+04  0.14365808471E+04  0.18800000000E+03 0.  0.
<mgrwt>
<rscale>  0 0.54530300E+03</rscale>
<asrwt>0</asrwt>
<pdfrwt beam="1">  1        2 0.33122641E+00 0.54530300E+03</pdfrwt>
<pdfrwt beam="2">  1       -2 0.45803086E-02 0.54530300E+03</pdfrwt>
<totfact> 0.13502342E+03</totfact>
</mgrwt>
</event>
<event>
 4    1  0.5917727E-005  0.4630731E+03  0.7818608E-02  0.1023894E+00
          2   -1    0    0  501    0  0.00000000000E+00  0.00000000000E+00  0.57466654441E+03  0.57466654442E+03  0.25500000000E-02 0.  1.
         -2   -1    0    0    0  501 -0.00000000000E+00 -0.00000000000E+00 -0.93287460910E+02  0.93287460945E+02  0.25500000000E-02 0. -1.
    5000001    1    1    2    0    0 -0.71527632659E+02  0.11349703137E+03  0.21710207599E+03  0.31697805880E+03  0.18800000000E+03 0.  0.
   -5000001    1    1    2    0    0  0.71527632659E+02 -0.11349703137E+03  0.26427700752E+03  0.35097594656E+03  0.18800000000E+03 0.  0.
<mgrwt>
<rscale>  0 0.46307314E+03</rscale>
<asrwt>0</asrwt>
<pdfrwt beam="1">  1        2 0.82095223E-01 0.46307314E+03</pdfrwt>
<pdfrwt beam="2">  1       -2 0.13326780E-01 0.46307314E+03</pdfrwt>
<totfact> 0.24243343E+03</totfact>
</mgrwt>
</event>
<event>
 4    1  0.5917727E-005  0.9268429E+03  0.7818608E-02  0.9392635E-01
         -2   -1    0    0    0  501 -0.00000000000E+00  0.00000000000E+00  0.19104465391E+03  0.19104465392E+03  0.25500000000E-02 0. -1.
          2   -1    0    0  501    0  0.00000000000E+00 -0.00000000000E+00 -0.11241321138E+04  0.11241321138E+04  0.25500000000E-02 0.  1.
    5000001    1    1    2    0    0 -0.29806531389E+03  0.18415840778E+03 -0.12878287025E+03  0.41795487575E+03  0.18800000000E+03 0.  0.
   -5000001    1    1    2    0    0  0.29806531389E+03 -0.18415840778E+03 -0.80430458962E+03  0.89722189194E+03  0.18800000000E+03 0.  0.
<mgrwt>
<rscale>  0 0.92684288E+03</rscale>
<asrwt>0</asrwt>
<pdfrwt beam="1">  1        2 0.16059030E+00 0.92684288E+03</pdfrwt>
<pdfrwt beam="2">  1       -2 0.27292094E-01 0.92684288E+03</pdfrwt>
<totfact> 0.28845021E+02</totfact>
</mgrwt>
</event>
<event>
 4    1  0.5917727E-005  0.6634700E+03  0.7818608E-02  0.9781827E-01
          2   -1    0    0  501    0  0.00000000000E+00  0.00000000000E+00  0.12716034714E+04  0.12716034714E+04  0.25500000000E-02 0.  1.
         -2   -1    0    0    0  501 -0.00000000000E+00 -0.00000000000E+00 -0.86542776630E+02  0.86542776667E+02  0.25500000000E-02 0. -1.
    5000001    1    1    2    0    0  0.23980690081E+03  0.88324580451E+02  0.79095039536E+03  0.85220602503E+03  0.18800000000E+03 0.  0.
   -5000001    1    1    2    0    0 -0.23980690081E+03 -0.88324580451E+02  0.39411029944E+03  0.50594022306E+03  0.18800000000E+03 0.  0.
<mgrwt>
<rscale>  0 0.66346995E+03</rscale>
<asrwt>0</asrwt>
<pdfrwt beam="1">  1        2 0.18165763E+00 0.66346995E+03</pdfrwt>
<pdfrwt beam="2">  1       -2 0.12363254E-01 0.66346995E+03</pdfrwt>
<totfact> 0.95118267E+02</totfact>
</mgrwt>
</event>
<event>
 4    1  0.5917727E-005  0.1604755E+04  0.7818608E-02  0.8817632E-01
         -2   -1    0    0    0  501 -0.00000000000E+00  0.00000000000E+00  0.15497738364E+03  0.15497738367E+03  0.25500000000E-02 0. -1.
          2   -1    0    0  501    0  0.00000000000E+00 -0.00000000000E+00 -0.41542173192E+04  0.41542173192E+04  0.25500000000E-02 0.  1.
    5000001    1    1    2    0    0  0.47789171102E+03  0.56916880966E+03 -0.13634208878E+04  0.15641592434E+04  0.18800000000E+03 0.  0.
   -5000001    1    1    2    0    0 -0.47789171102E+03 -0.56916880966E+03 -0.26358190478E+04  0.27450354596E+04  0.18800000000E+03 0.  0.
<mgrwt>
<rscale>  0 0.16047551E+04</rscale>
<asrwt>0</asrwt>
<pdfrwt beam="1">  1        2 0.59345955E+00 0.16047551E+04</pdfrwt>
<pdfrwt beam="2">  1       -2 0.22139629E-01 0.16047551E+04</pdfrwt>
<totfact> 0.77385774E+00</totfact>
</mgrwt>
</event>
<event>
 4    1  0.5917727E-005  0.5293465E+03  0.7818608E-02  0.1006391E+00
          2   -1    0    0  501    0  0.00000000000E+00  0.00000000000E+00  0.63251094323E+03  0.63251094324E+03  0.25500000000E-02 0.  1.
         -2   -1    0    0    0  501 -0.00000000000E+00 -0.00000000000E+00 -0.11075211070E+03  0.11075211073E+03  0.25500000000E-02 0. -1.
    5000001    1    1    2    0    0  0.50154354473E+02  0.17889015185E+03  0.28027329832E+03  0.38524572347E+03  0.18800000000E+03 0.  0.
   -5000001    1    1    2    0    0 -0.50154354473E+02 -0.17889015185E+03  0.24148553421E+03  0.35801733049E+03  0.18800000000E+03 0.  0.
<mgrwt>
<rscale>  0 0.52934647E+03</rscale>
<asrwt>0</asrwt>
<pdfrwt beam="1">  1        2 0.90358708E-01 0.52934647E+03</pdfrwt>
<pdfrwt beam="2">  1       -2 0.15821730E-01 0.52934647E+03</pdfrwt>
<totfact> 0.16277184E+03</totfact>
</mgrwt>
</event>
<event>
 4    1  0.5917727E-005  0.6028260E+03  0.7818608E-02  0.9899560E-01
         -2   -1    0    0    0  501 -0.00000000000E+00  0.00000000000E+00  0.13815278958E+03  0.13815278960E+03  0.25500000000E-02 0. -1.
          2   -1    0    0  501    0  0.00000000000E+00 -0.00000000000E+00 -0.65760375552E+03  0.65760375553E+03  0.25500000000E-02 0.  1.
    5000001    1    1    2    0    0  0.79267267635E+02  0.19876241077E+03 -0.38984185689E+03  0.48281514997E+03  0.18800000000E+03 0.  0.
   -5000001    1    1    2    0    0 -0.79267267635E+02 -0.19876241077E+03 -0.12960910906E+03  0.31294139516E+03  0.18800000000E+03 0.  0.
<mgrwt>
<rscale>  0 0.60282599E+03</rscale>
<asrwt>0</asrwt>
<pdfrwt beam="1">  1        2 0.93943392E-01 0.60282599E+03</pdfrwt>
<pdfrwt beam="2">  1       -2 0.19736113E-01 0.60282599E+03</pdfrwt>
<totfact> 0.10634521E+03</totfact>
</mgrwt>
</event>
<event>
 4    1  0.5917727E-005  0.4181901E+03  0.7818608E-02  0.1037657E+00
         -2   -1    0    0    0  501 -0.00000000000E+00  0.00000000000E+00  0.13843676281E+03  0.13843676283E+03  0.25500000000E-02 0.  1.
          2   -1    0    0  501    0  0.00000000000E+00 -0.00000000000E+00 -0.31581747953E+03  0.31581747954E+03  0.25500000000E-02 0. -1.
    5000001    1    1    2    0    0 -0.28893790397E+02 -0.83967429007E+02 -0.64611871784E+02  0.21772476716E+03  0.18800000000E+03 0.  0.
   -5000001    1    1    2    0    0  0.28893790397E+02  0.83967429007E+02 -0.11276884493E+03  0.23652947521E+03  0.18800000000E+03 0.  0.
<mgrwt>
<rscale>  0 0.41819015E+03</rscale>
<asrwt>0</asrwt>
<pdfrwt beam="1">  1        2 0.45116783E-01 0.41819015E+03</pdfrwt>
<pdfrwt beam="2">  1       -2 0.19776681E-01 0.41819015E+03</pdfrwt>
<totfact> 0.24204475E+03</totfact>
</mgrwt>
</event>
<event>
 4    1  0.5917727E-005  0.5659920E+03  0.7818608E-02  0.9978587E-01
          2   -1    0    0  501    0  0.00000000000E+00  0.00000000000E+00  0.40867691405E+04  0.40867691405E+04  0.25500000000E-02 0.  1.
         -2   -1    0    0    0  501 -0.00000000000E+00 -0.00000000000E+00 -0.19596589931E+02  0.19596590097E+02  0.25500000000E-02 0. -1.
    5000001    1    1    2    0    0 -0.23699596040E+02  0.18477314782E+03  0.13066218640E+04  0.13331569609E+04  0.18800000000E+03 0.  0.
   -5000001    1    1    2    0    0  0.23699596040E+02 -0.18477314782E+03  0.27605506866E+04  0.27732087697E+04  0.18800000000E+03 0.  0.
<mgrwt>
<rscale>  0 0.56599201E+03</rscale>
<asrwt>0</asrwt>
<pdfrwt beam="1">  1        2 0.58382403E+00 0.56599201E+03</pdfrwt>
<pdfrwt beam="2">  1       -2 0.27995135E-02 0.56599201E+03</pdfrwt>
<totfact> 0.27934659E+02</totfact>
</mgrwt>
</event>
<event>
 4    1  0.5917727E-005  0.4862321E+03  0.7818608E-02  0.1017436E+00
          2   -1    0    0  501    0  0.00000000000E+00  0.00000000000E+00  0.26809131564E+03  0.26809131565E+03  0.25500000000E-02 0.  1.
         -2   -1    0    0    0  501 -0.00000000000E+00 -0.00000000000E+00 -0.22046745424E+03  0.22046745425E+03  0.25500000000E-02 0. -1.
    5000001    1    1    2    0    0 -0.69822705336E+02 -0.13639254576E+03  0.40723188388E+02  0.24592786502E+03  0.18800000000E+03 0.  0.
   -5000001    1    1    2    0    0  0.69822705336E+02  0.13639254576E+03  0.69006730178E+01  0.24263090489E+03  0.18800000000E+03 0.  0.
<mgrwt>
<rscale>  0 0.48623208E+03</rscale>
<asrwt>0</asrwt>
<pdfrwt beam="1">  1        2 0.38298760E-01 0.48623208E+03</pdfrwt>
<pdfrwt beam="2">  1       -2 0.31495350E-01 0.48623208E+03</pdfrwt>
<totfact> 0.12631198E+03</totfact>
</mgrwt>
</event>
<event>
 4    1  0.5917727E-005  0.4441251E+03  0.7818608E-02  0.1029489E+00
          2   -1    0    0  501    0  0.00000000000E+00  0.00000000000E+00  0.11194631355E+03  0.11194631358E+03  0.25500000000E-02 0.  1.
         -2   -1    0    0    0  501 -0.00000000000E+00 -0.00000000000E+00 -0.44049477964E+03  0.44049477965E+03  0.25500000000E-02 0. -1.
    5000001    1    1    2    0    0  0.90252433250E+02 -0.43811614392E+02 -0.86565601228E+02  0.23000557076E+03  0.18800000000E+03 0.  0.
   -5000001    1    1    2    0    0 -0.90252433250E+02  0.43811614392E+02 -0.24198286486E+03  0.32243552247E+03  0.18800000000E+03 0.  0.
<mgrwt>
<rscale>  0 0.44412506E+03</rscale>
<asrwt>0</asrwt>
<pdfrwt beam="1">  1        2 0.15992331E-01 0.44412506E+03</pdfrwt>
<pdfrwt beam="2">  1       -2 0.62927825E-01 0.44412506E+03</pdfrwt>
<totfact> 0.87089902E+02</totfact>
</mgrwt>
</event>
<event>
 4    1  0.5917727E-005  0.5129450E+03  0.7818608E-02  0.1010454E+00
          2   -1    0    0  501    0  0.00000000000E+00  0.00000000000E+00  0.11056198743E+03  0.11056198746E+03  0.25500000000E-02 0.  1.
         -2   -1    0    0    0  501 -0.00000000000E+00 -0.00000000000E+00 -0.59494361666E+03  0.59494361666E+03  0.25500000000E-02 0. -1.
    5000001    1    1    2    0    0  0.56436093454E+02  0.12484385634E+03 -0.93652954823E+02  0.25077060645E+03  0.18800000000E+03 0.  0.
   -5000001    1    1    2    0    0 -0.56436093454E+02 -0.12484385634E+03 -0.39072867440E+03  0.45473499767E+03  0.18800000000E+03 0.  0.
<mgrwt>
<rscale>  0 0.51294502E+03</rscale>
<asrwt>0</asrwt>
<pdfrwt beam="1">  1        2 0.15794570E-01 0.51294502E+03</pdfrwt>
<pdfrwt beam="2">  1       -2 0.84991944E-01 0.51294502E+03</pdfrwt>
<totfact> 0.45818612E+02</totfact>
</mgrwt>
</event>
<event>
 4    1  0.5917727E-005  0.4326135E+03  0.7818608E-02  0.1033038E+00
         -2   -1    0    0    0  501 -0.00000000000E+00  0.00000000000E+00  0.82722627573E+02  0.82722627613E+02  0.25500000000E-02 0. -1.
          2   -1    0    0  501    0  0.00000000000E+00 -0.00000000000E+00 -0.56560825642E+03  0.56560825643E+03  0.25500000000E-02 0.  1.
    5000001    1    1    2    0    0  0.91405112413E+01 -0.89648059109E+02 -0.15503652946E+03  0.25980886997E+03  0.18800000000E+03 0.  0.
   -5000001    1    1    2    0    0 -0.91405112413E+01  0.89648059109E+02 -0.32784909939E+03  0.38852201407E+03  0.18800000000E+03 0.  0.
<mgrwt>
<rscale>  0 0.43261346E+03</rscale>
<asrwt>0</asrwt>
<pdfrwt beam="1">  1        2 0.80801177E-01 0.43261346E+03</pdfrwt>
<pdfrwt beam="2">  1       -2 0.11817519E-01 0.43261346E+03</pdfrwt>
<totfact> 0.30057125E+03</totfact>
</mgrwt>
</event>
<event>
 4    1  0.5917727E-005  0.7735449E+03  0.7818608E-02  0.9599119E-01
          2   -1    0    0  501    0  0.00000000000E+00  0.00000000000E+00  0.19853126540E+03  0.19853126542E+03  0.25500000000E-02 0.  1.
         -2   -1    0    0    0  501 -0.00000000000E+00 -0.00000000000E+00 -0.75349806866E+03  0.75349806867E+03  0.25500000000E-02 0. -1.
    5000001    1    1    2    0    0  0.16044137077E+03  0.21205180315E+03 -0.53429617575E+03  0.62571863013E+03  0.18800000000E+03 0.  0.
   -5000001    1    1    2    0    0 -0.16044137077E+03 -0.21205180315E+03 -0.20670627508E+02  0.32631070395E+03  0.18800000000E+03 0.  0.
<mgrwt>
<rscale>  0 0.77354489E+03</rscale>
<asrwt>0</asrwt>
<pdfrwt beam="1">  1        2 0.28361610E-01 0.77354489E+03</pdfrwt>
<pdfrwt beam="2">  1       -2 0.10764258E+00 0.77354489E+03</pdfrwt>
<totfact> 0.13240811E+02</totfact>
</mgrwt>
</event>
<event>
 4    1  0.5917727E-005  0.4339974E+03  0.7818608E-02  0.1032605E+00
         -2   -1    0    0    0  501 -0.00000000000E+00  0.00000000000E+00  0.22405132513E+02  0.22405132658E+02  0.25500000000E-02 0. -1.
          2   -1    0    0  501    0  0.00000000000E+00 -0.00000000000E+00 -0.21016805683E+04  0.21016805683E+04  0.25500000000E-02 0.  1.
    5000001    1    1    2    0    0  0.49645068402E+02 -0.75342874090E+02 -0.74585101075E+03  0.77445394423E+03  0.18800000000E+03 0.  0.
   -5000001    1    1    2    0    0 -0.49645068402E+02  0.75342874090E+02 -0.13334244250E+04  0.13496317567E+04  0.18800000000E+03 0.  0.
<mgrwt>
<rscale>  0 0.43399738E+03</rscale>
<asrwt>0</asrwt>
<pdfrwt beam="1">  1        2 0.30023996E+00 0.43399738E+03</pdfrwt>
<pdfrwt beam="2">  1       -2 0.32007346E-02 0.43399738E+03</pdfrwt>
<totfact> 0.30123169E+03</totfact>
</mgrwt>
</event>
<event>
 4    1  0.5917727E-005  0.5676044E+03  0.7818608E-02  0.9974994E-01
         -2   -1    0    0    0  501 -0.00000000000E+00  0.00000000000E+00  0.15323512397E+03  0.15323512399E+03  0.25500000000E-02 0. -1.
          2   -1    0    0  501    0  0.00000000000E+00 -0.00000000000E+00 -0.52562163121E+03  0.52562163121E+03  0.25500000000E-02 0.  1.
    5000001    1    1    2    0    0  0.49292075553E+02 -0.17095983775E+02  0.60304486474E+02  0.20421217511E+03  0.18800000000E+03 0.  0.
   -5000001    1    1    2    0    0 -0.49292075553E+02  0.17095983775E+02 -0.43269099371E+03  0.47464458009E+03  0.18800000000E+03 0.  0.
<mgrwt>
<rscale>  0 0.56760443E+03</rscale>
<asrwt>0</asrwt>
<pdfrwt beam="1">  1        2 0.75088803E-01 0.56760443E+03</pdfrwt>
<pdfrwt beam="2">  1       -2 0.21890732E-01 0.56760443E+03</pdfrwt>
<totfact> 0.11538275E+03</totfact>
</mgrwt>
</event>
<event>
 4    1  0.5917727E-005  0.2221326E+04  0.7818608E-02  0.8509604E-01
         -2   -1    0    0    0  501 -0.00000000000E+00  0.00000000000E+00  0.10265467273E+04  0.10265467273E+04  0.25500000000E-02 0. -1.
          2   -1    0    0  501    0  0.00000000000E+00 -0.00000000000E+00 -0.12016718397E+04  0.12016718397E+04  0.25500000000E-02 0.  1.
    5000001    1    1    2    0    0 -0.71379457338E+03  0.78991653849E+03  0.16770193409E+03  0.10940469686E+04  0.18800000000E+03 0.  0.
   -5000001    1    1    2    0    0  0.71379457338E+03 -0.78991653849E+03 -0.34282704646E+03  0.11341715984E+04  0.18800000000E+03 0.  0.
<mgrwt>
<rscale>  0 0.22213260E+04</rscale>
<asrwt>0</asrwt>
<pdfrwt beam="1">  1        2 0.17166741E+00 0.22213260E+04</pdfrwt>
<pdfrwt beam="2">  1       -2 0.14664953E+00 0.22213260E+04</pdfrwt>
<totfact> 0.62188473E+00</totfact>
</mgrwt>
</event>
<event>
 4    1  0.5917727E-005  0.6306640E+03  0.7818608E-02  0.9843754E-01
          2   -1    0    0  501    0  0.00000000000E+00  0.00000000000E+00  0.15516810711E+04  0.15516810711E+04  0.25500000000E-02 0.  1.
         -2   -1    0    0    0  501 -0.00000000000E+00 -0.00000000000E+00 -0.64081646347E+02  0.64081646398E+02  0.25500000000E-02 0. -1.
    5000001    1    1    2    0    0 -0.18292144451E+03  0.17445762672E+03  0.77953567803E+03  0.84078272562E+03  0.18800000000E+03 0.  0.
   -5000001    1    1    2    0    0  0.18292144451E+03 -0.17445762672E+03  0.70806374668E+03  0.77497999183E+03  0.18800000000E+03 0.  0.
<mgrwt>
<rscale>  0 0.63066402E+03</rscale>
<asrwt>0</asrwt>
<pdfrwt beam="1">  1        2 0.22166871E+00 0.63066402E+03</pdfrwt>
<pdfrwt beam="2">  1       -2 0.91545216E-02 0.63066402E+03</pdfrwt>
<totfact> 0.11034021E+03</totfact>
</mgrwt>
</event>
<event>
 4    1  0.5917727E-005  0.6891824E+03  0.7818608E-02  0.9735913E-01
          2   -1    0    0  501    0  0.00000000000E+00  0.00000000000E+00  0.11488528707E+04  0.11488528707E+04  0.25500000000E-02 0.  1.
         -2   -1    0    0    0  501 -0.00000000000E+00 -0.00000000000E+00 -0.10335796196E+03  0.10335796199E+03  0.25500000000E-02 0. -1.
    5000001    1    1    2    0    0 -0.25432373343E+03 -0.12642854179E+03  0.61775774268E+03  0.70543133345E+03  0.18800000000E+03 0.  0.
   -5000001    1    1    2    0    0  0.25432373343E+03  0.12642854179E+03  0.42773716606E+03  0.54677949924E+03  0.18800000000E+03 0.  0.
<mgrwt>
<rscale>  0 0.68918239E+03</rscale>
<asrwt>0</asrwt>
<pdfrwt beam="1">  1        2 0.16412184E+00 0.68918239E+03</pdfrwt>
<pdfrwt beam="2">  1       -2 0.14765423E-01 0.68918239E+03</pdfrwt>
<totfact> 0.82797637E+02</totfact>
</mgrwt>
</event>
<event>
 4    1  0.5917727E-005  0.6002449E+03  0.7818608E-02  0.9904898E-01
          2   -1    0    0  501    0  0.00000000000E+00  0.00000000000E+00  0.16790313163E+04  0.16790313163E+04  0.25500000000E-02 0.  1.
         -2   -1    0    0    0  501 -0.00000000000E+00 -0.00000000000E+00 -0.53646100644E+02  0.53646100705E+02  0.25500000000E-02 0. -1.
    5000001    1    1    2    0    0  0.14204384809E+03  0.17985577307E+03  0.67714665332E+03  0.73918613623E+03  0.18800000000E+03 0.  0.
   -5000001    1    1    2    0    0 -0.14204384809E+03 -0.17985577307E+03  0.94823856236E+03  0.99349128080E+03  0.18800000000E+03 0.  0.
<mgrwt>
<rscale>  0 0.60024489E+03</rscale>
<asrwt>0</asrwt>
<pdfrwt beam="1">  1        2 0.23986166E+00 0.60024489E+03</pdfrwt>
<pdfrwt beam="2">  1       -2 0.76637274E-02 0.60024489E+03</pdfrwt>
<totfact> 0.12629639E+03</totfact>
</mgrwt>
</event>
<event>
 4    1  0.5917727E-005  0.9182743E+03  0.7818608E-02  0.9403022E-01
         -2   -1    0    0    0  501 -0.00000000000E+00  0.00000000000E+00  0.25365485525E+03  0.25365485526E+03  0.25500000000E-02 0. -1.
          2   -1    0    0  501    0  0.00000000000E+00 -0.00000000000E+00 -0.83107790249E+03  0.83107790249E+03  0.25500000000E-02 0.  1.
    5000001    1    1    2    0    0  0.83089526688E+02  0.37743410984E+03 -0.47956141774E+03  0.64395926122E+03  0.18800000000E+03 0.  0.
   -5000001    1    1    2    0    0 -0.83089526688E+02 -0.37743410984E+03 -0.97861629500E+02  0.44077349653E+03  0.18800000000E+03 0.  0.
<mgrwt>
<rscale>  0 0.91827435E+03</rscale>
<asrwt>0</asrwt>
<pdfrwt beam="1">  1        2 0.11872541E+00 0.91827435E+03</pdfrwt>
<pdfrwt beam="2">  1       -2 0.36236408E-01 0.91827435E+03</pdfrwt>
<totfact> 0.25917790E+02</totfact>
</mgrwt>
</event>
<event>
 4    1  0.5917727E-005  0.5447166E+03  0.7818608E-02  0.1002724E+00
          2   -1    0    0  501    0  0.00000000000E+00  0.00000000000E+00  0.13306896925E+04  0.13306896925E+04  0.25500000000E-02 0.  1.
         -2   -1    0    0    0  501 -0.00000000000E+00 -0.00000000000E+00 -0.55744802501E+02  0.55744802559E+02  0.25500000000E-02 0. -1.
    5000001    1    1    2    0    0 -0.19138397621E+02  0.19411435410E+03  0.56600722164E+03  0.62749887305E+03  0.18800000000E+03 0.  0.
   -5000001    1    1    2    0    0  0.19138397621E+02 -0.19411435410E+03  0.70893766833E+03  0.75893562198E+03  0.18800000000E+03 0.  0.
<mgrwt>
<rscale>  0 0.54471657E+03</rscale>
<asrwt>0</asrwt>
<pdfrwt beam="1">  1        2 0.19009854E+00 0.54471657E+03</pdfrwt>
<pdfrwt beam="2">  1       -2 0.79635427E-02 0.54471657E+03</pdfrwt>
<totfact> 0.18081430E+03</totfact>
</mgrwt>
</event>
<event>
 4    1  0.5917727E-005  0.4252401E+03  0.7818608E-02  0.1035374E+00
         -2   -1    0    0    0  501 -0.00000000000E+00  0.00000000000E+00  0.33474467561E+02  0.33474467658E+02  0.25500000000E-02 0. -1.
          2   -1    0    0  501    0  0.00000000000E+00 -0.00000000000E+00 -0.13505008234E+04  0.13505008234E+04  0.25500000000E-02 0.  1.
    5000001    1    1    2    0    0  0.88352959157E+02  0.44022098199E+02 -0.69403212462E+03  0.72578838550E+03  0.18800000000E+03 0.  0.
   -5000001    1    1    2    0    0 -0.88352959157E+02 -0.44022098199E+02 -0.62299423124E+03  0.65818690558E+03  0.18800000000E+03 0.  0.
<mgrwt>
<rscale>  0 0.42524015E+03</rscale>
<asrwt>0</asrwt>
<pdfrwt beam="1">  1        2 0.19292865E+00 0.42524015E+03</pdfrwt>
<pdfrwt beam="2">  1       -2 0.47820677E-02 0.42524015E+03</pdfrwt>
<totfact> 0.39166831E+03</totfact>
</mgrwt>
</event>
<event>
 4    1  0.5917727E-005  0.6353124E+03  0.7818608E-02  0.9834736E-01
          2   -1    0    0  501    0  0.00000000000E+00  0.00000000000E+00  0.68958940908E+03  0.68958940909E+03  0.25500000000E-02 0.  1.
         -2   -1    0    0    0  501 -0.00000000000E+00 -0.00000000000E+00 -0.14632688581E+03  0.14632688583E+03  0.25500000000E-02 0. -1.
    5000001    1    1    2    0    0 -0.16431528595E+02  0.17945886602E+03  0.32301056608E+02  0.26241729741E+03  0.18800000000E+03 0.  0.
   -5000001    1    1    2    0    0  0.16431528595E+02 -0.17945886602E+03  0.51096146667E+03  0.57349899751E+03  0.18800000000E+03 0.  0.
<mgrwt>
<rscale>  0 0.63531243E+03</rscale>
<asrwt>0</asrwt>
<pdfrwt beam="1">  1        2 0.98512771E-01 0.63531243E+03</pdfrwt>
<pdfrwt beam="2">  1       -2 0.20903841E-01 0.63531243E+03</pdfrwt>
<totfact> 0.90757364E+02</totfact>
</mgrwt>
</event>
<event>
 4    1  0.5917727E-005  0.9096631E+03  0.7818608E-02  0.9413582E-01
         -2   -1    0    0    0  501 -0.00000000000E+00  0.00000000000E+00  0.17227460066E+03  0.17227460068E+03  0.25500000000E-02 0. -1.
          2   -1    0    0  501    0  0.00000000000E+00 -0.00000000000E+00 -0.12008256508E+04  0.12008256508E+04  0.25500000000E-02 0.  1.
    5000001    1    1    2    0    0  0.19611311427E+03  0.33962344427E+03 -0.71522839400E+03  0.83707830761E+03  0.18800000000E+03 0.  0.
   -5000001    1    1    2    0    0 -0.19611311427E+03 -0.33962344427E+03 -0.31332265618E+03  0.53602194392E+03  0.18800000000E+03 0.  0.
<mgrwt>
<rscale>  0 0.90966315E+03</rscale>
<asrwt>0</asrwt>
<pdfrwt beam="1">  1        2 0.17154652E+00 0.90966315E+03</pdfrwt>
<pdfrwt beam="2">  1       -2 0.24610658E-01 0.90966315E+03</pdfrwt>
<totfact> 0.31470873E+02</totfact>
</mgrwt>
</event>
<event>
 4    1  0.5917727E-005  0.5599469E+03  0.7818608E-02  0.9992175E-01
         -2   -1    0    0    0  501 -0.00000000000E+00  0.00000000000E+00  0.43347797408E+02  0.43347797483E+02  0.25500000000E-02 0. -1.
          2   -1    0    0  501    0  0.00000000000E+00 -0.00000000000E+00 -0.18082842610E+04  0.18082842610E+04  0.25500000000E-02 0.  1.
    5000001    1    1    2    0    0  0.11052697252E+03 -0.17363090647E+03 -0.96852360973E+03  0.10078421930E+04  0.18800000000E+03 0.  0.
   -5000001    1    1    2    0    0 -0.11052697252E+03  0.17363090647E+03 -0.79641285387E+03  0.84378986552E+03  0.18800000000E+03 0.  0.
<mgrwt>
<rscale>  0 0.55994693E+03</rscale>
<asrwt>0</asrwt>
<pdfrwt beam="1">  1        2 0.25832628E+00 0.55994693E+03</pdfrwt>
<pdfrwt beam="2">  1       -2 0.61925436E-02 0.55994693E+03</pdfrwt>
<totfact> 0.15231311E+03</totfact>
</mgrwt>
</event>
<event>
 4    1  0.5917727E-005  0.5783457E+03  0.7818608E-02  0.9951379E-01
          2   -1    0    0  501    0  0.00000000000E+00  0.00000000000E+00  0.10237439423E+04  0.10237439423E+04  0.25500000000E-02 0.  1.
         -2   -1    0    0    0  501 -0.00000000000E+00 -0.00000000000E+00 -0.81681496757E+02  0.81681496797E+02  0.25500000000E-02 0. -1.
    5000001    1    1    2    0    0 -0.20609821913E+03 -0.21962645079E+02  0.33164483981E+03  0.43392526256E+03  0.18800000000E+03 0.  0.
   -5000001    1    1    2    0    0  0.20609821913E+03  0.21962645079E+02  0.61041760569E+03  0.67150017651E+03  0.18800000000E+03 0.  0.
<mgrwt>
<rscale>  0 0.57834570E+03</rscale>
<asrwt>0</asrwt>
<pdfrwt beam="1">  1        2 0.14624913E+00 0.57834570E+03</pdfrwt>
<pdfrwt beam="2">  1       -2 0.11668786E-01 0.57834570E+03</pdfrwt>
<totfact> 0.14543306E+03</totfact>
</mgrwt>
</event>
<event>
 4    1  0.5917727E-005  0.6799621E+03  0.7818608E-02  0.9752127E-01
          2   -1    0    0  501    0  0.00000000000E+00  0.00000000000E+00  0.18835791936E+04  0.18835791936E+04  0.25500000000E-02 0.  1.
         -2   -1    0    0    0  501 -0.00000000000E+00 -0.00000000000E+00 -0.61365681251E+02  0.61365681304E+02  0.25500000000E-02 0. -1.
    5000001    1    1    2    0    0  0.34613698610E+02 -0.25827785091E+03  0.12288214415E+04  0.12701384536E+04  0.18800000000E+03 0.  0.
   -5000001    1    1    2    0    0 -0.34613698610E+02  0.25827785091E+03  0.59339207092E+03  0.67480642131E+03  0.18800000000E+03 0.  0.
<mgrwt>
<rscale>  0 0.67996212E+03</rscale>
<asrwt>0</asrwt>
<pdfrwt beam="1">  1        2 0.26908269E+00 0.67996212E+03</pdfrwt>
<pdfrwt beam="2">  1       -2 0.87665276E-02 0.67996212E+03</pdfrwt>
<totfact> 0.79915327E+02</totfact>
</mgrwt>
</event>
<event>
 4    1  0.5917727E-005  0.4512206E+03  0.7818608E-02  0.1027359E+00
          2   -1    0    0  501    0  0.00000000000E+00  0.00000000000E+00  0.30066294683E+03  0.30066294684E+03  0.25500000000E-02 0.  1.
         -2   -1    0    0    0  501 -0.00000000000E+00 -0.00000000000E+00 -0.16929258494E+03  0.16929258496E+03  0.25500000000E-02 0. -1.
    5000001    1    1    2    0    0 -0.64265212885E+02 -0.10589084705E+03  0.50480464877E+02  0.23072747216E+03  0.18800000000E+03 0.  0.
   -5000001    1    1    2    0    0  0.64265212885E+02  0.10589084705E+03  0.80889897017E+02  0.23922805963E+03  0.18800000000E+03 0.  0.
<mgrwt>
<rscale>  0 0.45122060E+03</rscale>
<asrwt>0</asrwt>
<pdfrwt beam="1">  1        2 0.42951850E-01 0.45122060E+03</pdfrwt>
<pdfrwt beam="2">  1       -2 0.24184655E-01 0.45122060E+03</pdfrwt>
<totfact> 0.17974564E+03</totfact>
</mgrwt>
</event>
<event>
 4    1  0.5917727E-005  0.6673339E+03  0.7818608E-02  0.9774786E-01
         -2   -1    0    0    0  501 -0.00000000000E+00  0.00000000000E+00  0.46302002803E+03  0.46302002804E+03  0.25500000000E-02 0. -1.
          2   -1    0    0  501    0  0.00000000000E+00 -0.00000000000E+00 -0.24045099169E+03  0.24045099170E+03  0.25500000000E-02 0.  1.
    5000001    1    1    2    0    0  0.20416853821E+03  0.36785619833E+02  0.30264031840E+03  0.41227798406E+03  0.18800000000E+03 0.  0.
   -5000001    1    1    2    0    0 -0.20416853821E+03 -0.36785619833E+02 -0.80071282050E+02  0.29119303568E+03  0.18800000000E+03 0.  0.
<mgrwt>
<rscale>  0 0.66733387E+03</rscale>
<asrwt>0</asrwt>
<pdfrwt beam="1">  1        2 0.34350142E-01 0.66733387E+03</pdfrwt>
<pdfrwt beam="2">  1       -2 0.66145718E-01 0.66733387E+03</pdfrwt>
<totfact> 0.32416036E+02</totfact>
</mgrwt>
</event>
<event>
 4    1  0.5917727E-005  0.4480742E+03  0.7818608E-02  0.1028298E+00
          2   -1    0    0  501    0  0.00000000000E+00  0.00000000000E+00  0.72593131926E+03  0.72593131927E+03  0.25500000000E-02 0.  1.
         -2   -1    0    0    0  501 -0.00000000000E+00 -0.00000000000E+00 -0.69142371476E+02  0.69142371523E+02  0.25500000000E-02 0. -1.
    5000001    1    1    2    0    0 -0.72498875690E+02 -0.71734932545E+02  0.21007049680E+03  0.29979259689E+03  0.18800000000E+03 0.  0.
   -5000001    1    1    2    0    0  0.72498875690E+02  0.71734932545E+02  0.44671845099E+03  0.49528109390E+03  0.18800000000E+03 0.  0.
<mgrwt>
<rscale>  0 0.44807416E+03</rscale>
<asrwt>0</asrwt>
<pdfrwt beam="1">  1        2 0.10370447E+00 0.44807416E+03</pdfrwt>
<pdfrwt beam="2">  1       -2 0.98774821E-02 0.44807416E+03</pdfrwt>
<totfact> 0.29922904E+03</totfact>
</mgrwt>
</event>
<event>
 4    1  0.5917727E-005  0.1633337E+04  0.7818608E-02  0.8800326E-01
          2   -1    0    0  501    0  0.00000000000E+00  0.00000000000E+00  0.29905227272E+04  0.29905227272E+04  0.25500000000E-02 0.  1.
         -2   -1    0    0    0  501 -0.00000000000E+00 -0.00000000000E+00 -0.22302026227E+03  0.22302026229E+03  0.25500000000E-02 0. -1.
    5000001    1    1    2    0    0  0.62417987435E+03  0.62931199078E+02  0.42383025359E+03  0.78008777405E+03  0.18800000000E+03 0.  0.
   -5000001    1    1    2    0    0 -0.62417987435E+03 -0.62931199078E+02  0.23436722113E+04  0.24334552154E+04  0.18800000000E+03 0.  0.
<mgrwt>
<rscale>  0 0.16333367E+04</rscale>
<asrwt>0</asrwt>
<pdfrwt beam="1">  1        2 0.42721751E+00 0.16333367E+04</pdfrwt>
<pdfrwt beam="2">  1       -2 0.31860039E-01 0.16333367E+04</pdfrwt>
<totfact> 0.21032721E+01</totfact>
</mgrwt>
</event>
<event>
 4    1  0.5917727E-005  0.4715418E+03  0.7818608E-02  0.1021486E+00
         -2   -1    0    0    0  501 -0.00000000000E+00  0.00000000000E+00  0.56564643182E+02  0.56564643239E+02  0.25500000000E-02 0. -1.
          2   -1    0    0  501    0  0.00000000000E+00 -0.00000000000E+00 -0.98273261797E+03  0.98273261798E+03  0.25500000000E-02 0.  1.
    5000001    1    1    2    0    0  0.97798246254E+02  0.10321534929E+03 -0.45184238436E+03  0.50963069531E+03  0.18800000000E+03 0.  0.
   -5000001    1    1    2    0    0 -0.97798246254E+02 -0.10321534929E+03 -0.47432559044E+03  0.52966656591E+03  0.18800000000E+03 0.  0.
<mgrwt>
<rscale>  0 0.47154181E+03</rscale>
<asrwt>0</asrwt>
<pdfrwt beam="1">  1        2 0.14039036E+00 0.47154181E+03</pdfrwt>
<pdfrwt beam="2">  1       -2 0.80806639E-02 0.47154181E+03</pdfrwt>
<totfact> 0.27869413E+03</totfact>
</mgrwt>
</event>
<event>
 4    1  0.5917727E-005  0.4872602E+03  0.7818608E-02  0.1017159E+00
          2   -1    0    0  501    0  0.00000000000E+00  0.00000000000E+00  0.22641730450E+04  0.22641730450E+04  0.25500000000E-02 0.  1.
         -2   -1    0    0    0  501 -0.00000000000E+00 -0.00000000000E+00 -0.26215142413E+02  0.26215142537E+02  0.25500000000E-02 0. -1.
    5000001    1    1    2    0    0  0.13551157521E+03  0.70023201365E+02  0.99068049633E+03  0.10198325753E+04  0.18800000000E+03 0.  0.
   -5000001    1    1    2    0    0 -0.13551157521E+03 -0.70023201365E+02  0.12472774063E+04  0.12705556123E+04  0.18800000000E+03 0.  0.
<mgrwt>
<rscale>  0 0.48726017E+03</rscale>
<asrwt>0</asrwt>
<pdfrwt beam="1">  1        2 0.32345340E+00 0.48726017E+03</pdfrwt>
<pdfrwt beam="2">  1       -2 0.37450190E-02 0.48726017E+03</pdfrwt>
<totfact> 0.19646446E+03</totfact>
</mgrwt>
</event>
<event>
 4    1  0.5917727E-005  0.4784301E+03  0.7818608E-02  0.1019568E+00
          2   -1    0    0  501    0  0.00000000000E+00  0.00000000000E+00  0.40826784944E+03  0.40826784945E+03  0.25500000000E-02 0.  1.
         -2   -1    0    0    0  501 -0.00000000000E+00 -0.00000000000E+00 -0.14016251886E+03  0.14016251889E+03  0.25500000000E-02 0. -1.
    5000001    1    1    2    0    0 -0.12856325665E+03  0.65315522747E+02  0.17181529186E+03  0.29267579843E+03  0.18800000000E+03 0.  0.
   -5000001    1    1    2    0    0  0.12856325665E+03 -0.65315522747E+02  0.96290038714E+02  0.25575456990E+03  0.18800000000E+03 0.  0.
<mgrwt>
<rscale>  0 0.47843014E+03</rscale>
<asrwt>0</asrwt>
<pdfrwt beam="1">  1        2 0.58323979E-01 0.47843014E+03</pdfrwt>
<pdfrwt beam="2">  1       -2 0.20023217E-01 0.47843014E+03</pdfrwt>
<totfact> 0.17900680E+03</totfact>
</mgrwt>
</event>
<event>
 4    1  0.5917727E-005  0.4913568E+03  0.7818608E-02  0.1016060E+00
         -2   -1    0    0    0  501 -0.00000000000E+00  0.00000000000E+00  0.86187844039E+02  0.86187844077E+02  0.25500000000E-02 0. -1.
          2   -1    0    0  501    0  0.00000000000E+00 -0.00000000000E+00 -0.70030623538E+03  0.70030623539E+03  0.25500000000E-02 0.  1.
    5000001    1    1    2    0    0 -0.43209469830E+02 -0.14945878984E+03 -0.35258366860E+03  0.42879392662E+03  0.18800000000E+03 0.  0.
   -5000001    1    1    2    0    0  0.43209469830E+02  0.14945878984E+03 -0.26153472274E+03  0.35770015284E+03  0.18800000000E+03 0.  0.
<mgrwt>
<rscale>  0 0.49135683E+03</rscale>
<asrwt>0</asrwt>
<pdfrwt beam="1">  1        2 0.10004374E+00 0.49135683E+03</pdfrwt>
<pdfrwt beam="2">  1       -2 0.12312550E-01 0.49135683E+03</pdfrwt>
<totfact> 0.21867883E+03</totfact>
</mgrwt>
</event>
<event>
 4    1  0.5917727E-005  0.5752323E+03  0.7818608E-02  0.9958167E-01
         -2   -1    0    0    0  501 -0.00000000000E+00  0.00000000000E+00  0.38427894668E+02  0.38427894753E+02  0.25500000000E-02 0. -1.
          2   -1    0    0  501    0  0.00000000000E+00 -0.00000000000E+00 -0.21526823993E+04  0.21526823993E+04  0.25500000000E-02 0.  1.
    5000001    1    1    2    0    0  0.45297747194E+02  0.20338050480E+03 -0.81731993899E+03  0.86415935932E+03  0.18800000000E+03 0.  0.
   -5000001    1    1    2    0    0 -0.45297747194E+02 -0.20338050480E+03 -0.12969345657E+04  0.13269509348E+04  0.18800000000E+03 0.  0.
<mgrwt>
<rscale>  0 0.57523231E+03</rscale>
<asrwt>0</asrwt>
<pdfrwt beam="1">  1        2 0.30752598E+00 0.57523231E+03</pdfrwt>
<pdfrwt beam="2">  1       -2 0.54897006E-02 0.57523231E+03</pdfrwt>
<totfact> 0.12339075E+03</totfact>
</mgrwt>
</event>
<event>
 4    1  0.5917727E-005  0.6883270E+03  0.7818608E-02  0.9737405E-01
          2   -1    0    0  501    0  0.00000000000E+00  0.00000000000E+00  0.79252039637E+03  0.79252039637E+03  0.25500000000E-02 0.  1.
         -2   -1    0    0    0  501 -0.00000000000E+00 -0.00000000000E+00 -0.14945800372E+03  0.14945800374E+03  0.25500000000E-02 0. -1.
    5000001    1    1    2    0    0  0.10396569676E+03  0.21490155242E+03  0.54267475606E+03  0.62195774310E+03  0.18800000000E+03 0.  0.
   -5000001    1    1    2    0    0 -0.10396569676E+03 -0.21490155242E+03  0.10038763659E+03  0.32002065701E+03  0.18800000000E+03 0.  0.
<mgrwt>
<rscale>  0 0.68832700E+03</rscale>
<asrwt>0</asrwt>
<pdfrwt beam="1">  1        2 0.11321720E+00 0.68832700E+03</pdfrwt>
<pdfrwt beam="2">  1       -2 0.21351143E-01 0.68832700E+03</pdfrwt>
<totfact> 0.73406228E+02</totfact>
</mgrwt>
</event>
<event>
 4    1  0.5917727E-005  0.4240995E+03  0.7818608E-02  0.1035740E+00
         -2   -1    0    0    0  501 -0.00000000000E+00  0.00000000000E+00  0.28466871183E+03  0.28466871184E+03  0.25500000000E-02 0. -1.
          2   -1    0    0  501    0  0.00000000000E+00 -0.00000000000E+00 -0.15795591334E+03  0.15795591336E+03  0.25500000000E-02 0.  1.
    5000001    1    1    2    0    0  0.42748669455E+02  0.85615549759E+02  0.85829137981E+02  0.22774571791E+03  0.18800000000E+03 0.  0.
   -5000001    1    1    2    0    0 -0.42748669455E+02 -0.85615549759E+02  0.40883660511E+02  0.21487890729E+03  0.18800000000E+03 0.  0.
<mgrwt>
<rscale>  0 0.42409955E+03</rscale>
<asrwt>0</asrwt>
<pdfrwt beam="1">  1        2 0.22565130E-01 0.42409955E+03</pdfrwt>
<pdfrwt beam="2">  1       -2 0.40666959E-01 0.42409955E+03</pdfrwt>
<totfact> 0.14064656E+03</totfact>
</mgrwt>
</event>
<event>
 4    1  0.5917727E-005  0.6199471E+03  0.7818608E-02  0.9864865E-01
         -2   -1    0    0    0  501 -0.00000000000E+00  0.00000000000E+00  0.59348164815E+03  0.59348164815E+03  0.25500000000E-02 0. -1.
          2   -1    0    0  501    0  0.00000000000E+00 -0.00000000000E+00 -0.16189816864E+03  0.16189816866E+03  0.25500000000E-02 0.  1.
    5000001    1    1    2    0    0 -0.64389551055E+02 -0.23010560034E+03  0.14222881991E+03  0.33566000477E+03  0.18800000000E+03 0.  0.
   -5000001    1    1    2    0    0  0.64389551055E+02  0.23010560034E+03  0.28935465959E+03  0.41971981204E+03  0.18800000000E+03 0.  0.
<mgrwt>
<rscale>  0 0.61994707E+03</rscale>
<asrwt>0</asrwt>
<pdfrwt beam="1">  1        2 0.23128310E-01 0.61994707E+03</pdfrwt>
<pdfrwt beam="2">  1       -2 0.84783094E-01 0.61994707E+03</pdfrwt>
<totfact> 0.29364612E+02</totfact>
</mgrwt>
</event>
<event>
 4    1  0.5917727E-005  0.5201425E+03  0.7818608E-02  0.1008651E+00
          2   -1    0    0  501    0  0.00000000000E+00  0.00000000000E+00  0.36903416693E+03  0.36903416694E+03  0.25500000000E-02 0. -1.
         -2   -1    0    0    0  501 -0.00000000000E+00 -0.00000000000E+00 -0.18328125762E+03  0.18328125764E+03  0.25500000000E-02 0.  1.
    5000001    1    1    2    0    0 -0.68737047789E+02 -0.57532809349E+01 -0.83324677819E+02  0.21689832621E+03  0.18800000000E+03 0.  0.
   -5000001    1    1    2    0    0  0.68737047789E+02  0.57532809349E+01  0.26907758713E+03  0.33541709836E+03  0.18800000000E+03 0.  0.
<mgrwt>
<rscale>  0 0.52014247E+03</rscale>
<asrwt>0</asrwt>
<pdfrwt beam="1">  1        2 0.52719167E-01 0.52014247E+03</pdfrwt>
<pdfrwt beam="2">  1       -2 0.26183037E-01 0.52014247E+03</pdfrwt>
<totfact> 0.12463003E+03</totfact>
</mgrwt>
</event>
<event>
 4    1  0.5917727E-005  0.5154623E+03  0.7818608E-02  0.1009820E+00
          2   -1    0    0  501    0  0.00000000000E+00  0.00000000000E+00  0.74875639042E+03  0.74875639043E+03  0.25500000000E-02 0.  1.
         -2   -1    0    0    0  501 -0.00000000000E+00 -0.00000000000E+00 -0.88714215746E+02  0.88714215782E+02  0.25500000000E-02 0. -1.
    5000001    1    1    2    0    0  0.92468248227E+02  0.11810275655E+03  0.48053776084E+03  0.53736317108E+03  0.18800000000E+03 0.  0.
   -5000001    1    1    2    0    0 -0.92468248227E+02 -0.11810275655E+03  0.17950441384E+03  0.30010743513E+03  0.18800000000E+03 0.  0.
<mgrwt>
<rscale>  0 0.51546226E+03</rscale>
<asrwt>0</asrwt>
<pdfrwt beam="1">  1        2 0.10696519E+00 0.51546226E+03</pdfrwt>
<pdfrwt beam="2">  1       -2 0.12673460E-01 0.51546226E+03</pdfrwt>
<totfact> 0.19208752E+03</totfact>
</mgrwt>
</event>
<event>
 4    1  0.5917727E-005  0.6261264E+03  0.7818608E-02  0.9852637E-01
          2   -1    0    0  501    0  0.00000000000E+00  0.00000000000E+00  0.26768204029E+04  0.26768204029E+04  0.25500000000E-02 0.  1.
         -2   -1    0    0    0  501 -0.00000000000E+00 -0.00000000000E+00 -0.36613794234E+02  0.36613794323E+02  0.25500000000E-02 0. -1.
    5000001    1    1    2    0    0 -0.12617098307E+03  0.21609548123E+03  0.13501834406E+04  0.13859854607E+04  0.18800000000E+03 0.  0.
   -5000001    1    1    2    0    0  0.12617098307E+03 -0.21609548123E+03  0.12900231681E+04  0.13274487366E+04  0.18800000000E+03 0.  0.
<mgrwt>
<rscale>  0 0.62612635E+03</rscale>
<asrwt>0</asrwt>
<pdfrwt beam="1">  1        2 0.38240298E+00 0.62612635E+03</pdfrwt>
<pdfrwt beam="2">  1       -2 0.52305411E-02 0.62612635E+03</pdfrwt>
<totfact> 0.71574334E+02</totfact>
</mgrwt>
</event>
<event>
 4    1  0.5917727E-005  0.7452282E+03  0.7818608E-02  0.9642866E-01
          2   -1    0    0  501    0  0.00000000000E+00  0.00000000000E+00  0.92729396596E+03  0.92729396596E+03  0.25500000000E-02 0.  1.
         -2   -1    0    0    0  501 -0.00000000000E+00 -0.00000000000E+00 -0.14972735664E+03  0.14972735666E+03  0.25500000000E-02 0. -1.
    5000001    1    1    2    0    0  0.13293939130E+03 -0.11956030470E+03  0.22576794270E+01  0.25945451496E+03  0.18800000000E+03 0.  0.
   -5000001    1    1    2    0    0 -0.13293939130E+03  0.11956030470E+03  0.77530892989E+03  0.81756680766E+03  0.18800000000E+03 0.  0.
<mgrwt>
<rscale>  0 0.74522822E+03</rscale>
<asrwt>0</asrwt>
<pdfrwt beam="1">  1        2 0.13247056E+00 0.74522822E+03</pdfrwt>
<pdfrwt beam="2">  1       -2 0.21389623E-01 0.74522822E+03</pdfrwt>
<totfact> 0.59367022E+02</totfact>
</mgrwt>
</event>
<event>
 4    1  0.5917727E-005  0.5149295E+03  0.7818608E-02  0.1009954E+00
          2   -1    0    0  501    0  0.00000000000E+00  0.00000000000E+00  0.13982796292E+03  0.13982796294E+03  0.25500000000E-02 0.  1.
         -2   -1    0    0    0  501 -0.00000000000E+00 -0.00000000000E+00 -0.47406896318E+03  0.47406896319E+03  0.25500000000E-02 0. -1.
    5000001    1    1    2    0    0  0.89034869932E+01  0.14702353930E+03 -0.52465545409E+02  0.24452367297E+03  0.18800000000E+03 0.  0.
   -5000001    1    1    2    0    0 -0.89034869932E+01 -0.14702353930E+03 -0.28177545486E+03  0.36937325316E+03  0.18800000000E+03 0.  0.
<mgrwt>
<rscale>  0 0.51492950E+03</rscale>
<asrwt>0</asrwt>
<pdfrwt beam="1">  1        2 0.19975423E-01 0.51492950E+03</pdfrwt>
<pdfrwt beam="2">  1       -2 0.67724137E-01 0.51492950E+03</pdfrwt>
<totfact> 0.57279197E+02</totfact>
</mgrwt>
</event>
<event>
 4    1  0.5917727E-005  0.8100777E+03  0.7818608E-02  0.9545544E-01
          2   -1    0    0  501    0  0.00000000000E+00  0.00000000000E+00  0.15976274790E+04  0.15976274790E+04  0.25500000000E-02 0.  1.
         -2   -1    0    0    0  501 -0.00000000000E+00 -0.00000000000E+00 -0.10268755646E+03  0.10268755649E+03  0.25500000000E-02 0. -1.
    5000001    1    1    2    0    0  0.15255096841E+03  0.30899870235E+03  0.53798996533E+03  0.66597987868E+03  0.18800000000E+03 0.  0.
   -5000001    1    1    2    0    0 -0.15255096841E+03 -0.30899870235E+03  0.95694995717E+03  0.10343351568E+04  0.18800000000E+03 0.  0.
<mgrwt>
<rscale>  0 0.81007768E+03</rscale>
<asrwt>0</asrwt>
<pdfrwt beam="1">  1        2 0.22823250E+00 0.81007768E+03</pdfrwt>
<pdfrwt beam="2">  1       -2 0.14669651E-01 0.81007768E+03</pdfrwt>
<totfact> 0.47603830E+02</totfact>
</mgrwt>
</event>
<event>
 4    1  0.5917727E-005  0.4056305E+03  0.7818608E-02  0.1041847E+00
          2   -1    0    0  501    0  0.00000000000E+00  0.00000000000E+00  0.11298725979E+04  0.11298725979E+04  0.25500000000E-02 0.  1.
         -2   -1    0    0    0  501 -0.00000000000E+00 -0.00000000000E+00 -0.36405895969E+02  0.36405896058E+02  0.25500000000E-02 0. -1.
    5000001    1    1    2    0    0 -0.61118322185E+02 -0.43825581553E+02  0.58000323328E+03  0.61433206129E+03  0.18800000000E+03 0.  0.
   -5000001    1    1    2    0    0  0.61118322185E+02  0.43825581553E+02  0.51346346862E+03  0.55194643265E+03  0.18800000000E+03 0.  0.
<mgrwt>
<rscale>  0 0.40563049E+03</rscale>
<asrwt>0</asrwt>
<pdfrwt beam="1">  1        2 0.16141037E+00 0.40563049E+03</pdfrwt>
<pdfrwt beam="2">  1       -2 0.52008422E-02 0.40563049E+03</pdfrwt>
<totfact> 0.45421818E+03</totfact>
</mgrwt>
</event>
<event>
 4    1  0.5917727E-005  0.1182290E+04  0.7818608E-02  0.9128501E-01
          2   -1    0    0  501    0  0.00000000000E+00  0.00000000000E+00  0.25050120255E+03  0.25050120257E+03  0.25500000000E-02 0.  1.
         -2   -1    0    0    0  501 -0.00000000000E+00 -0.00000000000E+00 -0.13950127806E+04  0.13950127806E+04  0.25500000000E-02 0. -1.
    5000001    1    1    2    0    0 -0.39343559371E+03 -0.26781541674E+03 -0.16033937665E+03  0.53625495760E+03  0.18800000000E+03 0.  0.
   -5000001    1    1    2    0    0  0.39343559371E+03  0.26781541674E+03 -0.98417220144E+03  0.11092590256E+04  0.18800000000E+03 0.  0.
<mgrwt>
<rscale>  0 0.11822899E+04</rscale>
<asrwt>0</asrwt>
<pdfrwt beam="1">  1        2 0.35785887E-01 0.11822899E+04</pdfrwt>
<pdfrwt beam="2">  1       -2 0.19928754E+00 0.11822899E+04</pdfrwt>
<totfact> 0.19392990E+01</totfact>
</mgrwt>
</event>
<event>
 4    1  0.5917727E-005  0.6524092E+03  0.7818608E-02  0.9802269E-01
          2   -1    0    0  501    0  0.00000000000E+00  0.00000000000E+00  0.93770699582E+03  0.93770699582E+03  0.25500000000E-02 0.  1.
         -2   -1    0    0    0  501 -0.00000000000E+00 -0.00000000000E+00 -0.11347836184E+03  0.11347836187E+03  0.25500000000E-02 0. -1.
    5000001    1    1    2    0    0 -0.11278847935E+03 -0.22579717049E+03  0.27388705771E+03  0.41720944819E+03  0.18800000000E+03 0.  0.
   -5000001    1    1    2    0    0  0.11278847935E+03  0.22579717049E+03  0.55034157627E+03  0.63397590951E+03  0.18800000000E+03 0.  0.
<mgrwt>
<rscale>  0 0.65240924E+03</rscale>
<asrwt>0</asrwt>
<pdfrwt beam="1">  1        2 0.13395813E+00 0.65240924E+03</pdfrwt>
<pdfrwt beam="2">  1       -2 0.16211196E-01 0.65240924E+03</pdfrwt>
<totfact> 0.94748625E+02</totfact>
</mgrwt>
</event>
<event>
 4    1  0.5917727E-005  0.4311161E+03  0.7818608E-02  0.1033508E+00
         -2   -1    0    0    0  501 -0.00000000000E+00  0.00000000000E+00  0.19803152869E+02  0.19803153033E+02  0.25500000000E-02 0. -1.
          2   -1    0    0  501    0  0.00000000000E+00 -0.00000000000E+00 -0.23463577275E+04  0.23463577275E+04  0.25500000000E-02 0.  1.
    5000001    1    1    2    0    0 -0.97324408685E+02  0.53568667406E+01 -0.13842203956E+04  0.14003252623E+04  0.18800000000E+03 0.  0.
   -5000001    1    1    2    0    0  0.97324408685E+02 -0.53568667406E+01 -0.94233417906E+03  0.96583561830E+03  0.18800000000E+03 0.  0.
<mgrwt>
<rscale>  0 0.43111614E+03</rscale>
<asrwt>0</asrwt>
<pdfrwt beam="1">  1        2 0.33519378E+00 0.43111614E+03</pdfrwt>
<pdfrwt beam="2">  1       -2 0.28290234E-02 0.43111614E+03</pdfrwt>
<totfact> 0.27402798E+03</totfact>
</mgrwt>
</event>
<event>
 4    1  0.5917727E-005  0.5670824E+03  0.7818608E-02  0.9976156E-01
          2   -1    0    0  501    0  0.00000000000E+00  0.00000000000E+00  0.61952943976E+03  0.61952943977E+03  0.25500000000E-02 0.  1.
         -2   -1    0    0    0  501 -0.00000000000E+00 -0.00000000000E+00 -0.12976884475E+03  0.12976884478E+03  0.25500000000E-02 0. -1.
    5000001    1    1    2    0    0 -0.79435835490E+02 -0.14983658975E+03  0.41352651724E+03  0.48488064104E+03  0.18800000000E+03 0.  0.
   -5000001    1    1    2    0    0  0.79435835490E+02  0.14983658975E+03  0.76234077762E+02  0.26441764351E+03  0.18800000000E+03 0.  0.
<mgrwt>
<rscale>  0 0.56708243E+03</rscale>
<asrwt>0</asrwt>
<pdfrwt beam="1">  1        2 0.88504206E-01 0.56708243E+03</pdfrwt>
<pdfrwt beam="2">  1       -2 0.18538406E-01 0.56708243E+03</pdfrwt>
<totfact> 0.12730316E+03</totfact>
</mgrwt>
</event>
<event>
 4    1  0.5917727E-005  0.5986773E+03  0.7818608E-02  0.9908154E-01
         -2   -1    0    0    0  501 -0.00000000000E+00  0.00000000000E+00  0.51086187887E+02  0.51086187951E+02  0.25500000000E-02 0. -1.
          2   -1    0    0  501    0  0.00000000000E+00 -0.00000000000E+00 -0.17539699346E+04  0.17539699346E+04  0.25500000000E-02 0.  1.
    5000001    1    1    2    0    0 -0.15362704021E+03  0.15380396004E+03 -0.11037498776E+04  0.11405545660E+04  0.18800000000E+03 0.  0.
   -5000001    1    1    2    0    0  0.15362704021E+03 -0.15380396004E+03 -0.59913386912E+03  0.66450155661E+03  0.18800000000E+03 0.  0.
<mgrwt>
<rscale>  0 0.59867733E+03</rscale>
<asrwt>0</asrwt>
<pdfrwt beam="1">  1        2 0.25056710E+00 0.59867733E+03</pdfrwt>
<pdfrwt beam="2">  1       -2 0.72980279E-02 0.59867733E+03</pdfrwt>
<totfact> 0.12504021E+03</totfact>
</mgrwt>
</event>
<event>
 4    1  0.5917727E-005  0.4872199E+03  0.7818608E-02  0.1017170E+00
         -2   -1    0    0    0  501 -0.00000000000E+00  0.00000000000E+00  0.27201916366E+02  0.27201916486E+02  0.25500000000E-02 0. -1.
          2   -1    0    0  501    0  0.00000000000E+00 -0.00000000000E+00 -0.21816776647E+04  0.21816776647E+04  0.25500000000E-02 0.  1.
    5000001    1    1    2    0    0 -0.13565444304E+03 -0.74014330246E+02 -0.10272516422E+04  0.10556846998E+04  0.18800000000E+03 0.  0.
   -5000001    1    1    2    0    0  0.13565444304E+03  0.74014330246E+02 -0.11272241062E+04  0.11531948815E+04  0.18800000000E+03 0.  0.
<mgrwt>
<rscale>  0 0.48721992E+03</rscale>
<asrwt>0</asrwt>
<pdfrwt beam="1">  1        2 0.31166813E+00 0.48721992E+03</pdfrwt>
<pdfrwt beam="2">  1       -2 0.38859895E-02 0.48721992E+03</pdfrwt>
<totfact> 0.20422217E+03</totfact>
</mgrwt>
</event>
<event>
 4    1  0.5917727E-005  0.7333148E+03  0.7818608E-02  0.9661897E-01
         -2   -1    0    0    0  501 -0.00000000000E+00  0.00000000000E+00  0.21057454979E+03  0.21057454981E+03  0.25500000000E-02 0. -1.
          2   -1    0    0  501    0  0.00000000000E+00 -0.00000000000E+00 -0.63843248234E+03  0.63843248234E+03  0.25500000000E-02 0.  1.
    5000001    1    1    2    0    0 -0.27853951216E+03 -0.20094478298E+02 -0.38212647442E+03  0.50926681646E+03  0.18800000000E+03 0.  0.
   -5000001    1    1    2    0    0  0.27853951216E+03  0.20094478298E+02 -0.45731458123E+02  0.33974021569E+03  0.18800000000E+03 0.  0.
<mgrwt>
<rscale>  0 0.73331476E+03</rscale>
<asrwt>0</asrwt>
<pdfrwt beam="1">  1        2 0.91204639E-01 0.73331476E+03</pdfrwt>
<pdfrwt beam="2">  1       -2 0.30082079E-01 0.73331476E+03</pdfrwt>
<totfact> 0.51585808E+02</totfact>
</mgrwt>
</event>
<event>
 4    1  0.5917727E-005  0.5939198E+03  0.7818608E-02  0.9918101E-01
          2   -1    0    0  501    0  0.00000000000E+00  0.00000000000E+00  0.58590067827E+03  0.58590067827E+03  0.25500000000E-02 0.  1.
         -2   -1    0    0    0  501 -0.00000000000E+00 -0.00000000000E+00 -0.15051215935E+03  0.15051215938E+03  0.25500000000E-02 0. -1.
    5000001    1    1    2    0    0 -0.18857678818E+03  0.12552695537E+03  0.16930632832E+03  0.33959807769E+03  0.18800000000E+03 0.  0.
   -5000001    1    1    2    0    0  0.18857678818E+03 -0.12552695537E+03  0.26608219060E+03  0.39681475996E+03  0.18800000000E+03 0.  0.
<mgrwt>
<rscale>  0 0.59391978E+03</rscale>
<asrwt>0</asrwt>
<pdfrwt beam="1">  1        2 0.83700095E-01 0.59391978E+03</pdfrwt>
<pdfrwt beam="2">  1       -2 0.21501737E-01 0.59391978E+03</pdfrwt>
<totfact> 0.10499650E+03</totfact>
</mgrwt>
</event>
<event>
 4    1  0.5917727E-005  0.5101614E+03  0.7818608E-02  0.1011160E+00
          2   -1    0    0  501    0  0.00000000000E+00  0.00000000000E+00  0.56562646691E+03  0.56562646692E+03  0.25500000000E-02 0.  1.
         -2   -1    0    0    0  501 -0.00000000000E+00 -0.00000000000E+00 -0.11503378818E+03  0.11503378821E+03  0.25500000000E-02 0. -1.
    5000001    1    1    2    0    0  0.38757713745E+02 -0.16336249028E+03  0.27752996972E+03  0.37490845243E+03  0.18800000000E+03 0.  0.
   -5000001    1    1    2    0    0 -0.38757713745E+02  0.16336249028E+03  0.17306270901E+03  0.30575180270E+03  0.18800000000E+03 0.  0.
<mgrwt>
<rscale>  0 0.51016137E+03</rscale>
<asrwt>0</asrwt>
<pdfrwt beam="1">  1        2 0.80803781E-01 0.51016137E+03</pdfrwt>
<pdfrwt beam="2">  1       -2 0.16433398E-01 0.51016137E+03</pdfrwt>
<totfact> 0.17398365E+03</totfact>
</mgrwt>
</event>
<event>
 4    1  0.5917727E-005  0.9044801E+03  0.7818608E-02  0.9419998E-01
          2   -1    0    0  501    0  0.00000000000E+00  0.00000000000E+00  0.15274324219E+04  0.15274324219E+04  0.25500000000E-02 0.  1.
         -2   -1    0    0    0  501 -0.00000000000E+00 -0.00000000000E+00 -0.13389860820E+03  0.13389860823E+03  0.25500000000E-02 0. -1.
    5000001    1    1    2    0    0  0.16132890968E+03  0.34215983105E+03  0.40015844806E+03  0.58186867129E+03  0.18800000000E+03 0.  0.
   -5000001    1    1    2    0    0 -0.16132890968E+03 -0.34215983105E+03  0.99337536561E+03  0.10794623588E+04  0.18800000000E+03 0.  0.
<mgrwt>
<rscale>  0 0.90448013E+03</rscale>
<asrwt>0</asrwt>
<pdfrwt beam="1">  1        2 0.21820461E+00 0.90448013E+03</pdfrwt>
<pdfrwt beam="2">  1       -2 0.19128374E-01 0.90448013E+03</pdfrwt>
<totfact> 0.32687506E+02</totfact>
</mgrwt>
</event>
<event>
 4    1  0.5917727E-005  0.4504741E+03  0.7818608E-02  0.1027581E+00
         -2   -1    0    0    0  501 -0.00000000000E+00  0.00000000000E+00  0.15723891336E+03  0.15723891338E+03  0.25500000000E-02 0. -1.
          2   -1    0    0  501    0  0.00000000000E+00 -0.00000000000E+00 -0.32264103398E+03  0.32264103399E+03  0.25500000000E-02 0.  1.
    5000001    1    1    2    0    0  0.54081003085E+02  0.10973094986E+03 -0.10458698916E+03  0.24748348339E+03  0.18800000000E+03 0.  0.
   -5000001    1    1    2    0    0 -0.54081003085E+02 -0.10973094986E+03 -0.60815131461E+02  0.23239646397E+03  0.18800000000E+03 0.  0.
<mgrwt>
<rscale>  0 0.45047409E+03</rscale>
<asrwt>0</asrwt>
<pdfrwt beam="1">  1        2 0.46091576E-01 0.45047409E+03</pdfrwt>
<pdfrwt beam="2">  1       -2 0.22462702E-01 0.45047409E+03</pdfrwt>
<totfact> 0.18958726E+03</totfact>
</mgrwt>
</event>
<event>
 4    1  0.5917727E-005  0.4784485E+03  0.7818608E-02  0.1019562E+00
         -2   -1    0    0    0  501 -0.00000000000E+00  0.00000000000E+00  0.18495635516E+03  0.18495635518E+03  0.25500000000E-02 0. -1.
          2   -1    0    0  501    0  0.00000000000E+00 -0.00000000000E+00 -0.30941482303E+03  0.30941482304E+03  0.25500000000E-02 0.  1.
    5000001    1    1    2    0    0 -0.13954053515E+03  0.42137501074E+02 -0.88310248195E+02  0.25375151208E+03  0.18800000000E+03 0.  0.
   -5000001    1    1    2    0    0  0.13954053515E+03 -0.42137501074E+02 -0.36148219671E+02  0.24061966614E+03  0.18800000000E+03 0.  0.
<mgrwt>
<rscale>  0 0.47844848E+03</rscale>
<asrwt>0</asrwt>
<pdfrwt beam="1">  1        2 0.44202117E-01 0.47844848E+03</pdfrwt>
<pdfrwt beam="2">  1       -2 0.26422337E-01 0.47844848E+03</pdfrwt>
<totfact> 0.14875157E+03</totfact>
</mgrwt>
</event>
<event>
 4    1  0.5917727E-005  0.6563639E+03  0.7818608E-02  0.9794910E-01
         -2   -1    0    0    0  501 -0.00000000000E+00  0.00000000000E+00  0.13091090298E+03  0.13091090301E+03  0.25500000000E-02 0. -1.
          2   -1    0    0  501    0  0.00000000000E+00 -0.00000000000E+00 -0.82272295559E+03  0.82272295560E+03  0.25500000000E-02 0.  1.
    5000001    1    1    2    0    0 -0.22768315877E+03  0.94382175772E+02 -0.18934396878E+03  0.36323925229E+03  0.18800000000E+03 0.  0.
   -5000001    1    1    2    0    0  0.22768315877E+03 -0.94382175772E+02 -0.50246808383E+03  0.59039460631E+03  0.18800000000E+03 0.  0.
<mgrwt>
<rscale>  0 0.65636394E+03</rscale>
<asrwt>0</asrwt>
<pdfrwt beam="1">  1        2 0.11753185E+00 0.65636394E+03</pdfrwt>
<pdfrwt beam="2">  1       -2 0.18701558E-01 0.65636394E+03</pdfrwt>
<totfact> 0.88231426E+02</totfact>
</mgrwt>
</event>
<event>
 4    1  0.5917727E-005  0.5307756E+03  0.7818608E-02  0.1006044E+00
         -2   -1    0    0    0  501 -0.00000000000E+00  0.00000000000E+00  0.66254015712E+02  0.66254015761E+02  0.25500000000E-02 0. -1.
          2   -1    0    0  501    0  0.00000000000E+00 -0.00000000000E+00 -0.10630400402E+04  0.10630400402E+04  0.25500000000E-02 0.  1.
    5000001    1    1    2    0    0 -0.13173895409E+03 -0.54177728259E+02 -0.23958805094E+03  0.33620947699E+03  0.18800000000E+03 0.  0.
   -5000001    1    1    2    0    0  0.13173895409E+03  0.54177728259E+02 -0.75719797354E+03  0.79308457896E+03  0.18800000000E+03 0.  0.
<mgrwt>
<rscale>  0 0.53077555E+03</rscale>
<asrwt>0</asrwt>
<pdfrwt beam="1">  1        2 0.15186285E+00 0.53077555E+03</pdfrwt>
<pdfrwt beam="2">  1       -2 0.94648600E-02 0.53077555E+03</pdfrwt>
<totfact> 0.19377362E+03</totfact>
</mgrwt>
</event>
<event>
 4    1  0.5917727E-005  0.4937778E+03  0.7818608E-02  0.1015416E+00
          2   -1    0    0  501    0  0.00000000000E+00  0.00000000000E+00  0.83400854400E+03  0.83400854400E+03  0.25500000000E-02 0.  1.
         -2   -1    0    0    0  501 -0.00000000000E+00 -0.00000000000E+00 -0.73085728867E+02  0.73085728912E+02  0.25500000000E-02 0. -1.
    5000001    1    1    2    0    0 -0.15110771126E+03  0.52606733429E+02  0.38600720956E+03  0.45819927394E+03  0.18800000000E+03 0.  0.
   -5000001    1    1    2    0    0  0.15110771126E+03 -0.52606733429E+02  0.37491560557E+03  0.44889499897E+03  0.18800000000E+03 0.  0.
<mgrwt>
<rscale>  0 0.49377777E+03</rscale>
<asrwt>0</asrwt>
<pdfrwt beam="1">  1        2 0.11914407E+00 0.49377777E+03</pdfrwt>
<pdfrwt beam="2">  1       -2 0.10440819E-01 0.49377777E+03</pdfrwt>
<totfact> 0.23002088E+03</totfact>
</mgrwt>
</event>
<event>
 4    1  0.5917727E-005  0.8041941E+03  0.7818608E-02  0.9553966E-01
          2   -1    0    0  501    0  0.00000000000E+00  0.00000000000E+00  0.13753661905E+04  0.13753661906E+04  0.25500000000E-02 0.  1.
         -2   -1    0    0    0  501 -0.00000000000E+00 -0.00000000000E+00 -0.11755563115E+03  0.11755563118E+03  0.25500000000E-02 0. -1.
    5000001    1    1    2    0    0  0.13990004256E+02  0.29885092352E+03  0.98517561945E+03  0.10466243815E+04  0.18800000000E+03 0.  0.
   -5000001    1    1    2    0    0 -0.13990004256E+02 -0.29885092352E+03  0.27263493995E+03  0.44629744027E+03  0.18800000000E+03 0.  0.
<mgrwt>
<rscale>  0 0.80419411E+03</rscale>
<asrwt>0</asrwt>
<pdfrwt beam="1">  1        2 0.19648088E+00 0.80419411E+03</pdfrwt>
<pdfrwt beam="2">  1       -2 0.16793662E-01 0.80419411E+03</pdfrwt>
<totfact> 0.49578177E+02</totfact>
</mgrwt>
</event>
<event>
 4    1  0.5917727E-005  0.5241545E+03  0.7818608E-02  0.1007660E+00
         -2   -1    0    0    0  501 -0.00000000000E+00  0.00000000000E+00  0.11892485883E+03  0.11892485886E+03  0.25500000000E-02 0. -1.
          2   -1    0    0  501    0  0.00000000000E+00 -0.00000000000E+00 -0.57754530790E+03  0.57754530791E+03  0.25500000000E-02 0.  1.
    5000001    1    1    2    0    0  0.76113661047E+02 -0.14279777813E+03 -0.34171333194E+03  0.42225169753E+03  0.18800000000E+03 0.  0.
   -5000001    1    1    2    0    0 -0.76113661047E+02  0.14279777813E+03 -0.11690711713E+03  0.27421846924E+03  0.18800000000E+03 0.  0.
<mgrwt>
<rscale>  0 0.52415454E+03</rscale>
<asrwt>0</asrwt>
<pdfrwt beam="1">  1        2 0.82506471E-01 0.52415454E+03</pdfrwt>
<pdfrwt beam="2">  1       -2 0.16989266E-01 0.52415454E+03</pdfrwt>
<totfact> 0.16050755E+03</totfact>
</mgrwt>
</event>
<event>
 4    1  0.5917727E-005  0.4534304E+03  0.7818608E-02  0.1026704E+00
         -2   -1    0    0    0  501 -0.00000000000E+00  0.00000000000E+00  0.11621235123E+03  0.11621235125E+03  0.25500000000E-02 0. -1.
          2   -1    0    0  501    0  0.00000000000E+00 -0.00000000000E+00 -0.44229185225E+03  0.44229185226E+03  0.25500000000E-02 0.  1.
    5000001    1    1    2    0    0 -0.12002243311E+03  0.23777499271E+02 -0.12246693536E+03  0.25556389451E+03  0.18800000000E+03 0.  0.
   -5000001    1    1    2    0    0  0.12002243311E+03 -0.23777499271E+02 -0.20361256566E+03  0.30294030900E+03  0.18800000000E+03 0.  0.
<mgrwt>
<rscale>  0 0.45343037E+03</rscale>
<asrwt>0</asrwt>
<pdfrwt beam="1">  1        2 0.63184549E-01 0.45343037E+03</pdfrwt>
<pdfrwt beam="2">  1       -2 0.16601765E-01 0.45343037E+03</pdfrwt>
<totfact> 0.22567771E+03</totfact>
</mgrwt>
</event>
<event>
 4    1  0.5917727E-005  0.4984959E+03  0.7818608E-02  0.1014172E+00
          2   -1    0    0  501    0  0.00000000000E+00  0.00000000000E+00  0.14302417775E+04  0.14302417775E+04  0.25500000000E-02 0.  1.
         -2   -1    0    0    0  501 -0.00000000000E+00 -0.00000000000E+00 -0.43436393839E+02  0.43436393913E+02  0.25500000000E-02 0. -1.
    5000001    1    1    2    0    0  0.85901157892E+02  0.87443549279E+02  0.37288253083E+03  0.43521347065E+03  0.18800000000E+03 0.  0.
   -5000001    1    1    2    0    0 -0.85901157892E+02 -0.87443549279E+02  0.10139228528E+04  0.10384647007E+04  0.18800000000E+03 0.  0.
<mgrwt>
<rscale>  0 0.49849592E+03</rscale>
<asrwt>0</asrwt>
<pdfrwt beam="1">  1        2 0.20432020E+00 0.49849592E+03</pdfrwt>
<pdfrwt beam="2">  1       -2 0.62052007E-02 0.49849592E+03</pdfrwt>
<totfact> 0.23743748E+03</totfact>
</mgrwt>
</event>
<event>
 4    1  0.5917727E-005  0.5009259E+03  0.7818608E-02  0.1013538E+00
          2   -1    0    0  501    0  0.00000000000E+00  0.00000000000E+00  0.20202150826E+03  0.20202150828E+03  0.25500000000E-02 0.  1.
         -2   -1    0    0    0  501 -0.00000000000E+00 -0.00000000000E+00 -0.31051986973E+03  0.31051986974E+03  0.25500000000E-02 0. -1.
    5000001    1    1    2    0    0 -0.37492542199E+01 -0.16413713835E+03 -0.75531376449E+02  0.26077585379E+03  0.18800000000E+03 0.  0.
   -5000001    1    1    2    0    0  0.37492542199E+01  0.16413713835E+03 -0.32966985023E+02  0.25176552423E+03  0.18800000000E+03 0.  0.
<mgrwt>
<rscale>  0 0.50092591E+03</rscale>
<asrwt>0</asrwt>
<pdfrwt beam="1">  1        2 0.28860216E-01 0.50092591E+03</pdfrwt>
<pdfrwt beam="2">  1       -2 0.44359981E-01 0.50092591E+03</pdfrwt>
<totfact> 0.89880461E+02</totfact>
</mgrwt>
</event>
<event>
 4    1  0.5917727E-005  0.6691866E+03  0.7818608E-02  0.9771428E-01
         -2   -1    0    0    0  501 -0.00000000000E+00  0.00000000000E+00  0.14072225343E+03  0.14072225345E+03  0.25500000000E-02 0. -1.
          2   -1    0    0  501    0  0.00000000000E+00 -0.00000000000E+00 -0.79555763647E+03  0.79555763647E+03  0.25500000000E-02 0.  1.
    5000001    1    1    2    0    0  0.18899930287E+03  0.15922195581E+03 -0.50181196632E+03  0.59011152949E+03  0.18800000000E+03 0.  0.
   -5000001    1    1    2    0    0 -0.18899930287E+03 -0.15922195581E+03 -0.15302341672E+03  0.34616836043E+03  0.18800000000E+03 0.  0.
<mgrwt>
<rscale>  0 0.66918656E+03</rscale>
<asrwt>0</asrwt>
<pdfrwt beam="1">  1        2 0.11365109E+00 0.66918656E+03</pdfrwt>
<pdfrwt beam="2">  1       -2 0.20103179E-01 0.66918656E+03</pdfrwt>
<totfact> 0.81226159E+02</totfact>
</mgrwt>
</event>
<event>
 4    1  0.5917727E-005  0.6906502E+03  0.7818608E-02  0.9733357E-01
         -2   -1    0    0    0  501 -0.00000000000E+00  0.00000000000E+00  0.12483208306E+03  0.12483208309E+03  0.25500000000E-02 0. -1.
          2   -1    0    0  501    0  0.00000000000E+00 -0.00000000000E+00 -0.95527867242E+03  0.95527867242E+03  0.25500000000E-02 0.  1.
    5000001    1    1    2    0    0 -0.17094461275E+02 -0.24351822130E+03 -0.17137415918E+03  0.35257119444E+03  0.18800000000E+03 0.  0.
   -5000001    1    1    2    0    0  0.17094461275E+02  0.24351822130E+03 -0.65907243018E+03  0.72753956108E+03  0.18800000000E+03 0.  0.
<mgrwt>
<rscale>  0 0.69065021E+03</rscale>
<asrwt>0</asrwt>
<pdfrwt beam="1">  1        2 0.13646838E+00 0.69065021E+03</pdfrwt>
<pdfrwt beam="2">  1       -2 0.17833155E-01 0.69065021E+03</pdfrwt>
<totfact> 0.78377991E+02</totfact>
</mgrwt>
</event>
<event>
 4    1  0.5917727E-005  0.5209562E+03  0.7818608E-02  0.1008449E+00
          2   -1    0    0  501    0  0.00000000000E+00  0.00000000000E+00  0.21707189583E+04  0.21707189583E+04  0.25500000000E-02 0.  1.
         -2   -1    0    0    0  501 -0.00000000000E+00 -0.00000000000E+00 -0.31256385238E+02  0.31256385342E+02  0.25500000000E-02 0. -1.
    5000001    1    1    2    0    0 -0.11094571055E+03  0.41757136691E+02  0.49556778688E+03  0.54312433250E+03  0.18800000000E+03 0.  0.
   -5000001    1    1    2    0    0  0.11094571055E+03 -0.41757136691E+02  0.16438947862E+04  0.16588510112E+04  0.18800000000E+03 0.  0.
<mgrwt>
<rscale>  0 0.52095615E+03</rscale>
<asrwt>0</asrwt>
<pdfrwt beam="1">  1        2 0.31010268E+00 0.52095615E+03</pdfrwt>
<pdfrwt beam="2">  1       -2 0.44651983E-02 0.52095615E+03</pdfrwt>
<totfact> 0.16687023E+03</totfact>
</mgrwt>
</event>
<event>
 4    1  0.5917727E-005  0.4574164E+03  0.7818608E-02  0.1025533E+00
         -2   -1    0    0    0  501 -0.00000000000E+00  0.00000000000E+00  0.45113694330E+02  0.45113694402E+02  0.25500000000E-02 0. -1.
          2   -1    0    0  501    0  0.00000000000E+00 -0.00000000000E+00 -0.11594582251E+04  0.11594582251E+04  0.25500000000E-02 0.  1.
    5000001    1    1    2    0    0 -0.65989903128E+02 -0.17577104851E+01 -0.85284021656E+03  0.87580716590E+03  0.18800000000E+03 0.  0.
   -5000001    1    1    2    0    0  0.65989903128E+02  0.17577104851E+01 -0.26150431421E+03  0.32876475360E+03  0.18800000000E+03 0.  0.
<mgrwt>
<rscale>  0 0.45741641E+03</rscale>
<asrwt>0</asrwt>
<pdfrwt beam="1">  1        2 0.16563687E+00 0.45741641E+03</pdfrwt>
<pdfrwt beam="2">  1       -2 0.64448142E-02 0.45741641E+03</pdfrwt>
<totfact> 0.31366530E+03</totfact>
</mgrwt>
</event>
<event>
 4    1  0.5917727E-005  0.4258589E+03  0.7818608E-02  0.1035176E+00
          2   -1    0    0  501    0  0.00000000000E+00  0.00000000000E+00  0.66464987807E+03  0.66464987807E+03  0.25500000000E-02 0.  1.
         -2   -1    0    0    0  501 -0.00000000000E+00 -0.00000000000E+00 -0.68214778635E+02  0.68214778683E+02  0.25500000000E-02 0. -1.
    5000001    1    1    2    0    0 -0.91393258987E+02 -0.30426411592E+01  0.22867578567E+03  0.30983640910E+03  0.18800000000E+03 0.  0.
   -5000001    1    1    2    0    0  0.91393258987E+02  0.30426411592E+01  0.36775931376E+03  0.42302824765E+03  0.18800000000E+03 0.  0.
<mgrwt>
<rscale>  0 0.42585887E+03</rscale>
<asrwt>0</asrwt>
<pdfrwt beam="1">  1        2 0.94949983E-01 0.42585887E+03</pdfrwt>
<pdfrwt beam="2">  1       -2 0.97449684E-02 0.42585887E+03</pdfrwt>
<totfact> 0.33995453E+03</totfact>
</mgrwt>
</event>
<event>
 4    1  0.5917727E-005  0.9741016E+03  0.7818608E-02  0.9337415E-01
         -2   -1    0    0    0  501 -0.00000000000E+00  0.00000000000E+00  0.89695842654E+02  0.89695842690E+02  0.25500000000E-02 0.  1.
          2   -1    0    0  501    0  0.00000000000E+00 -0.00000000000E+00 -0.26446990052E+04  0.26446990052E+04  0.25500000000E-02 0. -1.
    5000001    1    1    2    0    0 -0.32458317881E+03  0.46732807916E+02 -0.41532466296E+03  0.56158416196E+03  0.18800000000E+03 0.  0.
   -5000001    1    1    2    0    0  0.32458317881E+03 -0.46732807916E+02 -0.21396784996E+04  0.21728106859E+04  0.18800000000E+03 0.  0.
<mgrwt>
<rscale>  0 0.97410165E+03</rscale>
<asrwt>0</asrwt>
<pdfrwt beam="1">  1        2 0.37781410E+00 0.97410165E+03</pdfrwt>
<pdfrwt beam="2">  1       -2 0.12813693E-01 0.97410165E+03</pdfrwt>
<totfact> 0.17116759E+02</totfact>
</mgrwt>
</event>
<event>
 4    1  0.5917727E-005  0.6406213E+03  0.7818608E-02  0.9824539E-01
         -2   -1    0    0    0  501 -0.00000000000E+00  0.00000000000E+00  0.36009374588E+02  0.36009374679E+02  0.25500000000E-02 0. -1.
          2   -1    0    0  501    0  0.00000000000E+00 -0.00000000000E+00 -0.28492277802E+04  0.28492277802E+04  0.25500000000E-02 0.  1.
    5000001    1    1    2    0    0 -0.17693539777E+03 -0.18942375747E+03 -0.13696297399E+04  0.14065621633E+04  0.18800000000E+03 0.  0.
   -5000001    1    1    2    0    0  0.17693539777E+03  0.18942375747E+03 -0.14435886657E+04  0.14786749915E+04  0.18800000000E+03 0.  0.
<mgrwt>
<rscale>  0 0.64062129E+03</rscale>
<asrwt>0</asrwt>
<pdfrwt beam="1">  1        2 0.40703240E+00 0.64062129E+03</pdfrwt>
<pdfrwt beam="2">  1       -2 0.51441982E-02 0.64062129E+03</pdfrwt>
<totfact> 0.59486839E+02</totfact>
</mgrwt>
</event>
<event>
 4    1  0.5917727E-005  0.5208188E+03  0.7818608E-02  0.1008483E+00
          2   -1    0    0  501    0  0.00000000000E+00  0.00000000000E+00  0.71784258116E+03  0.71784258117E+03  0.25500000000E-02 0.  1.
         -2   -1    0    0    0  501 -0.00000000000E+00 -0.00000000000E+00 -0.94467859535E+02  0.94467859569E+02  0.25500000000E-02 0. -1.
    5000001    1    1    2    0    0 -0.14885873430E+03  0.99905743432E+02  0.33997617384E+03  0.42786432327E+03  0.18800000000E+03 0.  0.
   -5000001    1    1    2    0    0  0.14885873430E+03 -0.99905743432E+02  0.28339854779E+03  0.38444611747E+03  0.18800000000E+03 0.  0.
<mgrwt>
<rscale>  0 0.52081879E+03</rscale>
<asrwt>0</asrwt>
<pdfrwt beam="1">  1        2 0.10254894E+00 0.52081879E+03</pdfrwt>
<pdfrwt beam="2">  1       -2 0.13495409E-01 0.52081879E+03</pdfrwt>
<totfact> 0.18236800E+03</totfact>
</mgrwt>
</event>
<event>
 4    1  0.5917727E-005  0.7015872E+03  0.7818608E-02  0.9714522E-01
         -2   -1    0    0    0  501 -0.00000000000E+00  0.00000000000E+00  0.60212620936E+02  0.60212620990E+02  0.25500000000E-02 0. -1.
          2   -1    0    0  501    0  0.00000000000E+00 -0.00000000000E+00 -0.20436935927E+04  0.20436935927E+04  0.25500000000E-02 0.  1.
    5000001    1    1    2    0    0  0.16966622301E+03 -0.13304289054E+03 -0.16006119676E+04  0.16259734649E+04  0.18800000000E+03 0.  0.
   -5000001    1    1    2    0    0 -0.16966622301E+03  0.13304289054E+03 -0.38286900417E+03  0.47793274873E+03  0.18800000000E+03 0.  0.
<mgrwt>
<rscale>  0 0.70158719E+03</rscale>
<asrwt>0</asrwt>
<pdfrwt beam="1">  1        2 0.29195618E+00 0.70158719E+03</pdfrwt>
<pdfrwt beam="2">  1       -2 0.86018042E-02 0.70158719E+03</pdfrwt>
<totfact> 0.68310054E+02</totfact>
</mgrwt>
</event>
<event>
 4    1  0.5917727E-005  0.7421399E+03  0.7818608E-02  0.9647763E-01
          2   -1    0    0  501    0  0.00000000000E+00  0.00000000000E+00  0.14355535640E+04  0.14355535640E+04  0.25500000000E-02 0.  1.
         -2   -1    0    0    0  501 -0.00000000000E+00 -0.00000000000E+00 -0.95916254940E+02  0.95916254974E+02  0.25500000000E-02 0. -1.
    5000001    1    1    2    0    0 -0.15809882926E+03 -0.26929863243E+03  0.81326281885E+03  0.89121120155E+03  0.18800000000E+03 0.  0.
   -5000001    1    1    2    0    0  0.15809882926E+03  0.26929863243E+03  0.52637449020E+03  0.64025861742E+03  0.18800000000E+03 0.  0.
<mgrwt>
<rscale>  0 0.74213994E+03</rscale>
<asrwt>0</asrwt>
<pdfrwt beam="1">  1        2 0.20507906E+00 0.74213994E+03</pdfrwt>
<pdfrwt beam="2">  1       -2 0.13702324E-01 0.74213994E+03</pdfrwt>
<totfact> 0.65162662E+02</totfact>
</mgrwt>
</event>
<event>
 4    1  0.5917727E-005  0.6332894E+03  0.7818608E-02  0.9838651E-01
          2   -1    0    0  501    0  0.00000000000E+00  0.00000000000E+00  0.16180311343E+04  0.16180311343E+04  0.25500000000E-02 0.  1.
         -2   -1    0    0    0  501 -0.00000000000E+00 -0.00000000000E+00 -0.61966594357E+02  0.61966594409E+02  0.25500000000E-02 0. -1.
    5000001    1    1    2    0    0  0.12676141925E+03  0.18404831337E+03  0.11026917888E+04  0.11407082976E+04  0.18800000000E+03 0.  0.
   -5000001    1    1    2    0    0 -0.12676141925E+03 -0.18404831337E+03  0.45337275119E+03  0.53928943119E+03  0.18800000000E+03 0.  0.
<mgrwt>
<rscale>  0 0.63328944E+03</rscale>
<asrwt>0</asrwt>
<pdfrwt beam="1">  1        2 0.23114726E+00 0.63328944E+03</pdfrwt>
<pdfrwt beam="2">  1       -2 0.88523725E-02 0.63328944E+03</pdfrwt>
<totfact> 0.10762572E+03</totfact>
</mgrwt>
</event>
<event>
 4    1  0.5917727E-005  0.7562850E+03  0.7818608E-02  0.9625541E-01
         -2   -1    0    0    0  501 -0.00000000000E+00  0.00000000000E+00  0.10671639788E+03  0.10671639791E+03  0.25500000000E-02 0. -1.
          2   -1    0    0  501    0  0.00000000000E+00 -0.00000000000E+00 -0.13399229215E+04  0.13399229215E+04  0.25500000000E-02 0.  1.
    5000001    1    1    2    0    0 -0.11415938498E+03 -0.28732627826E+03 -0.40654958358E+03  0.54425666672E+03  0.18800000000E+03 0.  0.
   -5000001    1    1    2    0    0  0.11415938498E+03  0.28732627826E+03 -0.82665694006E+03  0.90238265271E+03  0.18800000000E+03 0.  0.
<mgrwt>
<rscale>  0 0.75628499E+03</rscale>
<asrwt>0</asrwt>
<pdfrwt beam="1">  1        2 0.19141755E+00 0.75628499E+03</pdfrwt>
<pdfrwt beam="2">  1       -2 0.15245200E-01 0.75628499E+03</pdfrwt>
<totfact> 0.61235314E+02</totfact>
</mgrwt>
</event>
<event>
 4    1  0.5917727E-005  0.4828371E+03  0.7818608E-02  0.1018358E+00
         -2   -1    0    0    0  501 -0.00000000000E+00  0.00000000000E+00  0.17037054381E+03  0.17037054383E+03  0.25500000000E-02 0. -1.
          2   -1    0    0  501    0  0.00000000000E+00 -0.00000000000E+00 -0.34209496389E+03  0.34209496389E+03  0.25500000000E-02 0.  1.
    5000001    1    1    2    0    0 -0.13665235831E+03  0.65106224709E+02 -0.91296712487E+02  0.25805382624E+03  0.18800000000E+03 0.  0.
   -5000001    1    1    2    0    0  0.13665235831E+03 -0.65106224709E+02 -0.80427707590E+02  0.25441168148E+03  0.18800000000E+03 0.  0.
<mgrwt>
<rscale>  0 0.48283705E+03</rscale>
<asrwt>0</asrwt>
<pdfrwt beam="1">  1        2 0.48870709E-01 0.48283705E+03</pdfrwt>
<pdfrwt beam="2">  1       -2 0.24338649E-01 0.48283705E+03</pdfrwt>
<totfact> 0.15437065E+03</totfact>
</mgrwt>
</event>
<event>
 4    1  0.5917727E-005  0.4332079E+03  0.7818608E-02  0.1032851E+00
         -2   -1    0    0    0  501 -0.00000000000E+00  0.00000000000E+00  0.17631500304E+03  0.17631500306E+03  0.25500000000E-02 0. -1.
          2   -1    0    0  501    0  0.00000000000E+00 -0.00000000000E+00 -0.26609919418E+03  0.26609919419E+03  0.25500000000E-02 0.  1.
    5000001    1    1    2    0    0 -0.15082451385E+02  0.10643674446E+03 -0.40678975715E+02  0.22035208185E+03  0.18800000000E+03 0.  0.
   -5000001    1    1    2    0    0  0.15082451385E+02 -0.10643674446E+03 -0.49105215428E+02  0.22206211540E+03  0.18800000000E+03 0.  0.
<mgrwt>
<rscale>  0 0.43320794E+03</rscale>
<asrwt>0</asrwt>
<pdfrwt beam="1">  1        2 0.38014171E-01 0.43320794E+03</pdfrwt>
<pdfrwt beam="2">  1       -2 0.25187858E-01 0.43320794E+03</pdfrwt>
<totfact> 0.19105332E+03</totfact>
</mgrwt>
</event>
<event>
 4    1  0.5917727E-005  0.5063447E+03  0.7818608E-02  0.1012136E+00
          2   -1    0    0  501    0  0.00000000000E+00  0.00000000000E+00  0.35196893009E+04  0.35196893009E+04  0.25500000000E-02 0.  1.
         -2   -1    0    0    0  501 -0.00000000000E+00 -0.00000000000E+00 -0.18210766967E+02  0.18210767145E+02  0.25500000000E-02 0. -1.
    5000001    1    1    2    0    0  0.15661724048E+03  0.36879432101E+02  0.21246124576E+04  0.21389743214E+04  0.18800000000E+03 0.  0.
   -5000001    1    1    2    0    0 -0.15661724048E+03 -0.36879432101E+02  0.13768660763E+04  0.13989257466E+04  0.18800000000E+03 0.  0.
<mgrwt>
<rscale>  0 0.50634471E+03</rscale>
<asrwt>0</asrwt>
<pdfrwt beam="1">  1        2 0.50281308E+00 0.50634471E+03</pdfrwt>
<pdfrwt beam="2">  1       -2 0.26015365E-02 0.50634471E+03</pdfrwt>
<totfact> 0.72037316E+02</totfact>
</mgrwt>
</event>
<event>
 4    1  0.5917727E-005  0.9528467E+03  0.7818608E-02  0.9361829E-01
         -2   -1    0    0    0  501 -0.00000000000E+00  0.00000000000E+00  0.41138144056E+03  0.41138144057E+03  0.25500000000E-02 0. -1.
          2   -1    0    0  501    0  0.00000000000E+00 -0.00000000000E+00 -0.55174880346E+03  0.55174880346E+03  0.25500000000E-02 0.  1.
    5000001    1    1    2    0    0 -0.70645632403E+01 -0.43171041523E+03 -0.14315300229E+03  0.49219972850E+03  0.18800000000E+03 0.  0.
   -5000001    1    1    2    0    0  0.70645632403E+01  0.43171041523E+03  0.27856393965E+01  0.47093051553E+03  0.18800000000E+03 0.  0.
<mgrwt>
<rscale>  0 0.95284672E+03</rscale>
<asrwt>0</asrwt>
<pdfrwt beam="1">  1        2 0.78821257E-01 0.95284672E+03</pdfrwt>
<pdfrwt beam="2">  1       -2 0.58768777E-01 0.95284672E+03</pdfrwt>
<totfact> 0.16227092E+02</totfact>
</mgrwt>
</event>
<event>
 4    1  0.5917727E-005  0.5098744E+03  0.7818608E-02  0.1011233E+00
         -2   -1    0    0    0  501 -0.00000000000E+00  0.00000000000E+00  0.58285834348E+02  0.58285834403E+02  0.25500000000E-02 0. -1.
          2   -1    0    0  501    0  0.00000000000E+00 -0.00000000000E+00 -0.11150734293E+04  0.11150734293E+04  0.25500000000E-02 0.  1.
    5000001    1    1    2    0    0 -0.13164240791E+03 -0.29988023781E+01 -0.27306397870E+03  0.35671648804E+03  0.18800000000E+03 0.  0.
   -5000001    1    1    2    0    0  0.13164240791E+03  0.29988023781E+01 -0.78372361627E+03  0.81664277568E+03  0.18800000000E+03 0.  0.
<mgrwt>
<rscale>  0 0.50987444E+03</rscale>
<asrwt>0</asrwt>
<pdfrwt beam="1">  1        2 0.15929619E+00 0.50987444E+03</pdfrwt>
<pdfrwt beam="2">  1       -2 0.83265485E-02 0.50987444E+03</pdfrwt>
<totfact> 0.22192758E+03</totfact>
</mgrwt>
</event>
<event>
 4    1  0.5917727E-005  0.5876438E+03  0.7818608E-02  0.9931378E-01
          2   -1    0    0  501    0  0.00000000000E+00  0.00000000000E+00  0.10305332532E+04  0.10305332532E+04  0.25500000000E-02 0.  1.
         -2   -1    0    0    0  501 -0.00000000000E+00 -0.00000000000E+00 -0.83773445051E+02  0.83773445090E+02  0.25500000000E-02 0. -1.
    5000001    1    1    2    0    0  0.78027314216E+02 -0.15761862638E+03  0.20484142980E+03  0.32899225600E+03  0.18800000000E+03 0.  0.
   -5000001    1    1    2    0    0 -0.78027314216E+02  0.15761862638E+03  0.74191837839E+03  0.78531444233E+03  0.18800000000E+03 0.  0.
<mgrwt>
<rscale>  0 0.58764384E+03</rscale>
<asrwt>0</asrwt>
<pdfrwt beam="1">  1        2 0.14721904E+00 0.58764384E+03</pdfrwt>
<pdfrwt beam="2">  1       -2 0.11967635E-01 0.58764384E+03</pdfrwt>
<totfact> 0.13818742E+03</totfact>
</mgrwt>
</event>
<event>
 4    1  0.5917727E-005  0.7096776E+03  0.7818608E-02  0.9700824E-01
          2   -1    0    0  501    0  0.00000000000E+00  0.00000000000E+00  0.34831201323E+04  0.34831201323E+04  0.25500000000E-02 0.  1.
         -2   -1    0    0    0  501 -0.00000000000E+00 -0.00000000000E+00 -0.36148785789E+02  0.36148785879E+02  0.25500000000E-02 0. -1.
    5000001    1    1    2    0    0 -0.18569769096E+03  0.23482694763E+03  0.15715083731E+04  0.16107792818E+04  0.18800000000E+03 0.  0.
   -5000001    1    1    2    0    0  0.18569769096E+03 -0.23482694763E+03  0.18754629734E+04  0.19084896364E+04  0.18800000000E+03 0.  0.
<mgrwt>
<rscale>  0 0.70967757E+03</rscale>
<asrwt>0</asrwt>
<pdfrwt beam="1">  1        2 0.49758875E+00 0.70967757E+03</pdfrwt>
<pdfrwt beam="2">  1       -2 0.51641106E-02 0.70967757E+03</pdfrwt>
<totfact> 0.25865000E+02</totfact>
</mgrwt>
</event>
<event>
 4    1  0.5917727E-005  0.6773642E+03  0.7818608E-02  0.9756745E-01
          2   -1    0    0  501    0  0.00000000000E+00  0.00000000000E+00  0.75179470867E+03  0.75179470868E+03  0.25500000000E-02 0.  1.
         -2   -1    0    0    0  501 -0.00000000000E+00 -0.00000000000E+00 -0.15257565925E+03  0.15257565927E+03  0.25500000000E-02 0. -1.
    5000001    1    1    2    0    0  0.13976647104E+03  0.14070128273E+03  0.56673614341E+03  0.62917833214E+03  0.18800000000E+03 0.  0.
   -5000001    1    1    2    0    0 -0.13976647104E+03 -0.14070128273E+03  0.32482906015E+02  0.27519203581E+03  0.18800000000E+03 0.  0.
<mgrwt>
<rscale>  0 0.67736422E+03</rscale>
<asrwt>0</asrwt>
<pdfrwt beam="1">  1        2 0.10739924E+00 0.67736422E+03</pdfrwt>
<pdfrwt beam="2">  1       -2 0.21796523E-01 0.67736422E+03</pdfrwt>
<totfact> 0.75697612E+02</totfact>
</mgrwt>
</event>
<event>
 4    1  0.5917727E-005  0.7690494E+03  0.7818608E-02  0.9605930E-01
         -2   -1    0    0    0  501 -0.00000000000E+00  0.00000000000E+00  0.13492846691E+03  0.13492846693E+03  0.25500000000E-02 0. -1.
          2   -1    0    0  501    0  0.00000000000E+00 -0.00000000000E+00 -0.10958343411E+04  0.10958343411E+04  0.25500000000E-02 0.  1.
    5000001    1    1    2    0    0  0.22150621461E+03 -0.23369173272E+03 -0.32999766675E+03  0.49791494164E+03  0.18800000000E+03 0.  0.
   -5000001    1    1    2    0    0 -0.22150621461E+03  0.23369173272E+03 -0.63090820746E+03  0.73284786640E+03  0.18800000000E+03 0.  0.
<mgrwt>
<rscale>  0 0.76904941E+03</rscale>
<asrwt>0</asrwt>
<pdfrwt beam="1">  1        2 0.15654776E+00 0.76904941E+03</pdfrwt>
<pdfrwt beam="2">  1       -2 0.19275496E-01 0.76904941E+03</pdfrwt>
<totfact> 0.56143264E+02</totfact>
</mgrwt>
</event>
<event>
 4    1  0.5917727E-005  0.4517629E+03  0.7818608E-02  0.1027198E+00
         -2   -1    0    0    0  501 -0.00000000000E+00  0.00000000000E+00  0.24474681412E+03  0.24474681413E+03  0.25500000000E-02 0. -1.
          2   -1    0    0  501    0  0.00000000000E+00 -0.00000000000E+00 -0.20847026448E+03  0.20847026450E+03  0.25500000000E-02 0.  1.
    5000001    1    1    2    0    0  0.83766398976E+02 -0.90527065800E+02 -0.35292516029E+01  0.22487422008E+03  0.18800000000E+03 0.  0.
   -5000001    1    1    2    0    0 -0.83766398976E+02  0.90527065800E+02  0.39805801241E+02  0.22834285855E+03  0.18800000000E+03 0.  0.
<mgrwt>
<rscale>  0 0.45176292E+03</rscale>
<asrwt>0</asrwt>
<pdfrwt beam="1">  1        2 0.29781466E-01 0.45176292E+03</pdfrwt>
<pdfrwt beam="2">  1       -2 0.34963831E-01 0.45176292E+03</pdfrwt>
<totfact> 0.13723255E+03</totfact>
</mgrwt>
</event>
<event>
 4    1  0.5917727E-005  0.6060755E+03  0.7818608E-02  0.9892881E-01
         -2   -1    0    0    0  501 -0.00000000000E+00  0.00000000000E+00  0.53715137286E+02  0.53715137346E+02  0.25500000000E-02 0. -1.
          2   -1    0    0  501    0  0.00000000000E+00 -0.00000000000E+00 -0.17096087265E+04  0.17096087265E+04  0.25500000000E-02 0.  1.
    5000001    1    1    2    0    0 -0.16723740348E+03 -0.64552872276E+02 -0.12819685540E+04  0.13080224753E+04  0.18800000000E+03 0.  0.
   -5000001    1    1    2    0    0  0.16723740348E+03  0.64552872276E+02 -0.37392503514E+03  0.45530138847E+03  0.18800000000E+03 0.  0.
<mgrwt>
<rscale>  0 0.60607547E+03</rscale>
<asrwt>0</asrwt>
<pdfrwt beam="1">  1        2 0.24422978E+00 0.60607547E+03</pdfrwt>
<pdfrwt beam="2">  1       -2 0.76735921E-02 0.60607547E+03</pdfrwt>
<totfact> 0.12157098E+03</totfact>
</mgrwt>
</event>
<event>
 4    1  0.5917727E-005  0.1286876E+04  0.7818608E-02  0.9040038E-01
          2   -1    0    0  501    0  0.00000000000E+00  0.00000000000E+00  0.32625179571E+04  0.32625179571E+04  0.25500000000E-02 0.  1.
         -2   -1    0    0    0  501 -0.00000000000E+00 -0.00000000000E+00 -0.12689957587E+03  0.12689957589E+03  0.25500000000E-02 0. -1.
    5000001    1    1    2    0    0  0.14458705524E+03  0.53168385181E+03  0.22894751751E+04  0.23623364942E+04  0.18800000000E+03 0.  0.
   -5000001    1    1    2    0    0 -0.14458705524E+03 -0.53168385181E+03  0.84614320616E+03  0.10270810387E+04  0.18800000000E+03 0.  0.
<mgrwt>
<rscale>  0 0.12868755E+04</rscale>
<asrwt>0</asrwt>
<pdfrwt beam="1">  1        2 0.46607400E+00 0.12868755E+04</pdfrwt>
<pdfrwt beam="2">  1       -2 0.18128511E-01 0.12868755E+04</pdfrwt>
<totfact> 0.42094415E+01</totfact>
</mgrwt>
</event>
<event>
 4    1  0.5917727E-005  0.7597657E+03  0.7818608E-02  0.9620153E-01
          2   -1    0    0  501    0  0.00000000000E+00  0.00000000000E+00  0.48731861834E+03  0.48731861835E+03  0.25500000000E-02 0.  1.
         -2   -1    0    0    0  501 -0.00000000000E+00 -0.00000000000E+00 -0.29613273862E+03  0.29613273863E+03  0.25500000000E-02 0. -1.
    5000001    1    1    2    0    0  0.28684016643E+03  0.22143389768E+01 -0.72854496977E+02  0.35061939779E+03  0.18800000000E+03 0.  0.
   -5000001    1    1    2    0    0 -0.28684016643E+03 -0.22143389768E+01  0.26404037670E+03  0.43283195920E+03  0.18800000000E+03 0.  0.
<mgrwt>
<rscale>  0 0.75976575E+03</rscale>
<asrwt>0</asrwt>
<pdfrwt beam="1">  1        2 0.69616946E-01 0.75976575E+03</pdfrwt>
<pdfrwt beam="2">  1       -2 0.42304677E-01 0.75976575E+03</pdfrwt>
<totfact> 0.36849940E+02</totfact>
</mgrwt>
</event>
<event>
 4    1  0.5917727E-005  0.4322491E+03  0.7818608E-02  0.1033152E+00
         -2   -1    0    0    0  501 -0.00000000000E+00  0.00000000000E+00  0.63275364424E+02  0.63275364475E+02  0.25500000000E-02 0. -1.
          2   -1    0    0  501    0  0.00000000000E+00 -0.00000000000E+00 -0.73819900974E+03  0.73819900975E+03  0.25500000000E-02 0.  1.
    5000001    1    1    2    0    0  0.72892533877E+02 -0.58971881228E+02 -0.43154845814E+03  0.47996778642E+03  0.18800000000E+03 0.  0.
   -5000001    1    1    2    0    0 -0.72892533877E+02  0.58971881228E+02 -0.24337518718E+03  0.32150658781E+03  0.18800000000E+03 0.  0.
<mgrwt>
<rscale>  0 0.43224905E+03</rscale>
<asrwt>0</asrwt>
<pdfrwt beam="1">  1        2 0.10545700E+00 0.43224905E+03</pdfrwt>
<pdfrwt beam="2">  1       -2 0.90393382E-02 0.43224905E+03</pdfrwt>
<totfact> 0.33776087E+03</totfact>
</mgrwt>
</event>
<event>
 4    1  0.5917727E-005  0.5610761E+03  0.7818608E-02  0.9989623E-01
         -2   -1    0    0    0  501 -0.00000000000E+00  0.00000000000E+00  0.38972354385E+02  0.38972354469E+02  0.25500000000E-02 0. -1.
          2   -1    0    0  501    0  0.00000000000E+00 -0.00000000000E+00 -0.20194213298E+04  0.20194213298E+04  0.25500000000E-02 0.  1.
    5000001    1    1    2    0    0  0.12572796490E+03  0.12590601779E+03 -0.59343701013E+03  0.64743442252E+03  0.18800000000E+03 0.  0.
   -5000001    1    1    2    0    0 -0.12572796490E+03 -0.12590601779E+03 -0.13870119653E+04  0.14109592618E+04  0.18800000000E+03 0.  0.
<mgrwt>
<rscale>  0 0.56107612E+03</rscale>
<asrwt>0</asrwt>
<pdfrwt beam="1">  1        2 0.28848869E+00 0.56107612E+03</pdfrwt>
<pdfrwt beam="2">  1       -2 0.55674805E-02 0.56107612E+03</pdfrwt>
<totfact> 0.14090729E+03</totfact>
</mgrwt>
</event>
<event>
 4    1  0.5917727E-005  0.5009772E+03  0.7818608E-02  0.1013524E+00
         -2   -1    0    0    0  501 -0.00000000000E+00  0.00000000000E+00  0.31358015335E+02  0.31358015438E+02  0.25500000000E-02 0. -1.
          2   -1    0    0  501    0  0.00000000000E+00 -0.00000000000E+00 -0.20009093918E+04  0.20009093918E+04  0.25500000000E-02 0.  1.
    5000001    1    1    2    0    0  0.13237822629E+03 -0.58182620902E+02 -0.65793969110E+03  0.69938390695E+03  0.18800000000E+03 0.  0.
   -5000001    1    1    2    0    0 -0.13237822629E+03  0.58182620902E+02 -0.13116116854E+04  0.13328835003E+04  0.18800000000E+03 0.  0.
<mgrwt>
<rscale>  0 0.50097724E+03</rscale>
<asrwt>0</asrwt>
<pdfrwt beam="1">  1        2 0.28584412E+00 0.50097724E+03</pdfrwt>
<pdfrwt beam="2">  1       -2 0.44797177E-02 0.50097724E+03</pdfrwt>
<totfact> 0.20205162E+03</totfact>
</mgrwt>
</event>
<event>
 4    1  0.5917727E-005  0.7076239E+03  0.7818608E-02  0.9704282E-01
         -2   -1    0    0    0  501 -0.00000000000E+00  0.00000000000E+00  0.22070860288E+04  0.22070860288E+04  0.25500000000E-02 0. -1.
          2   -1    0    0  501    0  0.00000000000E+00 -0.00000000000E+00 -0.56718633951E+02  0.56718634008E+02  0.25500000000E-02 0.  1.
    5000001    1    1    2    0    0 -0.15410112053E+03 -0.25569810479E+03  0.98992562943E+03  0.10509164705E+04  0.18800000000E+03 0.  0.
   -5000001    1    1    2    0    0  0.15410112053E+03  0.25569810479E+03  0.11604417654E+04  0.12128881923E+04  0.18800000000E+03 0.  0.
<mgrwt>
<rscale>  0 0.70762392E+03</rscale>
<asrwt>0</asrwt>
<pdfrwt beam="1">  1        2 0.81026625E-02 0.70762392E+03</pdfrwt>
<pdfrwt beam="2">  1       -2 0.31529799E+00 0.70762392E+03</pdfrwt>
<totfact> 0.23429252E+01</totfact>
</mgrwt>
</event>
<event>
 4    1  0.5917727E-005  0.8986000E+03  0.7818608E-02  0.9427333E-01
         -2   -1    0    0    0  501 -0.00000000000E+00  0.00000000000E+00  0.53670825451E+03  0.53670825452E+03  0.25500000000E-02 0. -1.
          2   -1    0    0  501    0  0.00000000000E+00 -0.00000000000E+00 -0.37612700556E+03  0.37612700557E+03  0.25500000000E-02 0.  1.
    5000001    1    1    2    0    0  0.34480888207E+03  0.19569730296E+03  0.17844358257E+03  0.47368418983E+03  0.18800000000E+03 0.  0.
   -5000001    1    1    2    0    0 -0.34480888207E+03 -0.19569730296E+03 -0.17862333613E+02  0.43915107025E+03  0.18800000000E+03 0.  0.
<mgrwt>
<rscale>  0 0.89859995E+03</rscale>
<asrwt>0</asrwt>
<pdfrwt beam="1">  1        2 0.53732430E-01 0.89859995E+03</pdfrwt>
<pdfrwt beam="2">  1       -2 0.76672607E-01 0.89859995E+03</pdfrwt>
<totfact> 0.14143293E+02</totfact>
</mgrwt>
</event>
<event>
 4    1  0.5917727E-005  0.4378327E+03  0.7818608E-02  0.1031414E+00
          2   -1    0    0  501    0  0.00000000000E+00  0.00000000000E+00  0.17153500196E+03  0.17153500198E+03  0.25500000000E-02 0.  1.
         -2   -1    0    0    0  501 -0.00000000000E+00 -0.00000000000E+00 -0.27938533265E+03  0.27938533266E+03  0.25500000000E-02 0. -1.
    5000001    1    1    2    0    0  0.19058209000E+02  0.10740385241E+03 -0.27038067131E+02  0.21902935857E+03  0.18800000000E+03 0.  0.
   -5000001    1    1    2    0    0 -0.19058209000E+02 -0.10740385241E+03 -0.80812263550E+02  0.23189097607E+03  0.18800000000E+03 0.  0.
<mgrwt>
<rscale>  0 0.43783268E+03</rscale>
<asrwt>0</asrwt>
<pdfrwt beam="1">  1        2 0.24505000E-01 0.43783268E+03</pdfrwt>
<pdfrwt beam="2">  1       -2 0.39912190E-01 0.43783268E+03</pdfrwt>
<totfact> 0.13277304E+03</totfact>
</mgrwt>
</event>
<event>
 4    1  0.5917727E-005  0.5703329E+03  0.7818608E-02  0.9968942E-01
         -2   -1    0    0    0  501 -0.00000000000E+00  0.00000000000E+00  0.85310263630E+02  0.85310263668E+02  0.25500000000E-02 0. -1.
          2   -1    0    0  501    0  0.00000000000E+00 -0.00000000000E+00 -0.95322547906E+03  0.95322547906E+03  0.25500000000E-02 0.  1.
    5000001    1    1    2    0    0 -0.75428326602E+01  0.21413094555E+03 -0.41905702634E+03  0.50681529919E+03  0.18800000000E+03 0.  0.
   -5000001    1    1    2    0    0  0.75428326602E+01 -0.21413094555E+03 -0.44885818909E+03  0.53172044354E+03  0.18800000000E+03 0.  0.
<mgrwt>
<rscale>  0 0.57033294E+03</rscale>
<asrwt>0</asrwt>
<pdfrwt beam="1">  1        2 0.13617506E+00 0.57033294E+03</pdfrwt>
<pdfrwt beam="2">  1       -2 0.12187181E-01 0.57033294E+03</pdfrwt>
<totfact> 0.14957821E+03</totfact>
</mgrwt>
</event>
<event>
 4    1  0.5917727E-005  0.4443504E+03  0.7818608E-02  0.1029420E+00
          2   -1    0    0  501    0  0.00000000000E+00  0.00000000000E+00  0.25622862154E+03  0.25622862156E+03  0.25500000000E-02 0. -1.
         -2   -1    0    0    0  501 -0.00000000000E+00 -0.00000000000E+00 -0.19264759039E+03  0.19264759041E+03  0.25500000000E-02 0.  1.
    5000001    1    1    2    0    0  0.39866540502E+02  0.10860381457E+03  0.63607831318E+01  0.22083611379E+03  0.18800000000E+03 0.  0.
   -5000001    1    1    2    0    0 -0.39866540502E+02 -0.10860381457E+03  0.57220248024E+02  0.22804009817E+03  0.18800000000E+03 0.  0.
<mgrwt>
<rscale>  0 0.44435043E+03</rscale>
<asrwt>0</asrwt>
<pdfrwt beam="1">  1        2 0.36604089E-01 0.44435043E+03</pdfrwt>
<pdfrwt beam="2">  1       -2 0.27521084E-01 0.44435043E+03</pdfrwt>
<totfact> 0.16988387E+03</totfact>
</mgrwt>
</event>
<event>
 4    1  0.5917727E-005  0.5762532E+03  0.7818608E-02  0.9955936E-01
         -2   -1    0    0    0  501 -0.00000000000E+00  0.00000000000E+00  0.45312898331E+02  0.45312898403E+02  0.25500000000E-02 0. -1.
          2   -1    0    0  501    0  0.00000000000E+00 -0.00000000000E+00 -0.18320817682E+04  0.18320817682E+04  0.25500000000E-02 0.  1.
    5000001    1    1    2    0    0 -0.20629512926E+03 -0.71493102117E+02 -0.89989293383E+03  0.94489165324E+03  0.18800000000E+03 0.  0.
   -5000001    1    1    2    0    0  0.20629512926E+03  0.71493102117E+02 -0.88687593599E+03  0.93250301332E+03  0.18800000000E+03 0.  0.
<mgrwt>
<rscale>  0 0.57625319E+03</rscale>
<asrwt>0</asrwt>
<pdfrwt beam="1">  1        2 0.26172592E+00 0.57625319E+03</pdfrwt>
<pdfrwt beam="2">  1       -2 0.64732724E-02 0.57625319E+03</pdfrwt>
<totfact> 0.13811126E+03</totfact>
</mgrwt>
</event>
<event>
 4    1  0.5917727E-005  0.4607228E+03  0.7818608E-02  0.1024572E+00
         -2   -1    0    0    0  501 -0.00000000000E+00  0.00000000000E+00  0.41839351574E+02  0.41839351652E+02  0.25500000000E-02 0. -1.
          2   -1    0    0  501    0  0.00000000000E+00 -0.00000000000E+00 -0.12683364925E+04  0.12683364925E+04  0.25500000000E-02 0.  1.
    5000001    1    1    2    0    0 -0.68467330760E+01  0.68391562310E+02 -0.93746102513E+03  0.95859347859E+03  0.18800000000E+03 0.  0.
   -5000001    1    1    2    0    0  0.68467330760E+01 -0.68391562310E+02 -0.28903611583E+03  0.35158236560E+03  0.18800000000E+03 0.  0.
<mgrwt>
<rscale>  0 0.46072281E+03</rscale>
<asrwt>0</asrwt>
<pdfrwt beam="1">  1        2 0.18119090E+00 0.46072281E+03</pdfrwt>
<pdfrwt beam="2">  1       -2 0.59770510E-02 0.46072281E+03</pdfrwt>
<totfact> 0.30714586E+03</totfact>
</mgrwt>
</event>
<event>
 4    1  0.5917727E-005  0.8962882E+03  0.7818608E-02  0.9430233E-01
          2   -1    0    0  501    0  0.00000000000E+00  0.00000000000E+00  0.32388240787E+03  0.32388240788E+03  0.25500000000E-02 0.  1.
         -2   -1    0    0    0  501 -0.00000000000E+00 -0.00000000000E+00 -0.62008033500E+03  0.62008033500E+03  0.25500000000E-02 0. -1.
    5000001    1    1    2    0    0  0.19358304460E+03  0.25770250858E+03  0.11330497513E+03  0.38995768420E+03  0.18800000000E+03 0.  0.
   -5000001    1    1    2    0    0 -0.19358304460E+03 -0.25770250858E+03 -0.40950290226E+03  0.55400505868E+03  0.18800000000E+03 0.  0.
<mgrwt>
<rscale>  0 0.89628815E+03</rscale>
<asrwt>0</asrwt>
<pdfrwt beam="1">  1        2 0.46268916E-01 0.89628815E+03</pdfrwt>
<pdfrwt beam="2">  1       -2 0.88582904E-01 0.89628815E+03</pdfrwt>
<totfact> 0.12050442E+02</totfact>
</mgrwt>
</event>
<event>
 4    1  0.5917727E-005  0.6276789E+03  0.7818608E-02  0.9849589E-01
          2   -1    0    0  501    0  0.00000000000E+00  0.00000000000E+00  0.95006332940E+02  0.95006332974E+02  0.25500000000E-02 0.  1.
         -2   -1    0    0    0  501 -0.00000000000E+00 -0.00000000000E+00 -0.10367224716E+04  0.10367224716E+04  0.25500000000E-02 0. -1.
    5000001    1    1    2    0    0 -0.21646716602E+03  0.10905815160E+03 -0.59045108211E+03  0.66537823436E+03  0.18800000000E+03 0.  0.
   -5000001    1    1    2    0    0  0.21646716602E+03 -0.10905815160E+03 -0.35126505659E+03  0.46635057025E+03  0.18800000000E+03 0.  0.
<mgrwt>
<rscale>  0 0.62767890E+03</rscale>
<asrwt>0</asrwt>
<pdfrwt beam="1">  1        2 0.13572334E-01 0.62767890E+03</pdfrwt>
<pdfrwt beam="2">  1       -2 0.14810320E+00 0.62767890E+03</pdfrwt>
<totfact> 0.14262857E+02</totfact>
</mgrwt>
</event>
<event>
 4    1  0.5917727E-005  0.9039100E+03  0.7818608E-02  0.9420707E-01
          2   -1    0    0  501    0  0.00000000000E+00  0.00000000000E+00  0.12862747082E+04  0.12862747082E+04  0.25500000000E-02 0.  1.
         -2   -1    0    0    0  501 -0.00000000000E+00 -0.00000000000E+00 -0.15880226347E+03  0.15880226349E+03  0.25500000000E-02 0. -1.
    5000001    1    1    2    0    0  0.23897321808E+03  0.11108143687E+03  0.59520584688E+02  0.32914128361E+03  0.18800000000E+03 0.  0.
   -5000001    1    1    2    0    0 -0.23897321808E+03 -0.11108143687E+03  0.10679518601E+04  0.11159356881E+04  0.18800000000E+03 0.  0.
<mgrwt>
<rscale>  0 0.90391003E+03</rscale>
<asrwt>0</asrwt>
<pdfrwt beam="1">  1        2 0.18375353E+00 0.90391003E+03</pdfrwt>
<pdfrwt beam="2">  1       -2 0.22686037E-01 0.90391003E+03</pdfrwt>
<totfact> 0.32626700E+02</totfact>
</mgrwt>
</event>
<event>
 4    1  0.5917727E-005  0.8147532E+03  0.7818608E-02  0.9538905E-01
          2   -1    0    0  501    0  0.00000000000E+00  0.00000000000E+00  0.14364292042E+04  0.14364292042E+04  0.25500000000E-02 0.  1.
         -2   -1    0    0    0  501 -0.00000000000E+00 -0.00000000000E+00 -0.11553350171E+03  0.11553350174E+03  0.25500000000E-02 0. -1.
    5000001    1    1    2    0    0 -0.73236536839E+02  0.30027539952E+03  0.10172293011E+04  0.10796426987E+04  0.18800000000E+03 0.  0.
   -5000001    1    1    2    0    0  0.73236536839E+02 -0.30027539952E+03  0.30366640137E+03  0.47232000721E+03  0.18800000000E+03 0.  0.
<mgrwt>
<rscale>  0 0.81475320E+03</rscale>
<asrwt>0</asrwt>
<pdfrwt beam="1">  1        2 0.20520416E+00 0.81475320E+03</pdfrwt>
<pdfrwt beam="2">  1       -2 0.16504787E-01 0.81475320E+03</pdfrwt>
<totfact> 0.47341641E+02</totfact>
</mgrwt>
</event>
<event>
 4    1  0.5917727E-005  0.4872684E+03  0.7818608E-02  0.1017157E+00
          2   -1    0    0  501    0  0.00000000000E+00  0.00000000000E+00  0.20818492495E+03  0.20818492497E+03  0.25500000000E-02 0.  1.
         -2   -1    0    0    0  501 -0.00000000000E+00 -0.00000000000E+00 -0.28511971495E+03  0.28511971497E+03  0.25500000000E-02 0. -1.
    5000001    1    1    2    0    0 -0.54791087186E+02 -0.13238076166E+03  0.21314064219E+02  0.23732892497E+03  0.18800000000E+03 0.  0.
   -5000001    1    1    2    0    0  0.54791087186E+02  0.13238076166E+03 -0.98248854224E+02  0.25597571496E+03  0.18800000000E+03 0.  0.
<mgrwt>
<rscale>  0 0.48726841E+03</rscale>
<asrwt>0</asrwt>
<pdfrwt beam="1">  1        2 0.29740704E-01 0.48726841E+03</pdfrwt>
<pdfrwt beam="2">  1       -2 0.40731388E-01 0.48726841E+03</pdfrwt>
<totfact> 0.10269004E+03</totfact>
</mgrwt>
</event>
<event>
 4    1  0.5917727E-005  0.5778190E+03  0.7818608E-02  0.9952524E-01
         -2   -1    0    0    0  501 -0.00000000000E+00  0.00000000000E+00  0.98558665668E+02  0.98558665701E+02  0.25500000000E-02 0. -1.
          2   -1    0    0  501    0  0.00000000000E+00 -0.00000000000E+00 -0.84689360304E+03  0.84689360305E+03  0.25500000000E-02 0.  1.
    5000001    1    1    2    0    0  0.65511151939E+02  0.11162009406E+03 -0.66399014234E+03  0.70212368252E+03  0.18800000000E+03 0.  0.
   -5000001    1    1    2    0    0 -0.65511151939E+02 -0.11162009406E+03 -0.84344795033E+02  0.24332858623E+03  0.18800000000E+03 0.  0.
<mgrwt>
<rscale>  0 0.57781901E+03</rscale>
<asrwt>0</asrwt>
<pdfrwt beam="1">  1        2 0.12098480E+00 0.57781901E+03</pdfrwt>
<pdfrwt beam="2">  1       -2 0.14079810E-01 0.57781901E+03</pdfrwt>
<totfact> 0.13785532E+03</totfact>
</mgrwt>
</event>
<event>
 4    1  0.5917727E-005  0.4452093E+03  0.7818608E-02  0.1029160E+00
         -2   -1    0    0    0  501 -0.00000000000E+00  0.00000000000E+00  0.21719552761E+02  0.21719552911E+02  0.25500000000E-02 0. -1.
          2   -1    0    0  501    0  0.00000000000E+00 -0.00000000000E+00 -0.22814849458E+04  0.22814849458E+04  0.25500000000E-02 0.  1.
    5000001    1    1    2    0    0 -0.80858758809E+02 -0.87440098574E+02 -0.11557094257E+04  0.11769418790E+04  0.18800000000E+03 0.  0.
   -5000001    1    1    2    0    0  0.80858758809E+02  0.87440098574E+02 -0.11040559673E+04  0.11262626197E+04  0.18800000000E+03 0.  0.
<mgrwt>
<rscale>  0 0.44520931E+03</rscale>
<asrwt>0</asrwt>
<pdfrwt beam="1">  1        2 0.32592627E+00 0.44520931E+03</pdfrwt>
<pdfrwt beam="2">  1       -2 0.31027947E-02 0.44520931E+03</pdfrwt>
<totfact> 0.25675534E+03</totfact>
</mgrwt>
</event>
<event>
 4    1  0.5917727E-005  0.4260250E+03  0.7818608E-02  0.1035123E+00
         -2   -1    0    0    0  501 -0.00000000000E+00  0.00000000000E+00  0.36712746942E+02  0.36712747031E+02  0.25500000000E-02 0.  1.
          2   -1    0    0  501    0  0.00000000000E+00 -0.00000000000E+00 -0.12359283878E+04  0.12359283878E+04  0.25500000000E-02 0. -1.
    5000001    1    1    2    0    0  0.54173365563E+02 -0.78590380395E+02 -0.50904329794E+03  0.55098119805E+03  0.18800000000E+03 0.  0.
   -5000001    1    1    2    0    0 -0.54173365563E+02  0.78590380395E+02 -0.69017234290E+03  0.72165993676E+03  0.18800000000E+03 0.  0.
<mgrwt>
<rscale>  0 0.42602500E+03</rscale>
<asrwt>0</asrwt>
<pdfrwt beam="1">  1        2 0.17656117E+00 0.42602500E+03</pdfrwt>
<pdfrwt beam="2">  1       -2 0.52446789E-02 0.42602500E+03</pdfrwt>
<totfact> 0.39160190E+03</totfact>
</mgrwt>
</event>
<event>
 4    1  0.5917727E-005  0.4275375E+03  0.7818608E-02  0.1034641E+00
          2   -1    0    0  501    0  0.00000000000E+00  0.00000000000E+00  0.14667941682E+04  0.14667941682E+04  0.25500000000E-02 0.  1.
         -2   -1    0    0    0  501 -0.00000000000E+00 -0.00000000000E+00 -0.31154385926E+02  0.31154386030E+02  0.25500000000E-02 0. -1.
    5000001    1    1    2    0    0 -0.13513869589E+02  0.81289528539E+02  0.50869887145E+03  0.54855186987E+03  0.18800000000E+03 0.  0.
   -5000001    1    1    2    0    0  0.13513869589E+02 -0.81289528539E+02  0.92694091080E+03  0.94939668434E+03  0.18800000000E+03 0.  0.
<mgrwt>
<rscale>  0 0.42753747E+03</rscale>
<asrwt>0</asrwt>
<pdfrwt beam="1">  1        2 0.20954212E+00 0.42753747E+03</pdfrwt>
<pdfrwt beam="2">  1       -2 0.44506246E-02 0.42753747E+03</pdfrwt>
<totfact> 0.38008304E+03</totfact>
</mgrwt>
</event>
<event>
 4    1  0.5917727E-005  0.5024121E+03  0.7818608E-02  0.1013151E+00
         -2   -1    0    0    0  501 -0.00000000000E+00  0.00000000000E+00  0.64432440024E+02  0.64432440075E+02  0.25500000000E-02 0. -1.
          2   -1    0    0  501    0  0.00000000000E+00 -0.00000000000E+00 -0.97938993950E+03  0.97938993951E+03  0.25500000000E-02 0.  1.
    5000001    1    1    2    0    0  0.98874505774E+02 -0.12269653278E+03 -0.34502054189E+03  0.42333648717E+03  0.18800000000E+03 0.  0.
   -5000001    1    1    2    0    0 -0.98874505774E+02  0.12269653278E+03 -0.56993695759E+03  0.62048589241E+03  0.18800000000E+03 0.  0.
<mgrwt>
<rscale>  0 0.50241212E+03</rscale>
<asrwt>0</asrwt>
<pdfrwt beam="1">  1        2 0.13991284E+00 0.50241212E+03</pdfrwt>
<pdfrwt beam="2">  1       -2 0.92046349E-02 0.50241212E+03</pdfrwt>
<totfact> 0.22751319E+03</totfact>
</mgrwt>
</event>
<event>
 4    1  0.5917727E-005  0.5342232E+03  0.7818608E-02  0.1005213E+00
          2   -1    0    0  501    0  0.00000000000E+00  0.00000000000E+00  0.27290113588E+04  0.27290113588E+04  0.25500000000E-02 0.  1.
         -2   -1    0    0    0  501 -0.00000000000E+00 -0.00000000000E+00 -0.26144492462E+02  0.26144492586E+02  0.25500000000E-02 0. -1.
    5000001    1    1    2    0    0 -0.24899089977E+01 -0.18883407730E+03  0.14465447623E+04  0.14708841755E+04  0.18800000000E+03 0.  0.
   -5000001    1    1    2    0    0  0.24899089977E+01  0.18883407730E+03  0.12563221041E+04  0.12842716759E+04  0.18800000000E+03 0.  0.
<mgrwt>
<rscale>  0 0.53422324E+03</rscale>
<asrwt>0</asrwt>
<pdfrwt beam="1">  1        2 0.38985861E+00 0.53422324E+03</pdfrwt>
<pdfrwt beam="2">  1       -2 0.37349289E-02 0.53422324E+03</pdfrwt>
<totfact> 0.11381959E+03</totfact>
</mgrwt>
</event>
<event>
 4    1  0.5917727E-005  0.5862138E+03  0.7818608E-02  0.9934428E-01
          2   -1    0    0  501    0  0.00000000000E+00  0.00000000000E+00  0.86688040983E+03  0.86688040984E+03  0.25500000000E-02 0.  1.
         -2   -1    0    0    0  501 -0.00000000000E+00 -0.00000000000E+00 -0.99104386938E+02  0.99104386971E+02  0.25500000000E-02 0. -1.
    5000001    1    1    2    0    0  0.22019399360E+03  0.44984853520E+02  0.39650443137E+03  0.49302007663E+03  0.18800000000E+03 0.  0.
   -5000001    1    1    2    0    0 -0.22019399360E+03 -0.44984853520E+02  0.37127159152E+03  0.47296472018E+03  0.18800000000E+03 0.  0.
<mgrwt>
<rscale>  0 0.58621379E+03</rscale>
<asrwt>0</asrwt>
<pdfrwt beam="1">  1        2 0.12384005E+00 0.58621379E+03</pdfrwt>
<pdfrwt beam="2">  1       -2 0.14157770E-01 0.58621379E+03</pdfrwt>
<totfact> 0.13246304E+03</totfact>
</mgrwt>
</event>
<event>
 4    1  0.5917727E-005  0.5214855E+03  0.7818608E-02  0.1008318E+00
          2   -1    0    0  501    0  0.00000000000E+00  0.00000000000E+00  0.11414527278E+04  0.11414527278E+04  0.25500000000E-02 0.  1.
         -2   -1    0    0    0  501 -0.00000000000E+00 -0.00000000000E+00 -0.59561633688E+02  0.59561633743E+02  0.25500000000E-02 0. -1.
    5000001    1    1    2    0    0  0.52265667159E+02  0.16952305324E+03  0.46206692068E+03  0.52945217417E+03  0.18800000000E+03 0.  0.
   -5000001    1    1    2    0    0 -0.52265667159E+02 -0.16952305324E+03  0.61982417343E+03  0.67156218737E+03  0.18800000000E+03 0.  0.
<mgrwt>
<rscale>  0 0.52148553E+03</rscale>
<asrwt>0</asrwt>
<pdfrwt beam="1">  1        2 0.16306467E+00 0.52148553E+03</pdfrwt>
<pdfrwt beam="2">  1       -2 0.85088050E-02 0.52148553E+03</pdfrwt>
<totfact> 0.20705422E+03</totfact>
</mgrwt>
</event>
<event>
 4    1  0.5917727E-005  0.8290749E+03  0.7818608E-02  0.9518860E-01
         -2   -1    0    0    0  501 -0.00000000000E+00  0.00000000000E+00  0.13225599648E+03  0.13225599650E+03  0.25500000000E-02 0. -1.
          2   -1    0    0  501    0  0.00000000000E+00 -0.00000000000E+00 -0.12993080376E+04  0.12993080376E+04  0.25500000000E-02 0.  1.
    5000001    1    1    2    0    0  0.30015405886E+03 -0.21541777886E+03 -0.58357369693E+03  0.71582088420E+03  0.18800000000E+03 0.  0.
   -5000001    1    1    2    0    0 -0.30015405886E+03  0.21541777886E+03 -0.58347834418E+03  0.71574314990E+03  0.18800000000E+03 0.  0.
<mgrwt>
<rscale>  0 0.82907486E+03</rscale>
<asrwt>0</asrwt>
<pdfrwt beam="1">  1        2 0.18561543E+00 0.82907486E+03</pdfrwt>
<pdfrwt beam="2">  1       -2 0.18893715E-01 0.82907486E+03</pdfrwt>
<totfact> 0.44449548E+02</totfact>
</mgrwt>
</event>
<event>
 4    1  0.5917727E-005  0.5660807E+03  0.7818608E-02  0.9978389E-01
          2   -1    0    0  501    0  0.00000000000E+00  0.00000000000E+00  0.53248643409E+03  0.53248643409E+03  0.25500000000E-02 0.  1.
         -2   -1    0    0    0  501 -0.00000000000E+00 -0.00000000000E+00 -0.15044862504E+03  0.15044862506E+03  0.25500000000E-02 0. -1.
    5000001    1    1    2    0    0  0.68385484429E+02 -0.19845171193E+03  0.22312426744E+03  0.35942745467E+03  0.18800000000E+03 0.  0.
   -5000001    1    1    2    0    0 -0.68385484429E+02  0.19845171193E+03  0.15891354161E+03  0.32350760448E+03  0.18800000000E+03 0.  0.
<mgrwt>
<rscale>  0 0.56608074E+03</rscale>
<asrwt>0</asrwt>
<pdfrwt beam="1">  1        2 0.76069490E-01 0.56608074E+03</pdfrwt>
<pdfrwt beam="2">  1       -2 0.21492661E-01 0.56608074E+03</pdfrwt>
<totfact> 0.11740833E+03</totfact>
</mgrwt>
</event>
<event>
 4    1  0.5917727E-005  0.4394586E+03  0.7818608E-02  0.1030913E+00
          2   -1    0    0  501    0  0.00000000000E+00  0.00000000000E+00  0.72124213000E+03  0.72124213001E+03  0.25500000000E-02 0.  1.
         -2   -1    0    0    0  501 -0.00000000000E+00 -0.00000000000E+00 -0.66941413787E+02  0.66941413836E+02  0.25500000000E-02 0. -1.
    5000001    1    1    2    0    0  0.10792586205E+03  0.31432853003E+02  0.29603620699E+03  0.36826274831E+03  0.18800000000E+03 0.  0.
   -5000001    1    1    2    0    0 -0.10792586205E+03 -0.31432853003E+02  0.35826450922E+03  0.41992079553E+03  0.18800000000E+03 0.  0.
<mgrwt>
<rscale>  0 0.43945861E+03</rscale>
<asrwt>0</asrwt>
<pdfrwt beam="1">  1        2 0.10303458E+00 0.43945861E+03</pdfrwt>
<pdfrwt beam="2">  1       -2 0.95630596E-02 0.43945861E+03</pdfrwt>
<totfact> 0.31762930E+03</totfact>
</mgrwt>
</event>
<event>
 4    1  0.5917727E-005  0.7591085E+03  0.7818608E-02  0.9621168E-01
          2   -1    0    0  501    0  0.00000000000E+00  0.00000000000E+00  0.17095253721E+04  0.17095253721E+04  0.25500000000E-02 0.  1.
         -2   -1    0    0    0  501 -0.00000000000E+00 -0.00000000000E+00 -0.84269831465E+02  0.84269831504E+02  0.25500000000E-02 0. -1.
    5000001    1    1    2    0    0  0.11867810605E+03  0.21542787078E+03  0.13315467258E+04  0.13670604754E+04  0.18800000000E+03 0.  0.
   -5000001    1    1    2    0    0 -0.11867810605E+03 -0.21542787078E+03  0.29370881485E+03  0.42673472824E+03  0.18800000000E+03 0.  0.
<mgrwt>
<rscale>  0 0.75910846E+03</rscale>
<asrwt>0</asrwt>
<pdfrwt beam="1">  1        2 0.24421788E+00 0.75910846E+03</pdfrwt>
<pdfrwt beam="2">  1       -2 0.12038549E-01 0.75910846E+03</pdfrwt>
<totfact> 0.58158578E+02</totfact>
</mgrwt>
</event>
<event>
 4    1  0.5917727E-005  0.7353124E+03  0.7818608E-02  0.9658679E-01
          2   -1    0    0  501    0  0.00000000000E+00  0.00000000000E+00  0.21960810270E+03  0.21960810271E+03  0.25500000000E-02 0.  1.
         -2   -1    0    0    0  501 -0.00000000000E+00 -0.00000000000E+00 -0.61551048067E+03  0.61551048068E+03  0.25500000000E-02 0. -1.
    5000001    1    1    2    0    0 -0.92170866621E+02 -0.25300584154E+03 -0.10229727916E+02  0.32856669314E+03  0.18800000000E+03 0.  0.
   -5000001    1    1    2    0    0  0.92170866621E+02  0.25300584154E+03 -0.38567265006E+03  0.50655189025E+03  0.18800000000E+03 0.  0.
<mgrwt>
<rscale>  0 0.73531242E+03</rscale>
<asrwt>0</asrwt>
<pdfrwt beam="1">  1        2 0.31372586E-01 0.73531242E+03</pdfrwt>
<pdfrwt beam="2">  1       -2 0.87930068E-01 0.73531242E+03</pdfrwt>
<totfact> 0.19033500E+02</totfact>
</mgrwt>
</event>
<event>
 4    1  0.5917727E-005  0.1142781E+04  0.7818608E-02  0.9164470E-01
         -2   -1    0    0    0  501 -0.00000000000E+00  0.00000000000E+00  0.17625788544E+03  0.17625788546E+03  0.25500000000E-02 0. -1.
          2   -1    0    0  501    0  0.00000000000E+00 -0.00000000000E+00 -0.18523246093E+04  0.18523246093E+04  0.25500000000E-02 0.  1.
    5000001    1    1    2    0    0 -0.28136486202E+03 -0.32001580181E+03 -0.14256157709E+04  0.14997668569E+04  0.18800000000E+03 0.  0.
   -5000001    1    1    2    0    0  0.28136486202E+03  0.32001580181E+03 -0.25045095303E+03  0.52881563788E+03  0.18800000000E+03 0.  0.
<mgrwt>
<rscale>  0 0.11427805E+04</rscale>
<asrwt>0</asrwt>
<pdfrwt beam="1">  1        2 0.26461779E+00 0.11427805E+04</pdfrwt>
<pdfrwt beam="2">  1       -2 0.25179699E-01 0.11427805E+04</pdfrwt>
<totfact> 0.13405053E+02</totfact>
</mgrwt>
</event>
<event>
 4    1  0.5917727E-005  0.5128061E+03  0.7818608E-02  0.1010489E+00
         -2   -1    0    0    0  501 -0.00000000000E+00  0.00000000000E+00  0.19885868713E+03  0.19885868715E+03  0.25500000000E-02 0. -1.
          2   -1    0    0  501    0  0.00000000000E+00 -0.00000000000E+00 -0.33059923932E+03  0.33059923933E+03  0.25500000000E-02 0.  1.
    5000001    1    1    2    0    0  0.12147016628E+03 -0.19576628673E+02 -0.19341414079E+03  0.29646462782E+03  0.18800000000E+03 0.  0.
   -5000001    1    1    2    0    0 -0.12147016628E+03  0.19576628673E+02  0.61673588609E+02  0.23299329866E+03  0.18800000000E+03 0.  0.
<mgrwt>
<rscale>  0 0.51280613E+03</rscale>
<asrwt>0</asrwt>
<pdfrwt beam="1">  1        2 0.47228463E-01 0.51280613E+03</pdfrwt>
<pdfrwt beam="2">  1       -2 0.28408384E-01 0.51280613E+03</pdfrwt>
<totfact> 0.12131729E+03</totfact>
</mgrwt>
</event>
<event>
 4    1  0.5917727E-005  0.1929227E+04  0.7818608E-02  0.8640443E-01
          2   -1    0    0  501    0  0.00000000000E+00  0.00000000000E+00  0.97225705309E+03  0.97225705309E+03  0.25500000000E-02 0.  1.
         -2   -1    0    0    0  501 -0.00000000000E+00 -0.00000000000E+00 -0.95703006606E+03  0.95703006606E+03  0.25500000000E-02 0. -1.
    5000001    1    1    2    0    0  0.63626932945E+03  0.43230325358E+03 -0.54323074073E+03  0.96029599621E+03  0.18800000000E+03 0.  0.
   -5000001    1    1    2    0    0 -0.63626932945E+03 -0.43230325358E+03  0.55845772776E+03  0.96899112295E+03  0.18800000000E+03 0.  0.
<mgrwt>
<rscale>  0 0.19292270E+04</rscale>
<asrwt>0</asrwt>
<pdfrwt beam="1">  1        2 0.13889387E+00 0.19292270E+04</pdfrwt>
<pdfrwt beam="2">  1       -2 0.13671858E+00 0.19292270E+04</pdfrwt>
<totfact> 0.10467347E+01</totfact>
</mgrwt>
</event>
<event>
 4    1  0.5917727E-005  0.4570506E+03  0.7818608E-02  0.1025640E+00
          2   -1    0    0  501    0  0.00000000000E+00  0.00000000000E+00  0.37559810248E+03  0.37559810249E+03  0.25500000000E-02 0.  1.
         -2   -1    0    0    0  501 -0.00000000000E+00 -0.00000000000E+00 -0.13904173679E+03  0.13904173682E+03  0.25500000000E-02 0. -1.
    5000001    1    1    2    0    0 -0.12684233881E+03  0.18530449188E+02  0.94459688039E+02  0.24637164838E+03  0.18800000000E+03 0.  0.
   -5000001    1    1    2    0    0  0.12684233881E+03 -0.18530449188E+02  0.14209667765E+03  0.26826819092E+03  0.18800000000E+03 0.  0.
<mgrwt>
<rscale>  0 0.45705060E+03</rscale>
<asrwt>0</asrwt>
<pdfrwt beam="1">  1        2 0.53656873E-01 0.45705060E+03</pdfrwt>
<pdfrwt beam="2">  1       -2 0.19863105E-01 0.45705060E+03</pdfrwt>
<totfact> 0.19891402E+03</totfact>
</mgrwt>
</event>
<event>
 4    1  0.5917727E-005  0.4960028E+03  0.7818608E-02  0.1014828E+00
          2   -1    0    0  501    0  0.00000000000E+00  0.00000000000E+00  0.37700802112E+03  0.37700802113E+03  0.25500000000E-02 0.  1.
         -2   -1    0    0    0  501 -0.00000000000E+00 -0.00000000000E+00 -0.16313897009E+03  0.16313897011E+03  0.25500000000E-02 0. -1.
    5000001    1    1    2    0    0 -0.13874898007E+03  0.58071358705E+02  0.42167519491E+02  0.24442925740E+03  0.18800000000E+03 0.  0.
   -5000001    1    1    2    0    0  0.13874898007E+03 -0.58071358705E+02  0.17170153155E+03  0.29571773384E+03  0.18800000000E+03 0.  0.
<mgrwt>
<rscale>  0 0.49600282E+03</rscale>
<asrwt>0</asrwt>
<pdfrwt beam="1">  1        2 0.53858288E-01 0.49600282E+03</pdfrwt>
<pdfrwt beam="2">  1       -2 0.23305567E-01 0.49600282E+03</pdfrwt>
<totfact> 0.14985212E+03</totfact>
</mgrwt>
</event>
<event>
 4    1  0.5917727E-005  0.8107397E+03  0.7818608E-02  0.9544601E-01
         -2   -1    0    0    0  501 -0.00000000000E+00  0.00000000000E+00  0.15688084772E+03  0.15688084774E+03  0.25500000000E-02 0. -1.
          2   -1    0    0  501    0  0.00000000000E+00 -0.00000000000E+00 -0.10474491204E+04  0.10474491204E+04  0.25500000000E-02 0.  1.
    5000001    1    1    2    0    0 -0.21961808741E+03  0.28409341501E+03 -0.43594417585E+03  0.59525834495E+03  0.18800000000E+03 0.  0.
   -5000001    1    1    2    0    0  0.21961808741E+03 -0.28409341501E+03 -0.45462409688E+03  0.60907162324E+03  0.18800000000E+03 0.  0.
<mgrwt>
<rscale>  0 0.81073968E+03</rscale>
<asrwt>0</asrwt>
<pdfrwt beam="1">  1        2 0.14963558E+00 0.81073968E+03</pdfrwt>
<pdfrwt beam="2">  1       -2 0.22411550E-01 0.81073968E+03</pdfrwt>
<totfact> 0.45935947E+02</totfact>
</mgrwt>
</event>
<event>
 4    1  0.5917727E-005  0.9435666E+03  0.7818608E-02  0.9372702E-01
         -2   -1    0    0    0  501 -0.00000000000E+00  0.00000000000E+00  0.32626352054E+03  0.32626352055E+03  0.25500000000E-02 0. -1.
          2   -1    0    0  501    0  0.00000000000E+00 -0.00000000000E+00 -0.68220768526E+03  0.68220768527E+03  0.25500000000E-02 0.  1.
    5000001    1    1    2    0    0  0.37854654364E+03  0.16884599313E+03 -0.31072992922E+03  0.55109304478E+03  0.18800000000E+03 0.  0.
   -5000001    1    1    2    0    0 -0.37854654364E+03 -0.16884599313E+03 -0.45214235509E+02  0.45737816103E+03  0.18800000000E+03 0.  0.
<mgrwt>
<rscale>  0 0.94356660E+03</rscale>
<asrwt>0</asrwt>
<pdfrwt beam="1">  1        2 0.97458241E-01 0.94356660E+03</pdfrwt>
<pdfrwt beam="2">  1       -2 0.46609074E-01 0.94356660E+03</pdfrwt>
<totfact> 0.20284950E+02</totfact>
</mgrwt>
</event>
<event>
 4    1  0.5917727E-005  0.5588492E+03  0.7818608E-02  0.9994662E-01
          2   -1    0    0  501    0  0.00000000000E+00  0.00000000000E+00  0.16666144290E+03  0.16666144292E+03  0.25500000000E-02 0.  1.
         -2   -1    0    0    0  501 -0.00000000000E+00 -0.00000000000E+00 -0.46848327481E+03  0.46848327482E+03  0.25500000000E-02 0. -1.
    5000001    1    1    2    0    0  0.11123381621E+03  0.16920156695E+03 -0.19820946482E+03  0.34004870838E+03  0.18800000000E+03 0.  0.
   -5000001    1    1    2    0    0 -0.11123381621E+03 -0.16920156695E+03 -0.10361236709E+03  0.29509600936E+03  0.18800000000E+03 0.  0.
<mgrwt>
<rscale>  0 0.55884917E+03</rscale>
<asrwt>0</asrwt>
<pdfrwt beam="1">  1        2 0.23808778E-01 0.55884917E+03</pdfrwt>
<pdfrwt beam="2">  1       -2 0.66926182E-01 0.55884917E+03</pdfrwt>
<totfact> 0.47936759E+02</totfact>
</mgrwt>
</event>
<event>
 4    1  0.5917727E-005  0.5327664E+03  0.7818608E-02  0.1005563E+00
         -2   -1    0    0    0  501 -0.00000000000E+00  0.00000000000E+00  0.51880327407E+02  0.51880327469E+02  0.25500000000E-02 0. -1.
          2   -1    0    0  501    0  0.00000000000E+00 -0.00000000000E+00 -0.13677630913E+04  0.13677630913E+04  0.25500000000E-02 0.  1.
    5000001    1    1    2    0    0 -0.16176043060E+03 -0.95158636369E+02 -0.60502286507E+03  0.66077096656E+03  0.18800000000E+03 0.  0.
   -5000001    1    1    2    0    0  0.16176043060E+03  0.95158636369E+02 -0.71085989886E+03  0.75887245226E+03  0.18800000000E+03 0.  0.
<mgrwt>
<rscale>  0 0.53276635E+03</rscale>
<asrwt>0</asrwt>
<pdfrwt beam="1">  1        2 0.19539471E+00 0.53276635E+03</pdfrwt>
<pdfrwt beam="2">  1       -2 0.74114762E-02 0.53276635E+03</pdfrwt>
<totfact> 0.19363814E+03</totfact>
</mgrwt>
</event>
<event>
 4    1  0.5917727E-005  0.4918977E+03  0.7818608E-02  0.1015916E+00
          2   -1    0    0  501    0  0.00000000000E+00  0.00000000000E+00  0.36571346153E+03  0.36571346154E+03  0.25500000000E-02 0.  1.
         -2   -1    0    0    0  501 -0.00000000000E+00 -0.00000000000E+00 -0.16540501896E+03  0.16540501898E+03  0.25500000000E-02 0. -1.
    5000001    1    1    2    0    0  0.51140828715E+02 -0.14908955865E+03  0.81335819236E+02  0.25846198241E+03  0.18800000000E+03 0.  0.
   -5000001    1    1    2    0    0 -0.51140828715E+02  0.14908955865E+03  0.11897262334E+03  0.27265649811E+03  0.18800000000E+03 0.  0.
<mgrwt>
<rscale>  0 0.49189772E+03</rscale>
<asrwt>0</asrwt>
<pdfrwt beam="1">  1        2 0.52244779E-01 0.49189772E+03</pdfrwt>
<pdfrwt beam="2">  1       -2 0.23629289E-01 0.49189772E+03</pdfrwt>
<totfact> 0.15120944E+03</totfact>
</mgrwt>
</event>
<event>
 4    1  0.5917727E-005  0.9011838E+03  0.7818608E-02  0.9424103E-01
         -2   -1    0    0    0  501 -0.00000000000E+00  0.00000000000E+00  0.17492258365E+03  0.17492258367E+03  0.25500000000E-02 0. -1.
          2   -1    0    0  501    0  0.00000000000E+00 -0.00000000000E+00 -0.11607024206E+04  0.11607024206E+04  0.25500000000E-02 0.  1.
    5000001    1    1    2    0    0 -0.26454729290E+03  0.10839895095E+03 -0.58376843707E+02  0.34711303437E+03  0.18800000000E+03 0.  0.
   -5000001    1    1    2    0    0  0.26454729290E+03 -0.10839895095E+03 -0.92740299323E+03  0.98851196989E+03  0.18800000000E+03 0.  0.
<mgrwt>
<rscale>  0 0.90118381E+03</rscale>
<asrwt>0</asrwt>
<pdfrwt beam="1">  1        2 0.16581463E+00 0.90118381E+03</pdfrwt>
<pdfrwt beam="2">  1       -2 0.24988941E-01 0.90118381E+03</pdfrwt>
<totfact> 0.32290069E+02</totfact>
</mgrwt>
</event>
<event>
 4    1  0.5917727E-005  0.8273484E+03  0.7818608E-02  0.9521254E-01
         -2   -1    0    0    0  501 -0.00000000000E+00  0.00000000000E+00  0.30877122894E+03  0.30877122895E+03  0.25500000000E-02 0. -1.
          2   -1    0    0  501    0  0.00000000000E+00 -0.00000000000E+00 -0.55421726922E+03  0.55421726923E+03  0.25500000000E-02 0.  1.
    5000001    1    1    2    0    0  0.19921166700E+02  0.30411977427E+03 -0.33876009957E+03  0.49293822640E+03  0.18800000000E+03 0.  0.
   -5000001    1    1    2    0    0 -0.19921166700E+02 -0.30411977427E+03  0.93314059290E+02  0.37005027178E+03  0.18800000000E+03 0.  0.
<mgrwt>
<rscale>  0 0.82734841E+03</rscale>
<asrwt>0</asrwt>
<pdfrwt beam="1">  1        2 0.79173895E-01 0.82734841E+03</pdfrwt>
<pdfrwt beam="2">  1       -2 0.44110176E-01 0.82734841E+03</pdfrwt>
<totfact> 0.29178561E+02</totfact>
</mgrwt>
</event>
<event>
 4    1  0.5917727E-005  0.5131083E+03  0.7818608E-02  0.1010413E+00
         -2   -1    0    0    0  501 -0.00000000000E+00  0.00000000000E+00  0.35138923168E+03  0.35138923169E+03  0.25500000000E-02 0. -1.
          2   -1    0    0  501    0  0.00000000000E+00 -0.00000000000E+00 -0.18731376697E+03  0.18731376698E+03  0.25500000000E-02 0.  1.
    5000001    1    1    2    0    0 -0.13740959672E+03 -0.10016052946E+03  0.12353810226E+03  0.28199147442E+03  0.18800000000E+03 0.  0.
   -5000001    1    1    2    0    0  0.13740959672E+03  0.10016052946E+03  0.40537362454E+02  0.25671152426E+03  0.18800000000E+03 0.  0.
<mgrwt>
<rscale>  0 0.51310833E+03</rscale>
<asrwt>0</asrwt>
<pdfrwt beam="1">  1        2 0.26759109E-01 0.51310833E+03</pdfrwt>
<pdfrwt beam="2">  1       -2 0.50198462E-01 0.51310833E+03</pdfrwt>
<totfact> 0.76451784E+02</totfact>
</mgrwt>
</event>
<event>
 4    1  0.5917727E-005  0.6810519E+03  0.7818608E-02  0.9750196E-01
         -2   -1    0    0    0  501 -0.00000000000E+00  0.00000000000E+00  0.71303562440E+02  0.71303562486E+02  0.25500000000E-02 0. -1.
          2   -1    0    0  501    0  0.00000000000E+00 -0.00000000000E+00 -0.16262569253E+04  0.16262569253E+04  0.25500000000E-02 0.  1.
    5000001    1    1    2    0    0  0.38499266644E+02 -0.27911764548E+03 -0.86471826087E+03  0.92869291169E+03  0.18800000000E+03 0.  0.
   -5000001    1    1    2    0    0 -0.38499266644E+02  0.27911764548E+03 -0.69023510203E+03  0.76886757614E+03  0.18800000000E+03 0.  0.
<mgrwt>
<rscale>  0 0.68105187E+03</rscale>
<asrwt>0</asrwt>
<pdfrwt beam="1">  1        2 0.23232239E+00 0.68105187E+03</pdfrwt>
<pdfrwt beam="2">  1       -2 0.10186224E-01 0.68105187E+03</pdfrwt>
<totfact> 0.84752006E+02</totfact>
</mgrwt>
</event>
<event>
 4    1  0.5917727E-005  0.4407598E+03  0.7818608E-02  0.1030514E+00
          2   -1    0    0  501    0  0.00000000000E+00  0.00000000000E+00  0.71667438906E+03  0.71667438907E+03  0.25500000000E-02 0.  1.
         -2   -1    0    0    0  501 -0.00000000000E+00 -0.00000000000E+00 -0.67767590152E+02  0.67767590200E+02  0.25500000000E-02 0. -1.
    5000001    1    1    2    0    0  0.96342888348E+02  0.35287074052E+02  0.23204057872E+03  0.31577517303E+03  0.18800000000E+03 0.  0.
   -5000001    1    1    2    0    0 -0.96342888348E+02 -0.35287074052E+02  0.41686622019E+03  0.46866680624E+03  0.18800000000E+03 0.  0.
<mgrwt>
<rscale>  0 0.44075978E+03</rscale>
<asrwt>0</asrwt>
<pdfrwt beam="1">  1        2 0.10238205E+00 0.44075978E+03</pdfrwt>
<pdfrwt beam="2">  1       -2 0.96810847E-02 0.44075978E+03</pdfrwt>
<totfact> 0.31387245E+03</totfact>
</mgrwt>
</event>
<event>
 4    1  0.5917727E-005  0.5029367E+03  0.7818608E-02  0.1013015E+00
         -2   -1    0    0    0  501 -0.00000000000E+00  0.00000000000E+00  0.26202831407E+02  0.26202831532E+02  0.25500000000E-02 0. -1.
          2   -1    0    0  501    0  0.00000000000E+00 -0.00000000000E+00 -0.24133395191E+04  0.24133395191E+04  0.25500000000E-02 0.  1.
    5000001    1    1    2    0    0  0.67088494900E+02  0.14974647870E+03 -0.10426957507E+04  0.10721395910E+04  0.18800000000E+03 0.  0.
   -5000001    1    1    2    0    0 -0.67088494900E+02 -0.14974647870E+03 -0.13444409369E+04  0.13674027596E+04  0.18800000000E+03 0.  0.
<mgrwt>
<rscale>  0 0.50293669E+03</rscale>
<asrwt>0</asrwt>
<pdfrwt beam="1">  1        2 0.34476265E+00 0.50293669E+03</pdfrwt>
<pdfrwt beam="2">  1       -2 0.37432632E-02 0.50293669E+03</pdfrwt>
<totfact> 0.16520890E+03</totfact>
</mgrwt>
</event>
<event>
 4    1  0.5917727E-005  0.7273263E+03  0.7818608E-02  0.9671609E-01
         -2   -1    0    0    0  501 -0.00000000000E+00  0.00000000000E+00  0.32298278662E+03  0.32298278664E+03  0.25500000000E-02 0. -1.
          2   -1    0    0  501    0  0.00000000000E+00 -0.00000000000E+00 -0.40946724482E+03  0.40946724483E+03  0.25500000000E-02 0.  1.
    5000001    1    1    2    0    0 -0.17099307772E+03  0.11673648909E+03 -0.27734671997E+03  0.39386703797E+03  0.18800000000E+03 0.  0.
   -5000001    1    1    2    0    0  0.17099307772E+03 -0.11673648909E+03  0.19086226178E+03  0.33858299350E+03  0.18800000000E+03 0.  0.
<mgrwt>
<rscale>  0 0.72732626E+03</rscale>
<asrwt>0</asrwt>
<pdfrwt beam="1">  1        2 0.58495321E-01 0.72732626E+03</pdfrwt>
<pdfrwt beam="2">  1       -2 0.46140398E-01 0.72732626E+03</pdfrwt>
<totfact> 0.37791973E+02</totfact>
</mgrwt>
</event>
<event>
 4    1  0.5917727E-005  0.3867784E+03  0.7818608E-02  0.1048456E+00
         -2   -1    0    0    0  501 -0.00000000000E+00  0.00000000000E+00  0.29387821391E+02  0.29387821502E+02  0.25500000000E-02 0. -1.
          2   -1    0    0  501    0  0.00000000000E+00 -0.00000000000E+00 -0.12726151684E+04  0.12726151684E+04  0.25500000000E-02 0.  1.
    5000001    1    1    2    0    0 -0.30868213976E+02  0.33162082218E+02 -0.61596372972E+03  0.64560660364E+03  0.18800000000E+03 0.  0.
   -5000001    1    1    2    0    0  0.30868213976E+02 -0.33162082218E+02 -0.62726361732E+03  0.65639638630E+03  0.18800000000E+03 0.  0.
<mgrwt>
<rscale>  0 0.38677842E+03</rscale>
<asrwt>0</asrwt>
<pdfrwt beam="1">  1        2 0.18180213E+00 0.38677842E+03</pdfrwt>
<pdfrwt beam="2">  1       -2 0.41982610E-02 0.38677842E+03</pdfrwt>
<totfact> 0.52562872E+03</totfact>
</mgrwt>
</event>
<event>
 4    1  0.5917727E-005  0.7047049E+03  0.7818608E-02  0.9709220E-01
          2   -1    0    0  501    0  0.00000000000E+00  0.00000000000E+00  0.24015197357E+04  0.24015197357E+04  0.25500000000E-02 0.  1.
         -2   -1    0    0    0  501 -0.00000000000E+00 -0.00000000000E+00 -0.51697365527E+02  0.51697365590E+02  0.25500000000E-02 0. -1.
    5000001    1    1    2    0    0 -0.15196981502E+03 -0.23629707859E+03  0.82893704460E+03  0.89521603981E+03  0.18800000000E+03 0.  0.
   -5000001    1    1    2    0    0  0.15196981502E+03  0.23629707859E+03  0.15208853256E+04  0.15580010615E+04  0.18800000000E+03 0.  0.
<mgrwt>
<rscale>  0 0.70470488E+03</rscale>
<asrwt>0</asrwt>
<pdfrwt beam="1">  1        2 0.34307429E+00 0.70470488E+03</pdfrwt>
<pdfrwt beam="2">  1       -2 0.73853371E-02 0.70470488E+03</pdfrwt>
<totfact> 0.57373413E+02</totfact>
</mgrwt>
</event>
<event>
 4    1  0.5917727E-005  0.5479824E+03  0.7818608E-02  0.1001962E+00
         -2   -1    0    0    0  501 -0.00000000000E+00  0.00000000000E+00  0.33978804078E+02  0.33978804173E+02  0.25500000000E-02 0. -1.
          2   -1    0    0  501    0  0.00000000000E+00 -0.00000000000E+00 -0.22093533622E+04  0.22093533622E+04  0.25500000000E-02 0.  1.
    5000001    1    1    2    0    0 -0.13690023874E+03  0.11660712450E+03 -0.14395707512E+04  0.14628898949E+04  0.18800000000E+03 0.  0.
   -5000001    1    1    2    0    0  0.13690023874E+03 -0.11660712450E+03 -0.73580380699E+03  0.78044227155E+03  0.18800000000E+03 0.  0.
<mgrwt>
<rscale>  0 0.54798243E+03</rscale>
<asrwt>0</asrwt>
<pdfrwt beam="1">  1        2 0.31562182E+00 0.54798243E+03</pdfrwt>
<pdfrwt beam="2">  1       -2 0.48541163E-02 0.54798243E+03</pdfrwt>
<totfact> 0.14009249E+03</totfact>
</mgrwt>
</event>
<event>
 4    1  0.5917727E-005  0.4696589E+03  0.7818608E-02  0.1022017E+00
          2   -1    0    0  501    0  0.00000000000E+00  0.00000000000E+00  0.52398772311E+03  0.52398772312E+03  0.25500000000E-02 0.  1.
         -2   -1    0    0    0  501 -0.00000000000E+00 -0.00000000000E+00 -0.10524076903E+03  0.10524076906E+03  0.25500000000E-02 0. -1.
    5000001    1    1    2    0    0  0.11382536192E+03 -0.36563930869E+01  0.98640457564E+02  0.24092223246E+03  0.18800000000E+03 0.  0.
   -5000001    1    1    2    0    0 -0.11382536192E+03  0.36563930869E+01  0.32010649652E+03  0.38830625972E+03  0.18800000000E+03 0.  0.
<mgrwt>
<rscale>  0 0.46965890E+03</rscale>
<asrwt>0</asrwt>
<pdfrwt beam="1">  1        2 0.74855390E-01 0.46965890E+03</pdfrwt>
<pdfrwt beam="2">  1       -2 0.15034395E-01 0.46965890E+03</pdfrwt>
<totfact> 0.22053225E+03</totfact>
</mgrwt>
</event>
<event>
 4    1  0.5917727E-005  0.4789582E+03  0.7818608E-02  0.1019422E+00
          2   -1    0    0  501    0  0.00000000000E+00  0.00000000000E+00  0.38981996175E+03  0.38981996176E+03  0.25500000000E-02 0.  1.
         -2   -1    0    0    0  501 -0.00000000000E+00 -0.00000000000E+00 -0.14711984069E+03  0.14711984071E+03  0.25500000000E-02 0. -1.
    5000001    1    1    2    0    0 -0.11201855417E+03 -0.91507141357E+02  0.84431038701E+02  0.25178227438E+03  0.18800000000E+03 0.  0.
   -5000001    1    1    2    0    0  0.11201855417E+03  0.91507141357E+02  0.15826908236E+03  0.28515752809E+03  0.18800000000E+03 0.  0.
<mgrwt>
<rscale>  0 0.47895825E+03</rscale>
<asrwt>0</asrwt>
<pdfrwt beam="1">  1        2 0.55688567E-01 0.47895825E+03</pdfrwt>
<pdfrwt beam="2">  1       -2 0.21017120E-01 0.47895825E+03</pdfrwt>
<totfact> 0.17316265E+03</totfact>
</mgrwt>
</event>
<event>
 4    1  0.5917727E-005  0.5564221E+03  0.7818608E-02  0.1000018E+00
          2   -1    0    0  501    0  0.00000000000E+00  0.00000000000E+00  0.28959715272E+03  0.28959715273E+03  0.25500000000E-02 0.  1.
         -2   -1    0    0    0  501 -0.00000000000E+00 -0.00000000000E+00 -0.26727260048E+03  0.26727260050E+03  0.25500000000E-02 0. -1.
    5000001    1    1    2    0    0 -0.10339512445E+03 -0.94410101208E+02 -0.13880341871E+03  0.27242284783E+03  0.18800000000E+03 0.  0.
   -5000001    1    1    2    0    0  0.10339512445E+03  0.94410101208E+02  0.16112797095E+03  0.28444690540E+03  0.18800000000E+03 0.  0.
<mgrwt>
<rscale>  0 0.55642208E+03</rscale>
<asrwt>0</asrwt>
<pdfrwt beam="1">  1        2 0.41371022E-01 0.55642208E+03</pdfrwt>
<pdfrwt beam="2">  1       -2 0.38181800E-01 0.55642208E+03</pdfrwt>
<totfact> 0.80669614E+02</totfact>
</mgrwt>
</event>
<event>
 4    1  0.5917727E-005  0.7403144E+03  0.7818608E-02  0.9650669E-01
          2   -1    0    0  501    0  0.00000000000E+00  0.00000000000E+00  0.13725544588E+04  0.13725544588E+04  0.25500000000E-02 0.  1.
         -2   -1    0    0    0  501 -0.00000000000E+00 -0.00000000000E+00 -0.99825799680E+02  0.99825799712E+02  0.25500000000E-02 0. -1.
    5000001    1    1    2    0    0  0.30870186618E+03 -0.49588094815E+02  0.51189731915E+03  0.62860057802E+03  0.18800000000E+03 0.  0.
   -5000001    1    1    2    0    0 -0.30870186618E+03  0.49588094815E+02  0.76083133993E+03  0.84377968046E+03  0.18800000000E+03 0.  0.
<mgrwt>
<rscale>  0 0.74031438E+03</rscale>
<asrwt>0</asrwt>
<pdfrwt beam="1">  1        2 0.19607922E+00 0.74031438E+03</pdfrwt>
<pdfrwt beam="2">  1       -2 0.14260828E-01 0.74031438E+03</pdfrwt>
<totfact> 0.65856312E+02</totfact>
</mgrwt>
</event>
<event>
 4    1  0.5917727E-005  0.8688735E+03  0.7818608E-02  0.9465350E-01
         -2   -1    0    0    0  501 -0.00000000000E+00  0.00000000000E+00  0.71194606754E+02  0.71194606800E+02  0.25500000000E-02 0. -1.
          2   -1    0    0  501    0  0.00000000000E+00 -0.00000000000E+00 -0.26509773712E+04  0.26509773712E+04  0.25500000000E-02 0.  1.
    5000001    1    1    2    0    0  0.39037921389E+03  0.79096010906E+01 -0.13855784096E+04  0.14517678952E+04  0.18800000000E+03 0.  0.
   -5000001    1    1    2    0    0 -0.39037921389E+03 -0.79096010906E+01 -0.11942043548E+04  0.12704040828E+04  0.18800000000E+03 0.  0.
<mgrwt>
<rscale>  0 0.86887350E+03</rscale>
<asrwt>0</asrwt>
<pdfrwt beam="1">  1        2 0.37871099E+00 0.86887350E+03</pdfrwt>
<pdfrwt beam="2">  1       -2 0.10170660E-01 0.86887350E+03</pdfrwt>
<totfact> 0.25096082E+02</totfact>
</mgrwt>
</event>
<event>
 4    1  0.5917727E-005  0.5223489E+03  0.7818608E-02  0.1008105E+00
         -2   -1    0    0    0  501 -0.00000000000E+00  0.00000000000E+00  0.53408375716E+02  0.53408375777E+02  0.25500000000E-02 0. -1.
          2   -1    0    0  501    0  0.00000000000E+00 -0.00000000000E+00 -0.12771795888E+04  0.12771795888E+04  0.25500000000E-02 0.  1.
    5000001    1    1    2    0    0 -0.14995210858E+03  0.56227956587E+02 -0.39542559830E+03  0.46621091982E+03  0.18800000000E+03 0.  0.
   -5000001    1    1    2    0    0  0.14995210858E+03 -0.56227956587E+02 -0.82834561479E+03  0.86437704476E+03  0.18800000000E+03 0.  0.
<mgrwt>
<rscale>  0 0.52234888E+03</rscale>
<asrwt>0</asrwt>
<pdfrwt beam="1">  1        2 0.18245421E+00 0.52234888E+03</pdfrwt>
<pdfrwt beam="2">  1       -2 0.76297688E-02 0.52234888E+03</pdfrwt>
<totfact> 0.20695561E+03</totfact>
</mgrwt>
</event>
<event>
 4    1  0.5917727E-005  0.5610936E+03  0.7818608E-02  0.9989583E-01
          2   -1    0    0  501    0  0.00000000000E+00  0.00000000000E+00  0.16002568740E+03  0.16002568742E+03  0.25500000000E-02 0.  1.
         -2   -1    0    0    0  501 -0.00000000000E+00 -0.00000000000E+00 -0.49183665076E+03  0.49183665077E+03  0.25500000000E-02 0. -1.
    5000001    1    1    2    0    0  0.42429101355E+02 -0.17398305766E+03 -0.42450332125E+02  0.26309002963E+03  0.18800000000E+03 0.  0.
   -5000001    1    1    2    0    0 -0.42429101355E+02  0.17398305766E+03 -0.28936063123E+03  0.38877230856E+03  0.18800000000E+03 0.  0.
<mgrwt>
<rscale>  0 0.56109357E+03</rscale>
<asrwt>0</asrwt>
<pdfrwt beam="1">  1        2 0.22860813E-01 0.56109357E+03</pdfrwt>
<pdfrwt beam="2">  1       -2 0.70262378E-01 0.56109357E+03</pdfrwt>
<totfact> 0.45215270E+02</totfact>
</mgrwt>
</event>
<event>
 4    1  0.5917727E-005  0.4380682E+03  0.7818608E-02  0.1031341E+00
         -2   -1    0    0    0  501 -0.00000000000E+00  0.00000000000E+00  0.67610210082E+03  0.67610210082E+03  0.25500000000E-02 0. -1.
          2   -1    0    0  501    0  0.00000000000E+00 -0.00000000000E+00 -0.70959618337E+02  0.70959618383E+02  0.25500000000E-02 0.  1.
    5000001    1    1    2    0    0 -0.17560199859E+01  0.11091427199E+03  0.33340411512E+03  0.39850641565E+03  0.18800000000E+03 0.  0.
   -5000001    1    1    2    0    0  0.17560199859E+01 -0.11091427199E+03  0.27173836736E+03  0.34855530355E+03  0.18800000000E+03 0.  0.
<mgrwt>
<rscale>  0 0.43806825E+03</rscale>
<asrwt>0</asrwt>
<pdfrwt beam="1">  1        2 0.10137089E-01 0.43806825E+03</pdfrwt>
<pdfrwt beam="2">  1       -2 0.96586013E-01 0.43806825E+03</pdfrwt>
<totfact> 0.58969929E+02</totfact>
</mgrwt>
</event>
<event>
 4    1  0.5917727E-005  0.5094008E+03  0.7818608E-02  0.1011354E+00
         -2   -1    0    0    0  501 -0.00000000000E+00  0.00000000000E+00  0.42137475605E+03  0.42137475605E+03  0.25500000000E-02 0. -1.
          2   -1    0    0  501    0  0.00000000000E+00 -0.00000000000E+00 -0.15395393187E+03  0.15395393189E+03  0.25500000000E-02 0.  1.
    5000001    1    1    2    0    0 -0.17154032246E+03 -0.49413069631E+01  0.14367251583E+03  0.29229486918E+03  0.18800000000E+03 0.  0.
   -5000001    1    1    2    0    0  0.17154032246E+03  0.49413069631E+01  0.12374830834E+03  0.28303381876E+03  0.18800000000E+03 0.  0.
<mgrwt>
<rscale>  0 0.50940083E+03</rscale>
<asrwt>0</asrwt>
<pdfrwt beam="1">  1        2 0.21993419E-01 0.50940083E+03</pdfrwt>
<pdfrwt beam="2">  1       -2 0.60196394E-01 0.50940083E+03</pdfrwt>
<totfact> 0.65802117E+02</totfact>
</mgrwt>
</event>
<event>
 4    1  0.5917727E-005  0.5282608E+03  0.7818608E-02  0.1006655E+00
          2   -1    0    0  501    0  0.00000000000E+00  0.00000000000E+00  0.25624924598E+04  0.25624924598E+04  0.25500000000E-02 0.  1.
         -2   -1    0    0    0  501 -0.00000000000E+00 -0.00000000000E+00 -0.27225394642E+02  0.27225394761E+02  0.25500000000E-02 0. -1.
    5000001    1    1    2    0    0 -0.15151535033E+03  0.29810450725E+02  0.17717727710E+04  0.17883982544E+04  0.18800000000E+03 0.  0.
   -5000001    1    1    2    0    0  0.15151535033E+03 -0.29810450725E+02  0.76349429414E+03  0.80131960013E+03  0.18800000000E+03 0.  0.
<mgrwt>
<rscale>  0 0.52826080E+03</rscale>
<asrwt>0</asrwt>
<pdfrwt beam="1">  1        2 0.36607036E+00 0.52826080E+03</pdfrwt>
<pdfrwt beam="2">  1       -2 0.38893420E-02 0.52826080E+03</pdfrwt>
<totfact> 0.13056276E+03</totfact>
</mgrwt>
</event>
<event>
 4    1  0.5917727E-005  0.4428303E+03  0.7818608E-02  0.1029882E+00
          2   -1    0    0  501    0  0.00000000000E+00  0.00000000000E+00  0.37065848063E+03  0.37065848064E+03  0.25500000000E-02 0.  1.
         -2   -1    0    0    0  501 -0.00000000000E+00 -0.00000000000E+00 -0.13226371629E+03  0.13226371631E+03  0.25500000000E-02 0. -1.
    5000001    1    1    2    0    0  0.89796517930E+02 -0.11728667732E+02  0.20326747860E+03  0.29131193613E+03  0.18800000000E+03 0.  0.
   -5000001    1    1    2    0    0 -0.89796517930E+02  0.11728667732E+02  0.35127285747E+02  0.21161026082E+03  0.18800000000E+03 0.  0.
<mgrwt>
<rscale>  0 0.44283030E+03</rscale>
<asrwt>0</asrwt>
<pdfrwt beam="1">  1        2 0.52951212E-01 0.44283030E+03</pdfrwt>
<pdfrwt beam="2">  1       -2 0.18894816E-01 0.44283030E+03</pdfrwt>
<totfact> 0.21991456E+03</totfact>
</mgrwt>
</event>
<event>
 4    1  0.5917727E-005  0.5259404E+03  0.7818608E-02  0.1007221E+00
          2   -1    0    0  501    0  0.00000000000E+00  0.00000000000E+00  0.28272502866E+04  0.28272502866E+04  0.25500000000E-02 0.  1.
         -2   -1    0    0    0  501 -0.00000000000E+00 -0.00000000000E+00 -0.24459572550E+02  0.24459572683E+02  0.25500000000E-02 0. -1.
    5000001    1    1    2    0    0 -0.10608310314E+03  0.66859559789E+02  0.67221637971E+03  0.70918452229E+03  0.18800000000E+03 0.  0.
   -5000001    1    1    2    0    0  0.10608310314E+03 -0.66859559789E+02  0.21305743344E+04  0.21425253370E+04  0.18800000000E+03 0.  0.
<mgrwt>
<rscale>  0 0.52594043E+03</rscale>
<asrwt>0</asrwt>
<pdfrwt beam="1">  1        2 0.40389243E+00 0.52594043E+03</pdfrwt>
<pdfrwt beam="2">  1       -2 0.34942287E-02 0.52594043E+03</pdfrwt>
<totfact> 0.11193802E+03</totfact>
</mgrwt>
</event>
<event>
 4    1  0.5917727E-005  0.4358716E+03  0.7818608E-02  0.1032021E+00
          2   -1    0    0  501    0  0.00000000000E+00  0.00000000000E+00  0.13778848163E+04  0.13778848163E+04  0.25500000000E-02 0.  1.
         -2   -1    0    0    0  501 -0.00000000000E+00 -0.00000000000E+00 -0.34470236666E+02  0.34470236760E+02  0.25500000000E-02 0. -1.
    5000001    1    1    2    0    0  0.76877072882E+02 -0.53420829547E+02  0.48309656355E+03  0.52677334697E+03  0.18800000000E+03 0.  0.
   -5000001    1    1    2    0    0 -0.76877072882E+02  0.53420829547E+02  0.86031801605E+03  0.88558170606E+03  0.18800000000E+03 0.  0.
<mgrwt>
<rscale>  0 0.43587161E+03</rscale>
<asrwt>0</asrwt>
<pdfrwt beam="1">  1        2 0.19684072E+00 0.43587161E+03</pdfrwt>
<pdfrwt beam="2">  1       -2 0.49243188E-02 0.43587161E+03</pdfrwt>
<totfact> 0.36216311E+03</totfact>
</mgrwt>
</event>
<event>
 4    1  0.5917727E-005  0.4685840E+03  0.7818608E-02  0.1022321E+00
         -2   -1    0    0    0  501 -0.00000000000E+00  0.00000000000E+00  0.15392335766E+03  0.15392335769E+03  0.25500000000E-02 0. -1.
          2   -1    0    0  501    0  0.00000000000E+00 -0.00000000000E+00 -0.35662379501E+03  0.35662379502E+03  0.25500000000E-02 0.  1.
    5000001    1    1    2    0    0 -0.11382355781E+03 -0.77176200978E+01 -0.18941798878E+03  0.29023876110E+03  0.18800000000E+03 0.  0.
   -5000001    1    1    2    0    0  0.11382355781E+03  0.77176200978E+01 -0.13282448565E+02  0.22030839160E+03  0.18800000000E+03 0.  0.
<mgrwt>
<rscale>  0 0.46858396E+03</rscale>
<asrwt>0</asrwt>
<pdfrwt beam="1">  1        2 0.50946256E-01 0.46858396E+03</pdfrwt>
<pdfrwt beam="2">  1       -2 0.21989051E-01 0.46858396E+03</pdfrwt>
<totfact> 0.17642622E+03</totfact>
</mgrwt>
</event>
<event>
 4    1  0.5917727E-005  0.4802043E+03  0.7818608E-02  0.1019079E+00
          2   -1    0    0  501    0  0.00000000000E+00  0.00000000000E+00  0.15174215399E+03  0.15174215401E+03  0.25500000000E-02 0.  1.
         -2   -1    0    0    0  501 -0.00000000000E+00 -0.00000000000E+00 -0.37991454604E+03  0.37991454604E+03  0.25500000000E-02 0. -1.
    5000001    1    1    2    0    0  0.78073263747E+01  0.14693933362E+03 -0.14237654724E+03  0.27796978850E+03  0.18800000000E+03 0.  0.
   -5000001    1    1    2    0    0 -0.78073263747E+01 -0.14693933362E+03 -0.85795844804E+02  0.25368691156E+03  0.18800000000E+03 0.  0.
<mgrwt>
<rscale>  0 0.48020434E+03</rscale>
<asrwt>0</asrwt>
<pdfrwt beam="1">  1        2 0.21677451E-01 0.48020434E+03</pdfrwt>
<pdfrwt beam="2">  1       -2 0.54273506E-01 0.48020434E+03</pdfrwt>
<totfact> 0.82952751E+02</totfact>
</mgrwt>
</event>
<event>
 4    1  0.5917727E-005  0.5630413E+03  0.7818608E-02  0.9985197E-01
         -2   -1    0    0    0  501 -0.00000000000E+00  0.00000000000E+00  0.36804150249E+02  0.36804150338E+02  0.25500000000E-02 0. -1.
          2   -1    0    0  501    0  0.00000000000E+00 -0.00000000000E+00 -0.21533952205E+04  0.21533952205E+04  0.25500000000E-02 0.  1.
    5000001    1    1    2    0    0  0.12321646892E+03  0.15374619369E+03 -0.78077885298E+03  0.82690979408E+03  0.18800000000E+03 0.  0.
   -5000001    1    1    2    0    0 -0.12321646892E+03 -0.15374619369E+03 -0.13358122173E+04  0.13632895768E+04  0.18800000000E+03 0.  0.
<mgrwt>
<rscale>  0 0.56304132E+03</rscale>
<asrwt>0</asrwt>
<pdfrwt beam="1">  1        2 0.30762781E+00 0.56304132E+03</pdfrwt>
<pdfrwt beam="2">  1       -2 0.52577371E-02 0.56304132E+03</pdfrwt>
<totfact> 0.13194336E+03</totfact>
</mgrwt>
</event>
<event>
 4    1  0.5917727E-005  0.6767336E+03  0.7818608E-02  0.9757869E-01
          2   -1    0    0  501    0  0.00000000000E+00  0.00000000000E+00  0.96824506611E+03  0.96824506611E+03  0.25500000000E-02 0.  1.
         -2   -1    0    0    0  501 -0.00000000000E+00 -0.00000000000E+00 -0.11824702403E+03  0.11824702406E+03  0.25500000000E-02 0. -1.
    5000001    1    1    2    0    0 -0.92937589502E+01  0.27605125289E+03  0.51082061462E+03  0.61038706449E+03  0.18800000000E+03 0.  0.
   -5000001    1    1    2    0    0  0.92937589502E+01 -0.27605125289E+03  0.33917742747E+03  0.47610502568E+03  0.18800000000E+03 0.  0.
<mgrwt>
<rscale>  0 0.67673362E+03</rscale>
<asrwt>0</asrwt>
<pdfrwt beam="1">  1        2 0.13832073E+00 0.67673362E+03</pdfrwt>
<pdfrwt beam="2">  1       -2 0.16892431E-01 0.67673362E+03</pdfrwt>
<totfact> 0.84457927E+02</totfact>
</mgrwt>
</event>
<event>
 4    1  0.5917727E-005  0.8037143E+03  0.7818608E-02  0.9554656E-01
         -2   -1    0    0    0  501 -0.00000000000E+00  0.00000000000E+00  0.24056169020E+03  0.24056169021E+03  0.25500000000E-02 0. -1.
          2   -1    0    0  501    0  0.00000000000E+00 -0.00000000000E+00 -0.67130044000E+03  0.67130044000E+03  0.25500000000E-02 0.  1.
    5000001    1    1    2    0    0 -0.24262337512E+02  0.34229404624E+03 -0.11143913319E+03  0.40683725926E+03  0.18800000000E+03 0.  0.
   -5000001    1    1    2    0    0  0.24262337512E+02 -0.34229404624E+03 -0.31929961661E+03  0.50502487095E+03  0.18800000000E+03 0.  0.
<mgrwt>
<rscale>  0 0.80371430E+03</rscale>
<asrwt>0</asrwt>
<pdfrwt beam="1">  1        2 0.95900062E-01 0.80371430E+03</pdfrwt>
<pdfrwt beam="2">  1       -2 0.34365956E-01 0.80371430E+03</pdfrwt>
<totfact> 0.37726918E+02</totfact>
</mgrwt>
</event>
<event>
 4    1  0.5917727E-005  0.5377958E+03  0.7818608E-02  0.1004359E+00
          2   -1    0    0  501    0  0.00000000000E+00  0.00000000000E+00  0.31438645956E+03  0.31438645957E+03  0.25500000000E-02 0.  1.
         -2   -1    0    0    0  501 -0.00000000000E+00 -0.00000000000E+00 -0.22999107887E+03  0.22999107888E+03  0.25500000000E-02 0. -1.
    5000001    1    1    2    0    0  0.54269511413E+01 -0.18772626161E+03  0.83828630039E+02  0.27864285441E+03  0.18800000000E+03 0.  0.
   -5000001    1    1    2    0    0 -0.54269511413E+01  0.18772626161E+03  0.56675065458E+00  0.26573468405E+03  0.18800000000E+03 0.  0.
<mgrwt>
<rscale>  0 0.53779580E+03</rscale>
<asrwt>0</asrwt>
<pdfrwt beam="1">  1        2 0.44912351E-01 0.53779580E+03</pdfrwt>
<pdfrwt beam="2">  1       -2 0.32855868E-01 0.53779580E+03</pdfrwt>
<totfact> 0.97992446E+02</totfact>
</mgrwt>
</event>
<event>
 4    1  0.5917727E-005  0.7528408E+03  0.7818608E-02  0.9630904E-01
          2   -1    0    0  501    0  0.00000000000E+00  0.00000000000E+00  0.27782165410E+04  0.27782165410E+04  0.25500000000E-02 0.  1.
         -2   -1    0    0    0  501 -0.00000000000E+00 -0.00000000000E+00 -0.51001179602E+02  0.51001179666E+02  0.25500000000E-02 0. -1.
    5000001    1    1    2    0    0 -0.19845102237E+03  0.24327057578E+03  0.10320257627E+04  0.10949815323E+04  0.18800000000E+03 0.  0.
   -5000001    1    1    2    0    0  0.19845102237E+03 -0.24327057578E+03  0.16951895987E+04  0.17342361883E+04  0.18800000000E+03 0.  0.
<mgrwt>
<rscale>  0 0.75284081E+03</rscale>
<asrwt>0</asrwt>
<pdfrwt beam="1">  1        2 0.39688804E+00 0.75284081E+03</pdfrwt>
<pdfrwt beam="2">  1       -2 0.72858835E-02 0.75284081E+03</pdfrwt>
<totfact> 0.37166547E+02</totfact>
</mgrwt>
</event>
<event>
 4    1  0.5917727E-005  0.5790937E+03  0.7818608E-02  0.9949755E-01
         -2   -1    0    0    0  501 -0.00000000000E+00  0.00000000000E+00  0.35567236110E+02  0.35567236201E+02  0.25500000000E-02 0. -1.
          2   -1    0    0  501    0  0.00000000000E+00 -0.00000000000E+00 -0.23571523002E+04  0.23571523002E+04  0.25500000000E-02 0.  1.
    5000001    1    1    2    0    0  0.59502690533E+02 -0.17209025094E+03 -0.64908242038E+03  0.69986256730E+03  0.18800000000E+03 0.  0.
   -5000001    1    1    2    0    0 -0.59502690533E+02  0.17209025094E+03 -0.16725026437E+04  0.16928569691E+04  0.18800000000E+03 0.  0.
<mgrwt>
<rscale>  0 0.57909375E+03</rscale>
<asrwt>0</asrwt>
<pdfrwt beam="1">  1        2 0.33673594E+00 0.57909375E+03</pdfrwt>
<pdfrwt beam="2">  1       -2 0.50810352E-02 0.57909375E+03</pdfrwt>
<totfact> 0.10971128E+03</totfact>
</mgrwt>
</event>
<event>
 4    1  0.5917727E-005  0.7493484E+03  0.7818608E-02  0.9636373E-01
         -2   -1    0    0    0  501 -0.00000000000E+00  0.00000000000E+00  0.10980282601E+03  0.10980282604E+03  0.25500000000E-02 0. -1.
          2   -1    0    0  501    0  0.00000000000E+00 -0.00000000000E+00 -0.12784803959E+04  0.12784803959E+04  0.25500000000E-02 0.  1.
    5000001    1    1    2    0    0 -0.31466663408E+03  0.22249620284E+02 -0.44661014633E+03  0.57819958407E+03  0.18800000000E+03 0.  0.
   -5000001    1    1    2    0    0  0.31466663408E+03 -0.22249620284E+02 -0.72206742358E+03  0.81008363790E+03  0.18800000000E+03 0.  0.
<mgrwt>
<rscale>  0 0.74934841E+03</rscale>
<asrwt>0</asrwt>
<pdfrwt beam="1">  1        2 0.18264005E+00 0.74934841E+03</pdfrwt>
<pdfrwt beam="2">  1       -2 0.15686119E-01 0.74934841E+03</pdfrwt>
<totfact> 0.63057062E+02</totfact>
</mgrwt>
</event>
<event>
 4    1  0.5917727E-005  0.4936312E+03  0.7818608E-02  0.1015455E+00
         -2   -1    0    0    0  501 -0.00000000000E+00  0.00000000000E+00  0.22428646233E+03  0.22428646235E+03  0.25500000000E-02 0.  1.
          2   -1    0    0  501    0  0.00000000000E+00 -0.00000000000E+00 -0.27160774695E+03  0.27160774696E+03  0.25500000000E-02 0. -1.
    5000001    1    1    2    0    0 -0.14760937038E+03  0.51437422199E+02 -0.57573455225E+02  0.25118327447E+03  0.18800000000E+03 0.  0.
   -5000001    1    1    2    0    0  0.14760937038E+03 -0.51437422199E+02  0.10252170612E+02  0.24471093484E+03  0.18800000000E+03 0.  0.
<mgrwt>
<rscale>  0 0.49363120E+03</rscale>
<asrwt>0</asrwt>
<pdfrwt beam="1">  1        2 0.38801106E-01 0.49363120E+03</pdfrwt>
<pdfrwt beam="2">  1       -2 0.32040923E-01 0.49363120E+03</pdfrwt>
<totfact> 0.12061113E+03</totfact>
</mgrwt>
</event>
<event>
 4    1  0.5917727E-005  0.8026108E+03  0.7818608E-02  0.9556246E-01
         -2   -1    0    0    0  501 -0.00000000000E+00  0.00000000000E+00  0.58223282618E+02  0.58223282673E+02  0.25500000000E-02 0. -1.
          2   -1    0    0  501    0  0.00000000000E+00 -0.00000000000E+00 -0.27660072891E+04  0.27660072891E+04  0.25500000000E-02 0.  1.
    5000001    1    1    2    0    0 -0.74058118548E+02 -0.24220534921E+03 -0.22269101044E+04  0.22491377568E+04  0.18800000000E+03 0.  0.
   -5000001    1    1    2    0    0  0.74058118548E+02  0.24220534921E+03 -0.48087390215E+03  0.57509281501E+03  0.18800000000E+03 0.  0.
<mgrwt>
<rscale>  0 0.80261080E+03</rscale>
<asrwt>0</asrwt>
<pdfrwt beam="1">  1        2 0.39514382E+00 0.80261080E+03</pdfrwt>
<pdfrwt beam="2">  1       -2 0.83176136E-02 0.80261080E+03</pdfrwt>
<totfact> 0.30393400E+02</totfact>
</mgrwt>
</event>
<event>
 4    1  0.5917727E-005  0.5245030E+03  0.7818608E-02  0.1007574E+00
          2   -1    0    0  501    0  0.00000000000E+00  0.00000000000E+00  0.42008598737E+03  0.42008598737E+03  0.25500000000E-02 0.  1.
         -2   -1    0    0    0  501 -0.00000000000E+00 -0.00000000000E+00 -0.16371851303E+03  0.16371851305E+03  0.25500000000E-02 0. -1.
    5000001    1    1    2    0    0  0.47764342689E+02  0.14662013485E+03  0.23754150360E+03  0.33992478919E+03  0.18800000000E+03 0.  0.
   -5000001    1    1    2    0    0 -0.47764342689E+02 -0.14662013485E+03  0.18825970742E+02  0.24387971123E+03  0.18800000000E+03 0.  0.
<mgrwt>
<rscale>  0 0.52450302E+03</rscale>
<asrwt>0</asrwt>
<pdfrwt beam="1">  1        2 0.60012283E-01 0.52450302E+03</pdfrwt>
<pdfrwt beam="2">  1       -2 0.23388359E-01 0.52450302E+03</pdfrwt>
<totfact> 0.13213079E+03</totfact>
</mgrwt>
</event>
<event>
 4    1  0.5917727E-005  0.5355860E+03  0.7818608E-02  0.1004886E+00
         -2   -1    0    0    0  501 -0.00000000000E+00  0.00000000000E+00  0.35068334700E+02  0.35068334792E+02  0.25500000000E-02 0. -1.
          2   -1    0    0  501    0  0.00000000000E+00 -0.00000000000E+00 -0.20449530949E+04  0.20449530949E+04  0.25500000000E-02 0.  1.
    5000001    1    1    2    0    0 -0.11163864727E+02 -0.13732608107E+03 -0.15170233003E+04  0.15348246734E+04  0.18800000000E+03 0.  0.
   -5000001    1    1    2    0    0  0.11163864727E+02  0.13732608107E+03 -0.49286145987E+03  0.54519675626E+03  0.18800000000E+03 0.  0.
<mgrwt>
<rscale>  0 0.53558603E+03</rscale>
<asrwt>0</asrwt>
<pdfrwt beam="1">  1        2 0.29213608E+00 0.53558603E+03</pdfrwt>
<pdfrwt beam="2">  1       -2 0.50097634E-02 0.53558603E+03</pdfrwt>
<totfact> 0.16138883E+03</totfact>
</mgrwt>
</event>
<event>
 4    1  0.5917727E-005  0.1236206E+04  0.7818608E-02  0.9081742E-01
          2   -1    0    0  501    0  0.00000000000E+00  0.00000000000E+00  0.61489220838E+03  0.61489220839E+03  0.25500000000E-02 0.  1.
         -2   -1    0    0    0  501 -0.00000000000E+00 -0.00000000000E+00 -0.62133098732E+03  0.62133098732E+03  0.25500000000E-02 0. -1.
    5000001    1    1    2    0    0 -0.54672138957E+03  0.11148323216E+03  0.18486504298E+03  0.61713197372E+03  0.18800000000E+03 0.  0.
   -5000001    1    1    2    0    0  0.54672138957E+03 -0.11148323216E+03 -0.19130382192E+03  0.61909122199E+03  0.18800000000E+03 0.  0.
<mgrwt>
<rscale>  0 0.12362064E+04</rscale>
<asrwt>0</asrwt>
<pdfrwt beam="1">  1        2 0.87841745E-01 0.12362064E+04</pdfrwt>
<pdfrwt beam="2">  1       -2 0.88761569E-01 0.12362064E+04</pdfrwt>
<totfact> 0.56685832E+01</totfact>
</mgrwt>
</event>
<event>
 4    1  0.5917727E-005  0.9507075E+03  0.7818608E-02  0.9364324E-01
         -2   -1    0    0    0  501 -0.00000000000E+00  0.00000000000E+00  0.17333788607E+03  0.17333788609E+03  0.25500000000E-02 0. -1.
          2   -1    0    0  501    0  0.00000000000E+00 -0.00000000000E+00 -0.13035880058E+04  0.13035880058E+04  0.25500000000E-02 0.  1.
    5000001    1    1    2    0    0 -0.48052057641E+02 -0.38760018229E+03 -0.26199592769E+03  0.50648669053E+03  0.18800000000E+03 0.  0.
   -5000001    1    1    2    0    0  0.48052057641E+02  0.38760018229E+03 -0.86825419202E+03  0.97043920135E+03  0.18800000000E+03 0.  0.
<mgrwt>
<rscale>  0 0.95070750E+03</rscale>
<asrwt>0</asrwt>
<pdfrwt beam="1">  1        2 0.18622685E+00 0.95070750E+03</pdfrwt>
<pdfrwt beam="2">  1       -2 0.24762556E-01 0.95070750E+03</pdfrwt>
<totfact> 0.27208045E+02</totfact>
</mgrwt>
</event>
<event>
 4    1  0.5917727E-005  0.4994894E+03  0.7818608E-02  0.1013912E+00
          2   -1    0    0  501    0  0.00000000000E+00  0.00000000000E+00  0.10322047978E+04  0.10322047978E+04  0.25500000000E-02 0.  1.
         -2   -1    0    0    0  501 -0.00000000000E+00 -0.00000000000E+00 -0.60426386723E+02  0.60426386777E+02  0.25500000000E-02 0. -1.
    5000001    1    1    2    0    0 -0.29500566102E+02 -0.14494294924E+03  0.64286648895E+03  0.68593007264E+03  0.18800000000E+03 0.  0.
   -5000001    1    1    2    0    0  0.29500566102E+02  0.14494294924E+03  0.32891192211E+03  0.40670111193E+03  0.18800000000E+03 0.  0.
<mgrwt>
<rscale>  0 0.49948936E+03</rscale>
<asrwt>0</asrwt>
<pdfrwt beam="1">  1        2 0.14745783E+00 0.49948936E+03</pdfrwt>
<pdfrwt beam="2">  1       -2 0.86323411E-02 0.49948936E+03</pdfrwt>
<totfact> 0.23427696E+03</totfact>
</mgrwt>
</event>
<event>
 4    1  0.5917727E-005  0.6247718E+03  0.7818608E-02  0.9855305E-01
         -2   -1    0    0    0  501 -0.00000000000E+00  0.00000000000E+00  0.78267675290E+02  0.78267675331E+02  0.25500000000E-02 0.  1.
          2   -1    0    0  501    0  0.00000000000E+00 -0.00000000000E+00 -0.12468104807E+04  0.12468104807E+04  0.25500000000E-02 0. -1.
    5000001    1    1    2    0    0 -0.19535197352E+03  0.14318376505E+03 -0.45742506411E+03  0.55067746768E+03  0.18800000000E+03 0.  0.
   -5000001    1    1    2    0    0  0.19535197352E+03 -0.14318376505E+03 -0.71111774134E+03  0.77440068839E+03  0.18800000000E+03 0.  0.
<mgrwt>
<rscale>  0 0.62477182E+03</rscale>
<asrwt>0</asrwt>
<pdfrwt beam="1">  1        2 0.17811577E+00 0.62477182E+03</pdfrwt>
<pdfrwt beam="2">  1       -2 0.11181097E-01 0.62477182E+03</pdfrwt>
<totfact> 0.11596485E+03</totfact>
</mgrwt>
</event>
<event>
 4    1  0.5917727E-005  0.4995476E+03  0.7818608E-02  0.1013897E+00
         -2   -1    0    0    0  501 -0.00000000000E+00  0.00000000000E+00  0.14334754698E+02  0.14334754925E+02  0.25500000000E-02 0. -1.
          2   -1    0    0  501    0  0.00000000000E+00 -0.00000000000E+00 -0.43521472212E+04  0.43521472212E+04  0.25500000000E-02 0.  1.
    5000001    1    1    2    0    0  0.95676391007E+02  0.13354507396E+03 -0.22335560445E+04  0.22474663206E+04  0.18800000000E+03 0.  0.
   -5000001    1    1    2    0    0 -0.95676391007E+02 -0.13354507396E+03 -0.21042564221E+04  0.21190156556E+04  0.18800000000E+03 0.  0.
<mgrwt>
<rscale>  0 0.49954765E+03</rscale>
<asrwt>0</asrwt>
<pdfrwt beam="1">  1        2 0.62173447E+00 0.49954765E+03</pdfrwt>
<pdfrwt beam="2">  1       -2 0.20478249E-02 0.49954765E+03</pdfrwt>
<totfact> 0.29353763E+02</totfact>
</mgrwt>
</event>
<event>
 4    1  0.5917727E-005  0.5630558E+03  0.7818608E-02  0.9985164E-01
          2   -1    0    0  501    0  0.00000000000E+00  0.00000000000E+00  0.11951891371E+04  0.11951891371E+04  0.25500000000E-02 0.  1.
         -2   -1    0    0    0  501 -0.00000000000E+00 -0.00000000000E+00 -0.66314163790E+02  0.66314163839E+02  0.25500000000E-02 0. -1.
    5000001    1    1    2    0    0 -0.88941363345E+02  0.17971699401E+03  0.70081507338E+03  0.75279116036E+03  0.18800000000E+03 0.  0.
   -5000001    1    1    2    0    0  0.88941363345E+02 -0.17971699401E+03  0.42805989998E+03  0.50871214062E+03  0.18800000000E+03 0.  0.
<mgrwt>
<rscale>  0 0.56305583E+03</rscale>
<asrwt>0</asrwt>
<pdfrwt beam="1">  1        2 0.17074132E+00 0.56305583E+03</pdfrwt>
<pdfrwt beam="2">  1       -2 0.94734513E-02 0.56305583E+03</pdfrwt>
<totfact> 0.16242795E+03</totfact>
</mgrwt>
</event>
<event>
 4    1  0.5917727E-005  0.4771630E+03  0.7818608E-02  0.1019918E+00
         -2   -1    0    0    0  501 -0.00000000000E+00  0.00000000000E+00  0.10239288332E+03  0.10239288335E+03  0.25500000000E-02 0. -1.
          2   -1    0    0  501    0  0.00000000000E+00 -0.00000000000E+00 -0.55590905746E+03  0.55590905747E+03  0.25500000000E-02 0.  1.
    5000001    1    1    2    0    0 -0.58971641648E+02 -0.12955742770E+03 -0.17674152463E+03  0.29469365131E+03  0.18800000000E+03 0.  0.
   -5000001    1    1    2    0    0  0.58971641648E+02  0.12955742770E+03 -0.27677464951E+03  0.36360828951E+03  0.18800000000E+03 0.  0.
<mgrwt>
<rscale>  0 0.47716300E+03</rscale>
<asrwt>0</asrwt>
<pdfrwt beam="1">  1        2 0.79415578E-01 0.47716300E+03</pdfrwt>
<pdfrwt beam="2">  1       -2 0.14627555E-01 0.47716300E+03</pdfrwt>
<totfact> 0.21582033E+03</totfact>
</mgrwt>
</event>
<event>
 4    1  0.5917727E-005  0.1140955E+04  0.7818608E-02  0.9166168E-01
         -2   -1    0    0    0  501 -0.00000000000E+00  0.00000000000E+00  0.31922650488E+03  0.31922650489E+03  0.25500000000E-02 0. -1.
          2   -1    0    0  501    0  0.00000000000E+00 -0.00000000000E+00 -0.10194792943E+04  0.10194792943E+04  0.25500000000E-02 0.  1.
    5000001    1    1    2    0    0 -0.91904494105E+02 -0.53068888775E+03 -0.34441673717E+03  0.66636628101E+03  0.18800000000E+03 0.  0.
   -5000001    1    1    2    0    0  0.91904494105E+02  0.53068888775E+03 -0.35583605221E+03  0.67233951816E+03  0.18800000000E+03 0.  0.
<mgrwt>
<rscale>  0 0.11409554E+04</rscale>
<asrwt>0</asrwt>
<pdfrwt beam="1">  1        2 0.14563990E+00 0.11409554E+04</pdfrwt>
<pdfrwt beam="2">  1       -2 0.45603787E-01 0.11409554E+04</pdfrwt>
<totfact> 0.12331177E+02</totfact>
</mgrwt>
</event>
<event>
 4    1  0.5917727E-005  0.4937600E+03  0.7818608E-02  0.1015421E+00
         -2   -1    0    0    0  501 -0.00000000000E+00  0.00000000000E+00  0.52395339981E+03  0.52395339982E+03  0.25500000000E-02 0. -1.
          2   -1    0    0  501    0  0.00000000000E+00 -0.00000000000E+00 -0.11632664375E+03  0.11632664378E+03  0.25500000000E-02 0.  1.
    5000001    1    1    2    0    0  0.25514778280E+02 -0.15778474929E+03  0.21374929925E+03  0.32646560914E+03  0.18800000000E+03 0.  0.
   -5000001    1    1    2    0    0 -0.25514778280E+02  0.15778474929E+03  0.19387745681E+03  0.31381443447E+03  0.18800000000E+03 0.  0.
<mgrwt>
<rscale>  0 0.49376002E+03</rscale>
<asrwt>0</asrwt>
<pdfrwt beam="1">  1        2 0.16618092E-01 0.49376002E+03</pdfrwt>
<pdfrwt beam="2">  1       -2 0.74850486E-01 0.49376002E+03</pdfrwt>
<totfact> 0.57251300E+02</totfact>
</mgrwt>
</event>
<event>
 4    1  0.5917727E-005  0.1014958E+04  0.7818608E-02  0.9292289E-01
          2   -1    0    0  501    0  0.00000000000E+00  0.00000000000E+00  0.12799176474E+04  0.12799176475E+04  0.25500000000E-02 0.  1.
         -2   -1    0    0    0  501 -0.00000000000E+00 -0.00000000000E+00 -0.20121219430E+03  0.20121219432E+03  0.25500000000E-02 0. -1.
    5000001    1    1    2    0    0 -0.23182239318E+03  0.38690616100E+03  0.73919198178E+03  0.88610766013E+03  0.18800000000E+03 0.  0.
   -5000001    1    1    2    0    0  0.23182239318E+03 -0.38690616100E+03  0.33951347137E+03  0.59502218164E+03  0.18800000000E+03 0.  0.
<mgrwt>
<rscale>  0 0.10149582E+04</rscale>
<asrwt>0</asrwt>
<pdfrwt beam="1">  1        2 0.18284537E+00 0.10149582E+04</pdfrwt>
<pdfrwt beam="2">  1       -2 0.28744600E-01 0.10149582E+04</pdfrwt>
<totfact> 0.21280139E+02</totfact>
</mgrwt>
</event>
<event>
 4    1  0.5917727E-005  0.9679477E+03  0.7818608E-02  0.9344415E-01
         -2   -1    0    0    0  501 -0.00000000000E+00  0.00000000000E+00  0.22480650457E+03  0.22480650458E+03  0.25500000000E-02 0. -1.
          2   -1    0    0  501    0  0.00000000000E+00 -0.00000000000E+00 -0.10419212584E+04  0.10419212584E+04  0.25500000000E-02 0.  1.
    5000001    1    1    2    0    0  0.30531486261E+03 -0.30588432534E+03 -0.55253701360E+03  0.72623931126E+03  0.18800000000E+03 0.  0.
   -5000001    1    1    2    0    0 -0.30531486261E+03  0.30588432534E+03 -0.26457774024E+03  0.54048845173E+03  0.18800000000E+03 0.  0.
<mgrwt>
<rscale>  0 0.96794768E+03</rscale>
<asrwt>0</asrwt>
<pdfrwt beam="1">  1        2 0.14884589E+00 0.96794768E+03</pdfrwt>
<pdfrwt beam="2">  1       -2 0.32115216E-01 0.96794768E+03</pdfrwt>
<totfact> 0.23816085E+02</totfact>
</mgrwt>
</event>
<event>
 4    1  0.5917727E-005  0.1146146E+04  0.7818608E-02  0.9161346E-01
         -2   -1    0    0    0  501 -0.00000000000E+00  0.00000000000E+00  0.20765617017E+03  0.20765617019E+03  0.25500000000E-02 0. -1.
          2   -1    0    0  501    0  0.00000000000E+00 -0.00000000000E+00 -0.15815225349E+04  0.15815225349E+04  0.25500000000E-02 0.  1.
    5000001    1    1    2    0    0  0.13447220901E+03 -0.42199965817E+03 -0.20099509728E+03  0.52144943726E+03  0.18800000000E+03 0.  0.
   -5000001    1    1    2    0    0 -0.13447220901E+03  0.42199965817E+03 -0.11728712674E+04  0.12677292678E+04  0.18800000000E+03 0.  0.
<mgrwt>
<rscale>  0 0.11461464E+04</rscale>
<asrwt>0</asrwt>
<pdfrwt beam="1">  1        2 0.22593178E+00 0.11461464E+04</pdfrwt>
<pdfrwt beam="2">  1       -2 0.29665168E-01 0.11461464E+04</pdfrwt>
<totfact> 0.13703198E+02</totfact>
</mgrwt>
</event>
<event>
 4    1  0.5917727E-005  0.8699213E+03  0.7818608E-02  0.9463982E-01
         -2   -1    0    0    0  501 -0.00000000000E+00  0.00000000000E+00  0.76106642458E+02  0.76106642501E+02  0.25500000000E-02 0.  1.
          2   -1    0    0  501    0  0.00000000000E+00 -0.00000000000E+00 -0.24858643034E+04  0.24858643034E+04  0.25500000000E-02 0. -1.
    5000001    1    1    2    0    0 -0.19601102175E+03  0.33679396998E+03 -0.10732940391E+04  0.11572184725E+04  0.18800000000E+03 0.  0.
   -5000001    1    1    2    0    0  0.19601102175E+03 -0.33679396998E+03 -0.13364636219E+04  0.14047524734E+04  0.18800000000E+03 0.  0.
<mgrwt>
<rscale>  0 0.86992134E+03</rscale>
<asrwt>0</asrwt>
<pdfrwt beam="1">  1        2 0.35512342E+00 0.86992134E+03</pdfrwt>
<pdfrwt beam="2">  1       -2 0.10872379E-01 0.86992134E+03</pdfrwt>
<totfact> 0.27435744E+02</totfact>
</mgrwt>
</event>
<event>
 4    1  0.5917727E-005  0.6382543E+03  0.7818608E-02  0.9829072E-01
          2   -1    0    0  501    0  0.00000000000E+00  0.00000000000E+00  0.55318228227E+03  0.55318228228E+03  0.25500000000E-02 0.  1.
         -2   -1    0    0    0  501 -0.00000000000E+00 -0.00000000000E+00 -0.18410229352E+03  0.18410229353E+03  0.25500000000E-02 0. -1.
    5000001    1    1    2    0    0 -0.95101351921E+02  0.22360134961E+03  0.28428771933E+03  0.41857536722E+03  0.18800000000E+03 0.  0.
   -5000001    1    1    2    0    0  0.95101351921E+02 -0.22360134961E+03  0.84792269428E+02  0.31870920859E+03  0.18800000000E+03 0.  0.
<mgrwt>
<rscale>  0 0.63825427E+03</rscale>
<asrwt>0</asrwt>
<pdfrwt beam="1">  1        2 0.79026040E-01 0.63825427E+03</pdfrwt>
<pdfrwt beam="2">  1       -2 0.26300328E-01 0.63825427E+03</pdfrwt>
<totfact> 0.78320920E+02</totfact>
</mgrwt>
</event>
<event>
 4    1  0.5917727E-005  0.5902279E+03  0.7818608E-02  0.9925890E-01
          2   -1    0    0  501    0  0.00000000000E+00  0.00000000000E+00  0.31518137811E+03  0.31518137812E+03  0.25500000000E-02 0. -1.
         -2   -1    0    0    0  501 -0.00000000000E+00 -0.00000000000E+00 -0.27632420287E+03  0.27632420288E+03  0.25500000000E-02 0.  1.
    5000001    1    1    2    0    0 -0.14955347508E+02  0.21216403323E+03  0.10029405158E+03  0.30106500328E+03  0.18800000000E+03 0.  0.
   -5000001    1    1    2    0    0  0.14955347508E+02 -0.21216403323E+03 -0.61436876335E+02  0.29044057772E+03  0.18800000000E+03 0.  0.
<mgrwt>
<rscale>  0 0.59022790E+03</rscale>
<asrwt>0</asrwt>
<pdfrwt beam="1">  1        2 0.45025911E-01 0.59022790E+03</pdfrwt>
<pdfrwt beam="2">  1       -2 0.39474886E-01 0.59022790E+03</pdfrwt>
<totfact> 0.68888459E+02</totfact>
</mgrwt>
</event>
<event>
 4    1  0.5917727E-005  0.1459061E+04  0.7818608E-02  0.8912143E-01
          2   -1    0    0  501    0  0.00000000000E+00  0.00000000000E+00  0.10858398811E+04  0.10858398811E+04  0.25500000000E-02 0.  1.
         -2   -1    0    0    0  501 -0.00000000000E+00 -0.00000000000E+00 -0.49014092865E+03  0.49014092865E+03  0.25500000000E-02 0. -1.
    5000001    1    1    2    0    0 -0.48181135968E+03 -0.16529037832E+03  0.82413902080E+03  0.98692057486E+03  0.18800000000E+03 0.  0.
   -5000001    1    1    2    0    0  0.48181135968E+03  0.16529037832E+03 -0.22844006836E+03  0.58906023488E+03  0.18800000000E+03 0.  0.
<mgrwt>
<rscale>  0 0.14590607E+04</rscale>
<asrwt>0</asrwt>
<pdfrwt beam="1">  1        2 0.15511998E+00 0.14590607E+04</pdfrwt>
<pdfrwt beam="2">  1       -2 0.70020134E-01 0.14590607E+04</pdfrwt>
<totfact> 0.44925206E+01</totfact>
</mgrwt>
</event>
<event>
 4    1  0.5917727E-005  0.5736178E+03  0.7818608E-02  0.9961705E-01
         -2   -1    0    0    0  501 -0.00000000000E+00  0.00000000000E+00  0.25475326413E+02  0.25475326541E+02  0.25500000000E-02 0. -1.
          2   -1    0    0  501    0  0.00000000000E+00 -0.00000000000E+00 -0.32289806921E+04  0.32289806921E+04  0.25500000000E-02 0.  1.
    5000001    1    1    2    0    0 -0.90891905952E+02 -0.19010088856E+03 -0.18863173641E+04  0.19073376431E+04  0.18800000000E+03 0.  0.
   -5000001    1    1    2    0    0  0.90891905952E+02  0.19010088856E+03 -0.13171880016E+04  0.13471183756E+04  0.18800000000E+03 0.  0.
<mgrwt>
<rscale>  0 0.57361777E+03</rscale>
<asrwt>0</asrwt>
<pdfrwt beam="1">  1        2 0.46128270E+00 0.57361777E+03</pdfrwt>
<pdfrwt beam="2">  1       -2 0.36393344E-02 0.57361777E+03</pdfrwt>
<totfact> 0.63232560E+02</totfact>
</mgrwt>
</event>
<event>
 4    1  0.5917727E-005  0.6534747E+03  0.7818608E-02  0.9800281E-01
         -2   -1    0    0    0  501 -0.00000000000E+00  0.00000000000E+00  0.72645487618E+02  0.72645487663E+02  0.25500000000E-02 0. -1.
          2   -1    0    0  501    0  0.00000000000E+00 -0.00000000000E+00 -0.14695655163E+04  0.14695655163E+04  0.25500000000E-02 0.  1.
    5000001    1    1    2    0    0  0.88560242695E+02  0.13205299267E+03 -0.12053550064E+04  0.12302461546E+04  0.18800000000E+03 0.  0.
   -5000001    1    1    2    0    0 -0.88560242695E+02 -0.13205299267E+03 -0.19156502222E+03  0.31196484930E+03  0.18800000000E+03 0.  0.
<mgrwt>
<rscale>  0 0.65347472E+03</rscale>
<asrwt>0</asrwt>
<pdfrwt beam="1">  1        2 0.20993791E+00 0.65347472E+03</pdfrwt>
<pdfrwt beam="2">  1       -2 0.10377928E-01 0.65347472E+03</pdfrwt>
<totfact> 0.99293383E+02</totfact>
</mgrwt>
</event>
<event>
 4    1  0.5917727E-005  0.3994789E+03  0.7818608E-02  0.1043960E+00
         -2   -1    0    0    0  501 -0.00000000000E+00  0.00000000000E+00  0.38397268974E+02  0.38397269059E+02  0.25500000000E-02 0. -1.
          2   -1    0    0  501    0  0.00000000000E+00 -0.00000000000E+00 -0.10390284555E+04  0.10390284555E+04  0.25500000000E-02 0.  1.
    5000001    1    1    2    0    0 -0.35713092924E+02  0.51858170404E+02 -0.43496165086E+03  0.47801708397E+03  0.18800000000E+03 0.  0.
   -5000001    1    1    2    0    0  0.35713092924E+02 -0.51858170404E+02 -0.56566953569E+03  0.59940864062E+03  0.18800000000E+03 0.  0.
<mgrwt>
<rscale>  0 0.39947894E+03</rscale>
<asrwt>0</asrwt>
<pdfrwt beam="1">  1        2 0.14843262E+00 0.39947894E+03</pdfrwt>
<pdfrwt beam="2">  1       -2 0.54853248E-02 0.39947894E+03</pdfrwt>
<totfact> 0.47199750E+03</totfact>
</mgrwt>
</event>
<event>
 4    1  0.5917727E-005  0.4433032E+03  0.7818608E-02  0.1029738E+00
          2   -1    0    0  501    0  0.00000000000E+00  0.00000000000E+00  0.10706617921E+04  0.10706617921E+04  0.25500000000E-02 0.  1.
         -2   -1    0    0    0  501 -0.00000000000E+00 -0.00000000000E+00 -0.45886975914E+02  0.45886975985E+02  0.25500000000E-02 0. -1.
    5000001    1    1    2    0    0  0.96736370385E+02  0.68857954966E+01  0.34569398512E+03  0.40528221141E+03  0.18800000000E+03 0.  0.
   -5000001    1    1    2    0    0 -0.96736370385E+02 -0.68857954966E+01  0.67908083111E+03  0.71126655673E+03  0.18800000000E+03 0.  0.
<mgrwt>
<rscale>  0 0.44330320E+03</rscale>
<asrwt>0</asrwt>
<pdfrwt beam="1">  1        2 0.15295170E+00 0.44330320E+03</pdfrwt>
<pdfrwt beam="2">  1       -2 0.65552816E-02 0.44330320E+03</pdfrwt>
<totfact> 0.34330302E+03</totfact>
</mgrwt>
</event>
<event>
 4    1  0.5917727E-005  0.5431415E+03  0.7818608E-02  0.1003094E+00
         -2   -1    0    0    0  501 -0.00000000000E+00  0.00000000000E+00  0.32235590103E+03  0.32235590104E+03  0.25500000000E-02 0. -1.
          2   -1    0    0  501    0  0.00000000000E+00 -0.00000000000E+00 -0.22878652158E+03  0.22878652159E+03  0.25500000000E-02 0.  1.
    5000001    1    1    2    0    0 -0.14682668542E+03  0.77818850530E+02 -0.58634241621E+02  0.25767387011E+03  0.18800000000E+03 0.  0.
   -5000001    1    1    2    0    0  0.14682668542E+03 -0.77818850530E+02  0.15220362107E+03  0.29346855252E+03  0.18800000000E+03 0.  0.
<mgrwt>
<rscale>  0 0.54314155E+03</rscale>
<asrwt>0</asrwt>
<pdfrwt beam="1">  1        2 0.32683789E-01 0.54314155E+03</pdfrwt>
<pdfrwt beam="2">  1       -2 0.46050843E-01 0.54314155E+03</pdfrwt>
<totfact> 0.72610587E+02</totfact>
</mgrwt>
</event>
<event>
 4    1  0.5917727E-005  0.7272777E+03  0.7818608E-02  0.9671688E-01
         -2   -1    0    0    0  501 -0.00000000000E+00  0.00000000000E+00  0.10494392151E+04  0.10494392151E+04  0.25500000000E-02 0.  1.
          2   -1    0    0  501    0  0.00000000000E+00 -0.00000000000E+00 -0.12600369372E+03  0.12600369375E+03  0.25500000000E-02 0. -1.
    5000001    1    1    2    0    0  0.17462422506E+03 -0.16614334276E+03  0.78004388061E+03  0.83780050490E+03  0.18800000000E+03 0.  0.
   -5000001    1    1    2    0    0 -0.17462422506E+03  0.16614334276E+03  0.14339164080E+03  0.33764240399E+03  0.18800000000E+03 0.  0.
<mgrwt>
<rscale>  0 0.72727771E+03</rscale>
<asrwt>0</asrwt>
<pdfrwt beam="1">  1        2 0.18000528E-01 0.72727771E+03</pdfrwt>
<pdfrwt beam="2">  1       -2 0.14991988E+00 0.72727771E+03</pdfrwt>
<totfact> 0.97761603E+01</totfact>
</mgrwt>
</event>
<event>
 4    1  0.5917727E-005  0.4898686E+03  0.7818608E-02  0.1016458E+00
          2   -1    0    0  501    0  0.00000000000E+00  0.00000000000E+00  0.13897121632E+04  0.13897121633E+04  0.25500000000E-02 0.  1.
         -2   -1    0    0    0  501 -0.00000000000E+00 -0.00000000000E+00 -0.43169233265E+02  0.43169233341E+02  0.25500000000E-02 0. -1.
    5000001    1    1    2    0    0 -0.13084723546E+03  0.17836119133E+02  0.42490742300E+03  0.48304186599E+03  0.18800000000E+03 0.  0.
   -5000001    1    1    2    0    0  0.13084723546E+03 -0.17836119133E+02  0.92163550698E+03  0.94983953061E+03  0.18800000000E+03 0.  0.
<mgrwt>
<rscale>  0 0.48986859E+03</rscale>
<asrwt>0</asrwt>
<pdfrwt beam="1">  1        2 0.19853034E+00 0.48986859E+03</pdfrwt>
<pdfrwt beam="2">  1       -2 0.61670325E-02 0.48986859E+03</pdfrwt>
<totfact> 0.25183428E+03</totfact>
</mgrwt>
</event>
<event>
 4    1  0.5917727E-005  0.5666455E+03  0.7818608E-02  0.9977129E-01
          2   -1    0    0  501    0  0.00000000000E+00  0.00000000000E+00  0.15230898379E+04  0.15230898379E+04  0.25500000000E-02 0.  1.
         -2   -1    0    0    0  501 -0.00000000000E+00 -0.00000000000E+00 -0.52703251320E+02  0.52703251382E+02  0.25500000000E-02 0. -1.
    5000001    1    1    2    0    0 -0.11056126240E+03 -0.11441155817E+03  0.34572626482E+03  0.42448138660E+03  0.18800000000E+03 0.  0.
   -5000001    1    1    2    0    0  0.11056126240E+03  0.11441155817E+03  0.11246603217E+04  0.11513117026E+04  0.18800000000E+03 0.  0.
<mgrwt>
<rscale>  0 0.56664552E+03</rscale>
<asrwt>0</asrwt>
<pdfrwt beam="1">  1        2 0.21758428E+00 0.56664552E+03</pdfrwt>
<pdfrwt beam="2">  1       -2 0.75290353E-02 0.56664552E+03</pdfrwt>
<totfact> 0.15640380E+03</totfact>
</mgrwt>
</event>
<event>
 4    1  0.5917727E-005  0.7274156E+03  0.7818608E-02  0.9671463E-01
         -2   -1    0    0    0  501 -0.00000000000E+00  0.00000000000E+00  0.16521676149E+03  0.16521676151E+03  0.25500000000E-02 0. -1.
          2   -1    0    0  501    0  0.00000000000E+00 -0.00000000000E+00 -0.80066559686E+03  0.80066559686E+03  0.25500000000E-02 0.  1.
    5000001    1    1    2    0    0 -0.43965316377E+02 -0.29004246939E+03 -0.45623783659E+03  0.57406841633E+03  0.18800000000E+03 0.  0.
   -5000001    1    1    2    0    0  0.43965316377E+02  0.29004246939E+03 -0.17921099877E+03  0.39181394204E+03  0.18800000000E+03 0.  0.
<mgrwt>
<rscale>  0 0.72741564E+03</rscale>
<asrwt>0</asrwt>
<pdfrwt beam="1">  1        2 0.11438080E+00 0.72741564E+03</pdfrwt>
<pdfrwt beam="2">  1       -2 0.23602395E-01 0.72741564E+03</pdfrwt>
<totfact> 0.60578377E+02</totfact>
</mgrwt>
</event>
<event>
 4    1  0.5917727E-005  0.5136557E+03  0.7818608E-02  0.1010275E+00
         -2   -1    0    0    0  501 -0.00000000000E+00  0.00000000000E+00  0.74122001737E+02  0.74122001781E+02  0.25500000000E-02 0. -1.
          2   -1    0    0  501    0  0.00000000000E+00 -0.00000000000E+00 -0.88989155693E+03  0.88989155693E+03  0.25500000000E-02 0.  1.
    5000001    1    1    2    0    0 -0.23625096901E+02 -0.17303661616E+03 -0.38760803384E+03  0.46484815116E+03  0.18800000000E+03 0.  0.
   -5000001    1    1    2    0    0  0.23625096901E+02  0.17303661616E+03 -0.42816152135E+03  0.49916540756E+03  0.18800000000E+03 0.  0.
<mgrwt>
<rscale>  0 0.51365570E+03</rscale>
<asrwt>0</asrwt>
<pdfrwt beam="1">  1        2 0.12712736E+00 0.51365570E+03</pdfrwt>
<pdfrwt beam="2">  1       -2 0.10588858E-01 0.51365570E+03</pdfrwt>
<totfact> 0.20657448E+03</totfact>
</mgrwt>
</event>
<event>
 4    1  0.5917727E-005  0.4342615E+03  0.7818608E-02  0.1032522E+00
         -2   -1    0    0    0  501 -0.00000000000E+00  0.00000000000E+00  0.61765461936E+02  0.61765461988E+02  0.25500000000E-02 0. -1.
          2   -1    0    0  501    0  0.00000000000E+00 -0.00000000000E+00 -0.76330303080E+03  0.76330303080E+03  0.25500000000E-02 0.  1.
    5000001    1    1    2    0    0 -0.73949100885E+02 -0.79294192411E+02 -0.33792125737E+03  0.40161027708E+03  0.18800000000E+03 0.  0.
   -5000001    1    1    2    0    0  0.73949100885E+02  0.79294192411E+02 -0.36361631149E+03  0.42345821571E+03  0.18800000000E+03 0.  0.
<mgrwt>
<rscale>  0 0.43426151E+03</rscale>
<asrwt>0</asrwt>
<pdfrwt beam="1">  1        2 0.10904328E+00 0.43426151E+03</pdfrwt>
<pdfrwt beam="2">  1       -2 0.88236379E-02 0.43426151E+03</pdfrwt>
<totfact> 0.33683188E+03</totfact>
</mgrwt>
</event>
<event>
 4    1  0.5917727E-005  0.6794053E+03  0.7818608E-02  0.9753115E-01
         -2   -1    0    0    0  501 -0.00000000000E+00  0.00000000000E+00  0.36067607901E+03  0.36067607902E+03  0.25500000000E-02 0. -1.
          2   -1    0    0  501    0  0.00000000000E+00 -0.00000000000E+00 -0.31994886062E+03  0.31994886063E+03  0.25500000000E-02 0.  1.
    5000001    1    1    2    0    0 -0.17087841193E+03  0.88571000788E+02  0.22812356614E+03  0.35274440502E+03  0.18800000000E+03 0.  0.
   -5000001    1    1    2    0    0  0.17087841193E+03 -0.88571000788E+02 -0.18739634775E+03  0.32788053464E+03  0.18800000000E+03 0.  0.
<mgrwt>
<rscale>  0 0.67940533E+03</rscale>
<asrwt>0</asrwt>
<pdfrwt beam="1">  1        2 0.45706980E-01 0.67940533E+03</pdfrwt>
<pdfrwt beam="2">  1       -2 0.51525154E-01 0.67940533E+03</pdfrwt>
<totfact> 0.39827702E+02</totfact>
</mgrwt>
</event>
<event>
 4    1  0.5917727E-005  0.7033254E+03  0.7818608E-02  0.9711562E-01
          2   -1    0    0  501    0  0.00000000000E+00  0.00000000000E+00  0.80892186218E+03  0.80892186219E+03  0.25500000000E-02 0.  1.
         -2   -1    0    0    0  501 -0.00000000000E+00 -0.00000000000E+00 -0.15287838904E+03  0.15287838906E+03  0.25500000000E-02 0. -1.
    5000001    1    1    2    0    0  0.61659226733E+02  0.21139736969E+03  0.55096050858E+02  0.29473765110E+03  0.18800000000E+03 0.  0.
   -5000001    1    1    2    0    0 -0.61659226733E+02 -0.21139736969E+03  0.60094742229E+03  0.66706260014E+03  0.18800000000E+03 0.  0.
<mgrwt>
<rscale>  0 0.70332545E+03</rscale>
<asrwt>0</asrwt>
<pdfrwt beam="1">  1        2 0.11556027E+00 0.70332545E+03</pdfrwt>
<pdfrwt beam="2">  1       -2 0.21839770E-01 0.70332545E+03</pdfrwt>
<totfact> 0.68673953E+02</totfact>
</mgrwt>
</event>
<event>
 4    1  0.5917727E-005  0.4294481E+03  0.7818608E-02  0.1034034E+00
          2   -1    0    0  501    0  0.00000000000E+00  0.00000000000E+00  0.25129199910E+03  0.25129199912E+03  0.25500000000E-02 0.  1.
         -2   -1    0    0    0  501 -0.00000000000E+00 -0.00000000000E+00 -0.18347746496E+03  0.18347746498E+03  0.25500000000E-02 0. -1.
    5000001    1    1    2    0    0  0.28595034130E+02 -0.96234450996E+02  0.60378410032E+02  0.22151365180E+03  0.18800000000E+03 0.  0.
   -5000001    1    1    2    0    0 -0.28595034130E+02  0.96234450996E+02  0.74361241144E+01  0.21325581229E+03  0.18800000000E+03 0.  0.
<mgrwt>
<rscale>  0 0.42944811E+03</rscale>
<asrwt>0</asrwt>
<pdfrwt beam="1">  1        2 0.35898857E-01 0.42944811E+03</pdfrwt>
<pdfrwt beam="2">  1       -2 0.26211066E-01 0.42944811E+03</pdfrwt>
<totfact> 0.18944764E+03</totfact>
</mgrwt>
</event>
<event>
 4    1  0.5917727E-005  0.5183530E+03  0.7818608E-02  0.1009097E+00
         -2   -1    0    0    0  501 -0.00000000000E+00  0.00000000000E+00  0.64650122732E+02  0.64650122783E+02  0.25500000000E-02 0. -1.
          2   -1    0    0  501    0  0.00000000000E+00 -0.00000000000E+00 -0.10390152274E+04  0.10390152274E+04  0.25500000000E-02 0.  1.
    5000001    1    1    2    0    0 -0.15563655882E+01  0.17839815113E+03 -0.48797750813E+03  0.55253449761E+03  0.18800000000E+03 0.  0.
   -5000001    1    1    2    0    0  0.15563655882E+01 -0.17839815113E+03 -0.48638759651E+03  0.55113085256E+03  0.18800000000E+03 0.  0.
<mgrwt>
<rscale>  0 0.51835301E+03</rscale>
<asrwt>0</asrwt>
<pdfrwt beam="1">  1        2 0.14843074E+00 0.51835301E+03</pdfrwt>
<pdfrwt beam="2">  1       -2 0.92357324E-02 0.51835301E+03</pdfrwt>
<totfact> 0.20828775E+03</totfact>
</mgrwt>
</event>
<event>
 4    1  0.5917727E-005  0.4772312E+03  0.7818608E-02  0.1019899E+00
         -2   -1    0    0    0  501 -0.00000000000E+00  0.00000000000E+00  0.92193754279E+02  0.92193754315E+02  0.25500000000E-02 0. -1.
          2   -1    0    0  501    0  0.00000000000E+00 -0.00000000000E+00 -0.61758428553E+03  0.61758428554E+03  0.25500000000E-02 0.  1.
    5000001    1    1    2    0    0 -0.11764368789E+03 -0.77704206296E+02 -0.20109528689E+03  0.30929160252E+03  0.18800000000E+03 0.  0.
   -5000001    1    1    2    0    0  0.11764368789E+03  0.77704206296E+02 -0.32429524436E+03  0.40048643734E+03  0.18800000000E+03 0.  0.
<mgrwt>
<rscale>  0 0.47723124E+03</rscale>
<asrwt>0</asrwt>
<pdfrwt beam="1">  1        2 0.88226324E-01 0.47723124E+03</pdfrwt>
<pdfrwt beam="2">  1       -2 0.13170537E-01 0.47723124E+03</pdfrwt>
<totfact> 0.22736656E+03</totfact>
</mgrwt>
</event>
<event>
 4    1  0.5917727E-005  0.4329655E+03  0.7818608E-02  0.1032927E+00
          2   -1    0    0  501    0  0.00000000000E+00  0.00000000000E+00  0.10760222174E+04  0.10760222174E+04  0.25500000000E-02 0.  1.
         -2   -1    0    0    0  501 -0.00000000000E+00 -0.00000000000E+00 -0.43553738770E+02  0.43553738844E+02  0.25500000000E-02 0. -1.
    5000001    1    1    2    0    0 -0.18189712868E+02 -0.88507439984E+02  0.36642645958E+03  0.42163584153E+03  0.18800000000E+03 0.  0.
   -5000001    1    1    2    0    0  0.18189712868E+02  0.88507439984E+02  0.66604201910E+03  0.69794011476E+03  0.18800000000E+03 0.  0.
<mgrwt>
<rscale>  0 0.43296554E+03</rscale>
<asrwt>0</asrwt>
<pdfrwt beam="1">  1        2 0.15371745E+00 0.43296554E+03</pdfrwt>
<pdfrwt beam="2">  1       -2 0.62219632E-02 0.43296554E+03</pdfrwt>
<totfact> 0.36970292E+03</totfact>
</mgrwt>
</event>
<event>
 4    1  0.5917727E-005  0.4244264E+03  0.7818608E-02  0.1035635E+00
         -2   -1    0    0    0  501 -0.00000000000E+00  0.00000000000E+00  0.44493865787E+02  0.44493865860E+02  0.25500000000E-02 0. -1.
          2   -1    0    0  501    0  0.00000000000E+00 -0.00000000000E+00 -0.10121495093E+04  0.10121495093E+04  0.25500000000E-02 0.  1.
    5000001    1    1    2    0    0 -0.55292358338E+02 -0.32553100013E+02 -0.66968949886E+03  0.69853058208E+03  0.18800000000E+03 0.  0.
   -5000001    1    1    2    0    0  0.55292358338E+02  0.32553100013E+02 -0.29796614463E+03  0.35811279306E+03  0.18800000000E+03 0.  0.
<mgrwt>
<rscale>  0 0.42442641E+03</rscale>
<asrwt>0</asrwt>
<pdfrwt beam="1">  1        2 0.14459277E+00 0.42442641E+03</pdfrwt>
<pdfrwt beam="2">  1       -2 0.63562672E-02 0.42442641E+03</pdfrwt>
<totfact> 0.38989303E+03</totfact>
</mgrwt>
</event>
<event>
 4    1  0.5917727E-005  0.1217613E+04  0.7818608E-02  0.9097578E-01
         -2   -1    0    0    0  501 -0.00000000000E+00  0.00000000000E+00  0.27847201773E+03  0.27847201774E+03  0.25500000000E-02 0.  1.
          2   -1    0    0  501    0  0.00000000000E+00 -0.00000000000E+00 -0.13309972279E+04  0.13309972279E+04  0.25500000000E-02 0. -1.
    5000001    1    1    2    0    0  0.28722599283E+03  0.38627742081E+03 -0.10082348863E+03  0.52651532992E+03  0.18800000000E+03 0.  0.
   -5000001    1    1    2    0    0 -0.28722599283E+03 -0.38627742081E+03 -0.95170172151E+03  0.10829539157E+04  0.18800000000E+03 0.  0.
<mgrwt>
<rscale>  0 0.12176132E+04</rscale>
<asrwt>0</asrwt>
<pdfrwt beam="1">  1        2 0.19014246E+00 0.12176132E+04</pdfrwt>
<pdfrwt beam="2">  1       -2 0.39781718E-01 0.12176132E+04</pdfrwt>
<totfact> 0.10626438E+02</totfact>
</mgrwt>
</event>
<event>
 4    1  0.5917727E-005  0.7002277E+03  0.7818608E-02  0.9716843E-01
         -2   -1    0    0    0  501 -0.00000000000E+00  0.00000000000E+00  0.25480061336E+03  0.25480061338E+03  0.25500000000E-02 0. -1.
          2   -1    0    0  501    0  0.00000000000E+00 -0.00000000000E+00 -0.48108085991E+03  0.48108085991E+03  0.25500000000E-02 0.  1.
    5000001    1    1    2    0    0  0.15764763296E+02  0.26967865191E+03  0.12358055879E+02  0.32935061045E+03  0.18800000000E+03 0.  0.
   -5000001    1    1    2    0    0 -0.15764763296E+02 -0.26967865191E+03 -0.23863830242E+03  0.40653086284E+03  0.18800000000E+03 0.  0.
<mgrwt>
<rscale>  0 0.70022767E+03</rscale>
<asrwt>0</asrwt>
<pdfrwt beam="1">  1        2 0.68725837E-01 0.70022767E+03</pdfrwt>
<pdfrwt beam="2">  1       -2 0.36400088E-01 0.70022767E+03</pdfrwt>
<totfact> 0.50147789E+02</totfact>
</mgrwt>
</event>
<event>
 4    1  0.5917727E-005  0.4629860E+03  0.7818608E-02  0.1023919E+00
          2   -1    0    0  501    0  0.00000000000E+00  0.00000000000E+00  0.84372118586E+03  0.84372118587E+03  0.25500000000E-02 0. -1.
         -2   -1    0    0    0  501 -0.00000000000E+00 -0.00000000000E+00 -0.63515073257E+02  0.63515073309E+02  0.25500000000E-02 0.  1.
    5000001    1    1    2    0    0  0.12247451027E+03  0.51994533931E+02  0.34450124206E+03  0.41440142737E+03  0.18800000000E+03 0.  0.
   -5000001    1    1    2    0    0 -0.12247451027E+03 -0.51994533931E+02  0.43570487055E+03  0.49283483181E+03  0.18800000000E+03 0.  0.
<mgrwt>
<rscale>  0 0.46298602E+03</rscale>
<asrwt>0</asrwt>
<pdfrwt beam="1">  1        2 0.12053159E+00 0.46298602E+03</pdfrwt>
<pdfrwt beam="2">  1       -2 0.90735827E-02 0.46298602E+03</pdfrwt>
<totfact> 0.28394543E+03</totfact>
</mgrwt>
</event>
<event>
 4    1  0.5917727E-005  0.6031131E+03  0.7818608E-02  0.9898968E-01
         -2   -1    0    0    0  501 -0.00000000000E+00  0.00000000000E+00  0.13360911314E+04  0.13360911314E+04  0.25500000000E-02 0. -1.
          2   -1    0    0  501    0  0.00000000000E+00 -0.00000000000E+00 -0.68061492073E+02  0.68061492120E+02  0.25500000000E-02 0.  1.
    5000001    1    1    2    0    0  0.52724718696E+02  0.22368590763E+03  0.51132477305E+03  0.59128022525E+03  0.18800000000E+03 0.  0.
   -5000001    1    1    2    0    0 -0.52724718696E+02 -0.22368590763E+03  0.75670486629E+03  0.81287239829E+03  0.18800000000E+03 0.  0.
<mgrwt>
<rscale>  0 0.60311311E+03</rscale>
<asrwt>0</asrwt>
<pdfrwt beam="1">  1        2 0.97230704E-02 0.60311311E+03</pdfrwt>
<pdfrwt beam="2">  1       -2 0.19087016E+00 0.60311311E+03</pdfrwt>
<totfact> 0.10781307E+02</totfact>
</mgrwt>
</event>
<event>
 4    1  0.5917727E-005  0.7500513E+03  0.7818608E-02  0.9635270E-01
          2   -1    0    0  501    0  0.00000000000E+00  0.00000000000E+00  0.80233763878E+03  0.80233763879E+03  0.25500000000E-02 0.  1.
         -2   -1    0    0    0  501 -0.00000000000E+00 -0.00000000000E+00 -0.17529306344E+03  0.17529306346E+03  0.25500000000E-02 0. -1.
    5000001    1    1    2    0    0  0.21162900441E+03 -0.19223270259E+03  0.11345720306E+03  0.36049519328E+03  0.18800000000E+03 0.  0.
   -5000001    1    1    2    0    0 -0.21162900441E+03  0.19223270259E+03  0.51358737228E+03  0.61713550896E+03  0.18800000000E+03 0.  0.
<mgrwt>
<rscale>  0 0.75005126E+03</rscale>
<asrwt>0</asrwt>
<pdfrwt beam="1">  1        2 0.11461966E+00 0.75005126E+03</pdfrwt>
<pdfrwt beam="2">  1       -2 0.25041866E-01 0.75005126E+03</pdfrwt>
<totfact> 0.54285302E+02</totfact>
</mgrwt>
</event>
<event>
 4    1  0.5917727E-005  0.4720279E+03  0.7818608E-02  0.1021349E+00
         -2   -1    0    0    0  501 -0.00000000000E+00  0.00000000000E+00  0.94984487537E+02  0.94984487571E+02  0.25500000000E-02 0. -1.
          2   -1    0    0  501    0  0.00000000000E+00 -0.00000000000E+00 -0.58643865807E+03  0.58643865807E+03  0.25500000000E-02 0.  1.
    5000001    1    1    2    0    0 -0.27293255572E+01  0.13295281332E+03 -0.32038653906E+03  0.39455726352E+03  0.18800000000E+03 0.  0.
   -5000001    1    1    2    0    0  0.27293255572E+01 -0.13295281332E+03 -0.17106763147E+03  0.28686588212E+03  0.18800000000E+03 0.  0.
<mgrwt>
<rscale>  0 0.47202786E+03</rscale>
<asrwt>0</asrwt>
<pdfrwt beam="1">  1        2 0.83776949E-01 0.47202786E+03</pdfrwt>
<pdfrwt beam="2">  1       -2 0.13569213E-01 0.47202786E+03</pdfrwt>
<totfact> 0.22987933E+03</totfact>
</mgrwt>
</event>
<event>
 4    1  0.5917727E-005  0.6441178E+03  0.7818608E-02  0.9817880E-01
         -2   -1    0    0    0  501 -0.00000000000E+00  0.00000000000E+00  0.64175509045E+02  0.64175509096E+02  0.25500000000E-02 0. -1.
          2   -1    0    0  501    0  0.00000000000E+00 -0.00000000000E+00 -0.16162230030E+04  0.16162230030E+04  0.25500000000E-02 0.  1.
    5000001    1    1    2    0    0 -0.21725158663E+02  0.25003532217E+03 -0.96752535984E+03  0.10170737273E+04  0.18800000000E+03 0.  0.
   -5000001    1    1    2    0    0  0.21725158663E+02 -0.25003532217E+03 -0.58452213415E+03  0.66332478482E+03  0.18800000000E+03 0.  0.
<mgrwt>
<rscale>  0 0.64411780E+03</rscale>
<asrwt>0</asrwt>
<pdfrwt beam="1">  1        2 0.23088898E+00 0.64411780E+03</pdfrwt>
<pdfrwt beam="2">  1       -2 0.91679309E-02 0.64411780E+03</pdfrwt>
<totfact> 0.10189400E+03</totfact>
</mgrwt>
</event>
<event>
 4    1  0.5917727E-005  0.6293862E+03  0.7818608E-02  0.9846247E-01
         -2   -1    0    0    0  501 -0.00000000000E+00  0.00000000000E+00  0.74200025181E+02  0.74200025225E+02  0.25500000000E-02 0. -1.
          2   -1    0    0  501    0  0.00000000000E+00 -0.00000000000E+00 -0.13346591078E+04  0.13346591078E+04  0.25500000000E-02 0.  1.
    5000001    1    1    2    0    0 -0.15834029362E+03  0.13945897125E+03 -0.32032304068E+03  0.42716659939E+03  0.18800000000E+03 0.  0.
   -5000001    1    1    2    0    0  0.15834029362E+03 -0.13945897125E+03 -0.94013604197E+03  0.98169253366E+03  0.18800000000E+03 0.  0.
<mgrwt>
<rscale>  0 0.62938618E+03</rscale>
<asrwt>0</asrwt>
<pdfrwt beam="1">  1        2 0.19066557E+00 0.62938618E+03</pdfrwt>
<pdfrwt beam="2">  1       -2 0.10600004E-01 0.62938618E+03</pdfrwt>
<totfact> 0.11327720E+03</totfact>
</mgrwt>
</event>
<event>
 4    1  0.5917727E-005  0.4738974E+03  0.7818608E-02  0.1020826E+00
          2   -1    0    0  501    0  0.00000000000E+00  0.00000000000E+00  0.36627331405E+03  0.36627331406E+03  0.25500000000E-02 0.  1.
         -2   -1    0    0    0  501 -0.00000000000E+00 -0.00000000000E+00 -0.15328634606E+03  0.15328634608E+03  0.25500000000E-02 0. -1.
    5000001    1    1    2    0    0 -0.80185877695E+02  0.54229055131E+02  0.22370672843E+03  0.30782992991E+03  0.18800000000E+03 0.  0.
   -5000001    1    1    2    0    0  0.80185877695E+02 -0.54229055131E+02 -0.10719760443E+02  0.21172973024E+03  0.18800000000E+03 0.  0.
<mgrwt>
<rscale>  0 0.47389745E+03</rscale>
<asrwt>0</asrwt>
<pdfrwt beam="1">  1        2 0.52324760E-01 0.47389745E+03</pdfrwt>
<pdfrwt beam="2">  1       -2 0.21898049E-01 0.47389745E+03</pdfrwt>
<totfact> 0.17259307E+03</totfact>
</mgrwt>
</event>
<event>
 4    1  0.5917727E-005  0.4680650E+03  0.7818608E-02  0.1022468E+00
          2   -1    0    0  501    0  0.00000000000E+00  0.00000000000E+00  0.23522610371E+04  0.23522610371E+04  0.25500000000E-02 0.  1.
         -2   -1    0    0    0  501 -0.00000000000E+00 -0.00000000000E+00 -0.23284499412E+02  0.23284499551E+02  0.25500000000E-02 0. -1.
    5000001    1    1    2    0    0  0.59061827631E+02 -0.11614827527E+03  0.91335331172E+03  0.94156093450E+03  0.18800000000E+03 0.  0.
   -5000001    1    1    2    0    0 -0.59061827631E+02  0.11614827527E+03  0.14156232259E+04  0.14339846021E+04  0.18800000000E+03 0.  0.
<mgrwt>
<rscale>  0 0.46806504E+03</rscale>
<asrwt>0</asrwt>
<pdfrwt beam="1">  1        2 0.33603704E+00 0.46806504E+03</pdfrwt>
<pdfrwt beam="2">  1       -2 0.33263596E-02 0.46806504E+03</pdfrwt>
<totfact> 0.21270043E+03</totfact>
</mgrwt>
</event>
<event>
 4    1  0.5917727E-005  0.7448266E+03  0.7818608E-02  0.9643502E-01
         -2   -1    0    0    0  501 -0.00000000000E+00  0.00000000000E+00  0.28713451667E+03  0.28713451668E+03  0.25500000000E-02 0. -1.
          2   -1    0    0  501    0  0.00000000000E+00 -0.00000000000E+00 -0.48301980380E+03  0.48301980380E+03  0.25500000000E-02 0.  1.
    5000001    1    1    2    0    0  0.29345638440E+03  0.12897971255E+03 -0.12316986479E+03  0.39149359048E+03  0.18800000000E+03 0.  0.
   -5000001    1    1    2    0    0 -0.29345638440E+03 -0.12897971255E+03 -0.72715422343E+02  0.37866073000E+03  0.18800000000E+03 0.  0.
<mgrwt>
<rscale>  0 0.74482658E+03</rscale>
<asrwt>0</asrwt>
<pdfrwt beam="1">  1        2 0.69002829E-01 0.74482658E+03</pdfrwt>
<pdfrwt beam="2">  1       -2 0.41019217E-01 0.74482658E+03</pdfrwt>
<totfact> 0.39566844E+02</totfact>
</mgrwt>
</event>
<event>
 4    1  0.5917727E-005  0.5316133E+03  0.7818608E-02  0.1005842E+00
          2   -1    0    0  501    0  0.00000000000E+00  0.00000000000E+00  0.34637881189E+04  0.34637881189E+04  0.25500000000E-02 0.  1.
         -2   -1    0    0    0  501 -0.00000000000E+00 -0.00000000000E+00 -0.20397659749E+02  0.20397659908E+02  0.25500000000E-02 0. -1.
    5000001    1    1    2    0    0  0.12545844239E+03 -0.13497254512E+03  0.19626612277E+04  0.19802374866E+04  0.18800000000E+03 0.  0.
   -5000001    1    1    2    0    0 -0.12545844239E+03  0.13497254512E+03  0.14807292315E+04  0.15039482922E+04  0.18800000000E+03 0.  0.
<mgrwt>
<rscale>  0 0.53161329E+03</rscale>
<asrwt>0</asrwt>
<pdfrwt beam="1">  1        2 0.49482701E+00 0.53161329E+03</pdfrwt>
<pdfrwt beam="2">  1       -2 0.29139506E-02 0.53161329E+03</pdfrwt>
<totfact> 0.65290923E+02</totfact>
</mgrwt>
</event>
<event>
 4    1  0.5917727E-005  0.9735459E+03  0.7818608E-02  0.9338045E-01
         -2   -1    0    0    0  501 -0.00000000000E+00  0.00000000000E+00  0.85743405773E+02  0.85743405811E+02  0.25500000000E-02 0. -1.
          2   -1    0    0  501    0  0.00000000000E+00 -0.00000000000E+00 -0.27634533468E+04  0.27634533468E+04  0.25500000000E-02 0.  1.
    5000001    1    1    2    0    0  0.43579025945E+03  0.94111835704E+02 -0.11830633810E+04  0.12781835359E+04  0.18800000000E+03 0.  0.
   -5000001    1    1    2    0    0 -0.43579025945E+03 -0.94111835704E+02 -0.14946465600E+04  0.15710132168E+04  0.18800000000E+03 0.  0.
<mgrwt>
<rscale>  0 0.97354589E+03</rscale>
<asrwt>0</asrwt>
<pdfrwt beam="1">  1        2 0.39477899E+00 0.97354589E+03</pdfrwt>
<pdfrwt beam="2">  1       -2 0.12249060E-01 0.97354589E+03</pdfrwt>
<totfact> 0.15958485E+02</totfact>
</mgrwt>
</event>
<event>
 4    1  0.5917727E-005  0.9918519E+03  0.7818608E-02  0.9317527E-01
          2   -1    0    0  501    0  0.00000000000E+00  0.00000000000E+00  0.61453138341E+03  0.61453138342E+03  0.25500000000E-02 0.  1.
         -2   -1    0    0    0  501 -0.00000000000E+00 -0.00000000000E+00 -0.40021157283E+03  0.40021157284E+03  0.25500000000E-02 0. -1.
    5000001    1    1    2    0    0 -0.15246199590E+03 -0.92697175570E+02 -0.32539949927E+03  0.41601233236E+03  0.18800000000E+03 0.  0.
   -5000001    1    1    2    0    0  0.15246199590E+03  0.92697175570E+02  0.53971930986E+03  0.59873062389E+03  0.18800000000E+03 0.  0.
<mgrwt>
<rscale>  0 0.99185195E+03</rscale>
<asrwt>0</asrwt>
<pdfrwt beam="1">  1        2 0.87790198E-01 0.99185195E+03</pdfrwt>
<pdfrwt beam="2">  1       -2 0.57173082E-01 0.99185195E+03</pdfrwt>
<totfact> 0.15107084E+02</totfact>
</mgrwt>
</event>
<event>
 4    1  0.5917727E-005  0.5710427E+03  0.7818608E-02  0.9967374E-01
          2   -1    0    0  501    0  0.00000000000E+00  0.00000000000E+00  0.10099322717E+04  0.10099322717E+04  0.25500000000E-02 0. -1.
         -2   -1    0    0    0  501 -0.00000000000E+00 -0.00000000000E+00 -0.80720701032E+02  0.80720701072E+02  0.25500000000E-02 0.  1.
    5000001    1    1    2    0    0 -0.20614188961E+02  0.14120430992E+03  0.15773699936E+03  0.28388124787E+03  0.18800000000E+03 0.  0.
   -5000001    1    1    2    0    0  0.20614188961E+02 -0.14120430992E+03  0.77147457131E+03  0.80677172490E+03  0.18800000000E+03 0.  0.
<mgrwt>
<rscale>  0 0.57104270E+03</rscale>
<asrwt>0</asrwt>
<pdfrwt beam="1">  1        2 0.14427604E+00 0.57104270E+03</pdfrwt>
<pdfrwt beam="2">  1       -2 0.11531529E-01 0.57104270E+03</pdfrwt>
<totfact> 0.15117320E+03</totfact>
</mgrwt>
</event>
<event>
 4    1  0.5917727E-005  0.6465947E+03  0.7818608E-02  0.9813190E-01
         -2   -1    0    0    0  501 -0.00000000000E+00  0.00000000000E+00  0.26182656863E+03  0.26182656864E+03  0.25500000000E-02 0. -1.
          2   -1    0    0  501    0  0.00000000000E+00 -0.00000000000E+00 -0.39919998115E+03  0.39919998116E+03  0.25500000000E-02 0.  1.
    5000001    1    1    2    0    0  0.18447127673E+03 -0.86089648379E+02 -0.23894542028E+03  0.36589615107E+03  0.18800000000E+03 0.  0.
   -5000001    1    1    2    0    0 -0.18447127673E+03  0.86089648379E+02  0.10157200776E+03  0.29513039873E+03  0.18800000000E+03 0.  0.
<mgrwt>
<rscale>  0 0.64659465E+03</rscale>
<asrwt>0</asrwt>
<pdfrwt beam="1">  1        2 0.57028568E-01 0.64659465E+03</pdfrwt>
<pdfrwt beam="2">  1       -2 0.37403796E-01 0.64659465E+03</pdfrwt>
<totfact> 0.58775476E+02</totfact>
</mgrwt>
</event>
<event>
 4    1  0.5917727E-005  0.4076323E+03  0.7818608E-02  0.1041168E+00
         -2   -1    0    0    0  501 -0.00000000000E+00  0.00000000000E+00  0.30397167629E+02  0.30397167736E+02  0.25500000000E-02 0. -1.
          2   -1    0    0  501    0  0.00000000000E+00 -0.00000000000E+00 -0.13666086306E+04  0.13666086306E+04  0.25500000000E-02 0.  1.
    5000001    1    1    2    0    0 -0.37683924286E+02 -0.66618451777E+02 -0.60501173124E+03  0.63815459820E+03  0.18800000000E+03 0.  0.
   -5000001    1    1    2    0    0  0.37683924286E+02  0.66618451777E+02 -0.73119973174E+03  0.75885120015E+03  0.18800000000E+03 0.  0.
<mgrwt>
<rscale>  0 0.40763234E+03</rscale>
<asrwt>0</asrwt>
<pdfrwt beam="1">  1        2 0.19522977E+00 0.40763234E+03</pdfrwt>
<pdfrwt beam="2">  1       -2 0.43424534E-02 0.40763234E+03</pdfrwt>
<totfact> 0.44509417E+03</totfact>
</mgrwt>
</event>
<event>
 4    1  0.5917727E-005  0.8294182E+03  0.7818608E-02  0.9518385E-01
          2   -1    0    0  501    0  0.00000000000E+00  0.00000000000E+00  0.10949174477E+04  0.10949174477E+04  0.25500000000E-02 0. -1.
         -2   -1    0    0    0  501 -0.00000000000E+00 -0.00000000000E+00 -0.15707452166E+03  0.15707452168E+03  0.25500000000E-02 0.  1.
    5000001    1    1    2    0    0 -0.32514376637E+03 -0.11043127767E+03  0.26235888849E+03  0.47126396241E+03  0.18800000000E+03 0.  0.
   -5000001    1    1    2    0    0  0.32514376637E+03  0.11043127767E+03  0.67548403756E+03  0.78072800698E+03  0.18800000000E+03 0.  0.
<mgrwt>
<rscale>  0 0.82941819E+03</rscale>
<asrwt>0</asrwt>
<pdfrwt beam="1">  1        2 0.15641677E+00 0.82941819E+03</pdfrwt>
<pdfrwt beam="2">  1       -2 0.22439218E-01 0.82941819E+03</pdfrwt>
<totfact> 0.42914270E+02</totfact>
</mgrwt>
</event>
<event>
 4    1  0.5917727E-005  0.8285459E+03  0.7818608E-02  0.9519593E-01
          2   -1    0    0  501    0  0.00000000000E+00  0.00000000000E+00  0.12035415285E+04  0.12035415285E+04  0.25500000000E-02 0.  1.
         -2   -1    0    0    0  501 -0.00000000000E+00 -0.00000000000E+00 -0.14259755801E+03  0.14259755803E+03  0.25500000000E-02 0. -1.
    5000001    1    1    2    0    0  0.12727685331E+03 -0.11563737058E+03 -0.25255175669E+00  0.25478513034E+03  0.18800000000E+03 0.  0.
   -5000001    1    1    2    0    0 -0.12727685331E+03  0.11563737058E+03  0.10611965222E+04  0.10913539562E+04  0.18800000000E+03 0.  0.
<mgrwt>
<rscale>  0 0.82854591E+03</rscale>
<asrwt>0</asrwt>
<pdfrwt beam="1">  1        2 0.17193450E+00 0.82854591E+03</pdfrwt>
<pdfrwt beam="2">  1       -2 0.20371080E-01 0.82854591E+03</pdfrwt>
<totfact> 0.44069496E+02</totfact>
</mgrwt>
</event>
<event>
 4    1  0.5917727E-005  0.7195687E+03  0.7818608E-02  0.9684340E-01
          2   -1    0    0  501    0  0.00000000000E+00  0.00000000000E+00  0.17609823180E+04  0.17609823180E+04  0.25500000000E-02 0.  1.
         -2   -1    0    0    0  501 -0.00000000000E+00 -0.00000000000E+00 -0.73507140052E+02  0.73507140096E+02  0.25500000000E-02 0. -1.
    5000001    1    1    2    0    0 -0.28034516347E+03 -0.12318665550E+03  0.89021915549E+03  0.96000130603E+03  0.18800000000E+03 0.  0.
   -5000001    1    1    2    0    0  0.28034516347E+03  0.12318665550E+03  0.79725602249E+03  0.87448815210E+03  0.18800000000E+03 0.  0.
<mgrwt>
<rscale>  0 0.71956869E+03</rscale>
<asrwt>0</asrwt>
<pdfrwt beam="1">  1        2 0.25156894E+00 0.71956869E+03</pdfrwt>
<pdfrwt beam="2">  1       -2 0.10501018E-01 0.71956869E+03</pdfrwt>
<totfact> 0.68673665E+02</totfact>
</mgrwt>
</event>
<event>
 4    1  0.5917727E-005  0.5937958E+03  0.7818608E-02  0.9918362E-01
          2   -1    0    0  501    0  0.00000000000E+00  0.00000000000E+00  0.20828120685E+03  0.20828120687E+03  0.25500000000E-02 0.  1.
         -2   -1    0    0    0  501 -0.00000000000E+00 -0.00000000000E+00 -0.42321807640E+03  0.42321807641E+03  0.25500000000E-02 0. -1.
    5000001    1    1    2    0    0 -0.20233979720E+03  0.82859199579E+02 -0.32288007875E+02  0.29016125850E+03  0.18800000000E+03 0.  0.
   -5000001    1    1    2    0    0  0.20233979720E+03 -0.82859199579E+02 -0.18264886167E+03  0.34133802477E+03  0.18800000000E+03 0.  0.
<mgrwt>
<rscale>  0 0.59379583E+03</rscale>
<asrwt>0</asrwt>
<pdfrwt beam="1">  1        2 0.29754458E-01 0.59379583E+03</pdfrwt>
<pdfrwt beam="2">  1       -2 0.60459725E-01 0.59379583E+03</pdfrwt>
<totfact> 0.46174057E+02</totfact>
</mgrwt>
</event>
<event>
 4    1  0.5917727E-005  0.6509645E+03  0.7818608E-02  0.9804971E-01
         -2   -1    0    0    0  501 -0.00000000000E+00  0.00000000000E+00  0.80197777401E+03  0.80197777402E+03  0.25500000000E-02 0. -1.
          2   -1    0    0  501    0  0.00000000000E+00 -0.00000000000E+00 -0.13209679577E+03  0.13209679579E+03  0.25500000000E-02 0.  1.
    5000001    1    1    2    0    0  0.26548676533E+03  0.61003500408E+01  0.32257548908E+03  0.45816960069E+03  0.18800000000E+03 0.  0.
   -5000001    1    1    2    0    0 -0.26548676533E+03 -0.61003500408E+01  0.34730548916E+03  0.47590496913E+03  0.18800000000E+03 0.  0.
<mgrwt>
<rscale>  0 0.65096450E+03</rscale>
<asrwt>0</asrwt>
<pdfrwt beam="1">  1        2 0.18870971E-01 0.65096450E+03</pdfrwt>
<pdfrwt beam="2">  1       -2 0.11456825E+00 0.65096450E+03</pdfrwt>
<totfact> 0.18326178E+02</totfact>
</mgrwt>
</event>
<event>
 4    1  0.5917727E-005  0.1485633E+04  0.7818608E-02  0.8894063E-01
         -2   -1    0    0    0  501 -0.00000000000E+00  0.00000000000E+00  0.23081211725E+03  0.23081211727E+03  0.25500000000E-02 0.  1.
          2   -1    0    0  501    0  0.00000000000E+00 -0.00000000000E+00 -0.23905862702E+04  0.23905862702E+04  0.25500000000E-02 0. -1.
    5000001    1    1    2    0    0  0.31353300853E+03  0.62748325897E+03 -0.80429683367E+03  0.10836399699E+04  0.18800000000E+03 0.  0.
   -5000001    1    1    2    0    0 -0.31353300853E+03 -0.62748325897E+03 -0.13554773193E+04  0.15377584176E+04  0.18800000000E+03 0.  0.
<mgrwt>
<rscale>  0 0.14856329E+04</rscale>
<asrwt>0</asrwt>
<pdfrwt beam="1">  1        2 0.34151231E+00 0.14856329E+04</pdfrwt>
<pdfrwt beam="2">  1       -2 0.32973161E-01 0.14856329E+04</pdfrwt>
<totfact> 0.41886793E+01</totfact>
</mgrwt>
</event>
<event>
 4    1  0.5917727E-005  0.9081258E+03  0.7818608E-02  0.9415480E-01
         -2   -1    0    0    0  501 -0.00000000000E+00  0.00000000000E+00  0.16295983994E+03  0.16295983996E+03  0.25500000000E-02 0. -1.
          2   -1    0    0  501    0  0.00000000000E+00 -0.00000000000E+00 -0.12651773469E+04  0.12651773469E+04  0.25500000000E-02 0.  1.
    5000001    1    1    2    0    0  0.39202938650E+03  0.11841361416E+03 -0.63895441248E+03  0.78186671826E+03  0.18800000000E+03 0.  0.
   -5000001    1    1    2    0    0 -0.39202938650E+03 -0.11841361416E+03 -0.46326309451E+03  0.64627046864E+03  0.18800000000E+03 0.  0.
<mgrwt>
<rscale>  0 0.90812576E+03</rscale>
<asrwt>0</asrwt>
<pdfrwt beam="1">  1        2 0.18073962E+00 0.90812576E+03</pdfrwt>
<pdfrwt beam="2">  1       -2 0.23279978E-01 0.90812576E+03</pdfrwt>
<totfact> 0.31999172E+02</totfact>
</mgrwt>
</event>
<event>
 4    1  0.5917727E-005  0.4959489E+03  0.7818608E-02  0.1014842E+00
          2   -1    0    0  501    0  0.00000000000E+00  0.00000000000E+00  0.15799978711E+03  0.15799978713E+03  0.25500000000E-02 0.  1.
         -2   -1    0    0    0  501 -0.00000000000E+00 -0.00000000000E+00 -0.38918620001E+03  0.38918620002E+03  0.25500000000E-02 0. -1.
    5000001    1    1    2    0    0  0.31331492946E+02 -0.13103472987E+03 -0.21424905227E+03  0.31527514853E+03  0.18800000000E+03 0.  0.
   -5000001    1    1    2    0    0 -0.31331492946E+02  0.13103472987E+03 -0.16937360637E+02  0.23191083862E+03  0.18800000000E+03 0.  0.
<mgrwt>
<rscale>  0 0.49594894E+03</rscale>
<asrwt>0</asrwt>
<pdfrwt beam="1">  1        2 0.22571398E-01 0.49594894E+03</pdfrwt>
<pdfrwt beam="2">  1       -2 0.55598028E-01 0.49594894E+03</pdfrwt>
<totfact> 0.75349740E+02</totfact>
</mgrwt>
</event>
<event>
 4    1  0.5917727E-005  0.4132124E+03  0.7818608E-02  0.1039298E+00
          2   -1    0    0  501    0  0.00000000000E+00  0.00000000000E+00  0.34430094897E+04  0.34430094897E+04  0.25500000000E-02 0.  1.
         -2   -1    0    0    0  501 -0.00000000000E+00 -0.00000000000E+00 -0.12397908446E+02  0.12397908708E+02  0.25500000000E-02 0. -1.
    5000001    1    1    2    0    0 -0.46811029056E+02  0.66092450207E+02  0.14813655838E+04  0.14954422347E+04  0.18800000000E+03 0.  0.
   -5000001    1    1    2    0    0  0.46811029056E+02 -0.66092450207E+02  0.19492459975E+04  0.19599651638E+04  0.18800000000E+03 0.  0.
<mgrwt>
<rscale>  0 0.41321238E+03</rscale>
<asrwt>0</asrwt>
<pdfrwt beam="1">  1        2 0.49185861E+00 0.41321238E+03</pdfrwt>
<pdfrwt beam="2">  1       -2 0.17711294E-02 0.41321238E+03</pdfrwt>
<totfact> 0.14358810E+03</totfact>
</mgrwt>
</event>
<event>
 4    1  0.5917727E-005  0.1122806E+04  0.7818608E-02  0.9183244E-01
          2   -1    0    0  501    0  0.00000000000E+00  0.00000000000E+00  0.34268352736E+04  0.34268352736E+04  0.25500000000E-02 0.  1.
         -2   -1    0    0    0  501 -0.00000000000E+00 -0.00000000000E+00 -0.91972142681E+02  0.91972142717E+02  0.25500000000E-02 0. -1.
    5000001    1    1    2    0    0 -0.46039156509E+03  0.21072255232E+03  0.21474975936E+04  0.22143744719E+04  0.18800000000E+03 0.  0.
   -5000001    1    1    2    0    0  0.46039156509E+03 -0.21072255232E+03  0.11873655373E+04  0.13044329444E+04  0.18800000000E+03 0.  0.
<mgrwt>
<rscale>  0 0.11228061E+04</rscale>
<asrwt>0</asrwt>
<pdfrwt beam="1">  1        2 0.48954791E+00 0.11228061E+04</pdfrwt>
<pdfrwt beam="2">  1       -2 0.13138877E-01 0.11228061E+04</pdfrwt>
<totfact> 0.59330420E+01</totfact>
</mgrwt>
</event>
<event>
 4    1  0.5917727E-005  0.4172844E+03  0.7818608E-02  0.1037954E+00
          2   -1    0    0  501    0  0.00000000000E+00  0.00000000000E+00  0.32511101091E+03  0.32511101092E+03  0.25500000000E-02 0.  1.
         -2   -1    0    0    0  501 -0.00000000000E+00 -0.00000000000E+00 -0.13389756922E+03  0.13389756925E+03  0.25500000000E-02 0. -1.
    5000001    1    1    2    0    0  0.19104533335E+02  0.88171890711E+02  0.87961310373E+02  0.22631937086E+03  0.18800000000E+03 0.  0.
   -5000001    1    1    2    0    0 -0.19104533335E+02 -0.88171890711E+02  0.10325213132E+03  0.23268920931E+03  0.18800000000E+03 0.  0.
<mgrwt>
<rscale>  0 0.41728443E+03</rscale>
<asrwt>0</asrwt>
<pdfrwt beam="1">  1        2 0.46444431E-01 0.41728443E+03</pdfrwt>
<pdfrwt beam="2">  1       -2 0.19128224E-01 0.41728443E+03</pdfrwt>
<totfact> 0.24835081E+03</totfact>
</mgrwt>
</event>
<event>
 4    1  0.5917727E-005  0.4234391E+03  0.7818608E-02  0.1035953E+00
         -2   -1    0    0    0  501 -0.00000000000E+00  0.00000000000E+00  0.45026102000E+02  0.45026102072E+02  0.25500000000E-02 0. -1.
          2   -1    0    0  501    0  0.00000000000E+00 -0.00000000000E+00 -0.99553720177E+03  0.99553720178E+03  0.25500000000E-02 0.  1.
    5000001    1    1    2    0    0  0.16163983871E+01  0.75971226056E+02 -0.62487366430E+03  0.65695154788E+03  0.18800000000E+03 0.  0.
   -5000001    1    1    2    0    0 -0.16163983871E+01 -0.75971226056E+02 -0.32563743548E+03  0.38361175597E+03  0.18800000000E+03 0.  0.
<mgrwt>
<rscale>  0 0.42343906E+03</rscale>
<asrwt>0</asrwt>
<pdfrwt beam="1">  1        2 0.14221959E+00 0.42343906E+03</pdfrwt>
<pdfrwt beam="2">  1       -2 0.64323009E-02 0.42343906E+03</pdfrwt>
<totfact> 0.39161257E+03</totfact>
</mgrwt>
</event>
<event>
 4    1  0.5917727E-005  0.6172946E+03  0.7818608E-02  0.9870161E-01
         -2   -1    0    0    0  501 -0.00000000000E+00  0.00000000000E+00  0.76250494035E+02  0.76250494078E+02  0.25500000000E-02 0. -1.
          2   -1    0    0  501    0  0.00000000000E+00 -0.00000000000E+00 -0.12493449268E+04  0.12493449268E+04  0.25500000000E-02 0.  1.
    5000001    1    1    2    0    0  0.23670778796E+03 -0.41698492055E+02 -0.48697911492E+03  0.57468426069E+03  0.18800000000E+03 0.  0.
   -5000001    1    1    2    0    0 -0.23670778796E+03  0.41698492055E+02 -0.68611531789E+03  0.75091116023E+03  0.18800000000E+03 0.  0.
<mgrwt>
<rscale>  0 0.61729464E+03</rscale>
<asrwt>0</asrwt>
<pdfrwt beam="1">  1        2 0.17847783E+00 0.61729464E+03</pdfrwt>
<pdfrwt beam="2">  1       -2 0.10892929E-01 0.61729464E+03</pdfrwt>
<totfact> 0.12066165E+03</totfact>
</mgrwt>
</event>
<event>
 4    1  0.5917727E-005  0.6239995E+03  0.7818608E-02  0.9856829E-01
         -2   -1    0    0    0  501 -0.00000000000E+00  0.00000000000E+00  0.10396153995E+03  0.10396153998E+03  0.25500000000E-02 0. -1.
          2   -1    0    0  501    0  0.00000000000E+00 -0.00000000000E+00 -0.93634476124E+03  0.93634476125E+03  0.25500000000E-02 0.  1.
    5000001    1    1    2    0    0 -0.12393447782E+03  0.12676319698E+03 -0.70768794174E+03  0.75338893395E+03  0.18800000000E+03 0.  0.
   -5000001    1    1    2    0    0  0.12393447782E+03 -0.12676319698E+03 -0.12469527955E+03  0.28691736728E+03  0.18800000000E+03 0.  0.
<mgrwt>
<rscale>  0 0.62399950E+03</rscale>
<asrwt>0</asrwt>
<pdfrwt beam="1">  1        2 0.13376353E+00 0.62399950E+03</pdfrwt>
<pdfrwt beam="2">  1       -2 0.14851649E-01 0.62399950E+03</pdfrwt>
<totfact> 0.11017627E+03</totfact>
</mgrwt>
</event>
<event>
 4    1  0.5917727E-005  0.6930661E+03  0.7818608E-02  0.9729164E-01
         -2   -1    0    0    0  501 -0.00000000000E+00  0.00000000000E+00  0.46372775690E+03  0.46372775691E+03  0.25500000000E-02 0. -1.
          2   -1    0    0  501    0  0.00000000000E+00 -0.00000000000E+00 -0.25895614603E+03  0.25895614604E+03  0.25500000000E-02 0.  1.
    5000001    1    1    2    0    0 -0.19992918126E+03 -0.56182745496E+02  0.31509590338E+03  0.42161310076E+03  0.18800000000E+03 0.  0.
   -5000001    1    1    2    0    0  0.19992918126E+03  0.56182745496E+02 -0.11032429250E+03  0.30107080218E+03  0.18800000000E+03 0.  0.
<mgrwt>
<rscale>  0 0.69306609E+03</rscale>
<asrwt>0</asrwt>
<pdfrwt beam="1">  1        2 0.36993735E-01 0.69306609E+03</pdfrwt>
<pdfrwt beam="2">  1       -2 0.66246822E-01 0.69306609E+03</pdfrwt>
<totfact> 0.29725478E+02</totfact>
</mgrwt>
</event>
<event>
 4    1  0.5917727E-005  0.6459996E+03  0.7818608E-02  0.9814315E-01
         -2   -1    0    0    0  501 -0.00000000000E+00  0.00000000000E+00  0.62354151258E+02  0.62354151310E+02  0.25500000000E-02 0. -1.
          2   -1    0    0  501    0  0.00000000000E+00 -0.00000000000E+00 -0.16731661768E+04  0.16731661768E+04  0.25500000000E-02 0.  1.
    5000001    1    1    2    0    0 -0.22691595591E+03  0.20757465350E+01 -0.45011139435E+03  0.53799575007E+03  0.18800000000E+03 0.  0.
   -5000001    1    1    2    0    0  0.22691595591E+03 -0.20757465350E+01 -0.11607006312E+04  0.11975245780E+04  0.18800000000E+03 0.  0.
<mgrwt>
<rscale>  0 0.64599956E+03</rscale>
<asrwt>0</asrwt>
<pdfrwt beam="1">  1        2 0.23902371E+00 0.64599956E+03</pdfrwt>
<pdfrwt beam="2">  1       -2 0.89077369E-02 0.64599956E+03</pdfrwt>
<totfact> 0.99783754E+02</totfact>
</mgrwt>
</event>
<event>
 4    1  0.5917727E-005  0.4539297E+03  0.7818608E-02  0.1026557E+00
         -2   -1    0    0    0  501 -0.00000000000E+00  0.00000000000E+00  0.56431770218E+02  0.56431770276E+02  0.25500000000E-02 0. -1.
          2   -1    0    0  501    0  0.00000000000E+00 -0.00000000000E+00 -0.91283764318E+03  0.91283764319E+03  0.25500000000E-02 0.  1.
    5000001    1    1    2    0    0  0.62329021254E+02 -0.79918424439E+02 -0.26422772624E+03  0.33975307617E+03  0.18800000000E+03 0.  0.
   -5000001    1    1    2    0    0 -0.62329021254E+02  0.79918424439E+02 -0.59217814672E+03  0.62951633729E+03  0.18800000000E+03 0.  0.
<mgrwt>
<rscale>  0 0.45392970E+03</rscale>
<asrwt>0</asrwt>
<pdfrwt beam="1">  1        2 0.13040537E+00 0.45392970E+03</pdfrwt>
<pdfrwt beam="2">  1       -2 0.80616820E-02 0.45392970E+03</pdfrwt>
<totfact> 0.30908445E+03</totfact>
</mgrwt>
</event>
<event>
 4    1  0.5917727E-005  0.6625005E+03  0.7818608E-02  0.9783602E-01
          2   -1    0    0  501    0  0.00000000000E+00  0.00000000000E+00  0.22164067708E+04  0.22164067708E+04  0.25500000000E-02 0.  1.
         -2   -1    0    0    0  501 -0.00000000000E+00 -0.00000000000E+00 -0.49506578584E+02  0.49506578650E+02  0.25500000000E-02 0. -1.
    5000001    1    1    2    0    0 -0.10875348475E+03 -0.23188576765E+03  0.76288751516E+03  0.82640165203E+03  0.18800000000E+03 0.  0.
   -5000001    1    1    2    0    0  0.10875348475E+03  0.23188576765E+03  0.14040126771E+04  0.14395116974E+04  0.18800000000E+03 0.  0.
<mgrwt>
<rscale>  0 0.66250046E+03</rscale>
<asrwt>0</asrwt>
<pdfrwt beam="1">  1        2 0.31662952E+00 0.66250046E+03</pdfrwt>
<pdfrwt beam="2">  1       -2 0.70723687E-02 0.66250046E+03</pdfrwt>
<totfact> 0.76562605E+02</totfact>
</mgrwt>
</event>
<event>
 4    1  0.5917727E-005  0.6287596E+03  0.7818608E-02  0.9847472E-01
         -2   -1    0    0    0  501 -0.00000000000E+00  0.00000000000E+00  0.44255532592E+02  0.44255532666E+02  0.25500000000E-02 0.  1.
          2   -1    0    0  501    0  0.00000000000E+00 -0.00000000000E+00 -0.22332727333E+04  0.22332727333E+04  0.25500000000E-02 0. -1.
    5000001    1    1    2    0    0  0.15841865389E+03 -0.13631478352E+03 -0.16043658266E+04  0.16288068933E+04  0.18800000000E+03 0.  0.
   -5000001    1    1    2    0    0 -0.15841865389E+03  0.13631478352E+03 -0.58465137412E+03  0.64872137268E+03  0.18800000000E+03 0.  0.
<mgrwt>
<rscale>  0 0.62875965E+03</rscale>
<asrwt>0</asrwt>
<pdfrwt beam="1">  1        2 0.31903889E+00 0.62875965E+03</pdfrwt>
<pdfrwt beam="2">  1       -2 0.63222204E-02 0.62875965E+03</pdfrwt>
<totfact> 0.89808072E+02</totfact>
</mgrwt>
</event>
<event>
 4    1  0.5917727E-005  0.8211943E+03  0.7818608E-02  0.9529836E-01
          2   -1    0    0  501    0  0.00000000000E+00  0.00000000000E+00  0.37189028333E+04  0.37189028333E+04  0.25500000000E-02 0.  1.
         -2   -1    0    0    0  501 -0.00000000000E+00 -0.00000000000E+00 -0.45333264746E+02  0.45333264818E+02  0.25500000000E-02 0. -1.
    5000001    1    1    2    0    0  0.31026999013E+03 -0.18408799078E+03  0.15819722151E+04  0.16334429726E+04  0.18800000000E+03 0.  0.
   -5000001    1    1    2    0    0 -0.31026999013E+03  0.18408799078E+03  0.20915973534E+04  0.21307931256E+04  0.18800000000E+03 0.  0.
<mgrwt>
<rscale>  0 0.82119427E+03</rscale>
<asrwt>0</asrwt>
<pdfrwt beam="1">  1        2 0.53127175E+00 0.82119427E+03</pdfrwt>
<pdfrwt beam="2">  1       -2 0.64761818E-02 0.82119427E+03</pdfrwt>
<totfact> 0.12842463E+02</totfact>
</mgrwt>
</event>
<event>
 4    1  0.5917727E-005  0.6714271E+03  0.7818608E-02  0.9767383E-01
          2   -1    0    0  501    0  0.00000000000E+00  0.00000000000E+00  0.10478601640E+04  0.10478601640E+04  0.25500000000E-02 0.  1.
         -2   -1    0    0    0  501 -0.00000000000E+00 -0.00000000000E+00 -0.10755594784E+03  0.10755594788E+03  0.25500000000E-02 0. -1.
    5000001    1    1    2    0    0 -0.16713735386E+03  0.18865992606E+03  0.26776442437E+03  0.41300030232E+03  0.18800000000E+03 0.  0.
   -5000001    1    1    2    0    0  0.16713735386E+03 -0.18865992606E+03  0.67253979177E+03  0.74241580955E+03  0.18800000000E+03 0.  0.
<mgrwt>
<rscale>  0 0.67142712E+03</rscale>
<asrwt>0</asrwt>
<pdfrwt beam="1">  1        2 0.14969431E+00 0.67142712E+03</pdfrwt>
<pdfrwt beam="2">  1       -2 0.15365136E-01 0.67142712E+03</pdfrwt>
<totfact> 0.88748007E+02</totfact>
</mgrwt>
</event>
<event>
 4    1  0.5917727E-005  0.5604764E+03  0.7818608E-02  0.9990977E-01
         -2   -1    0    0    0  501 -0.00000000000E+00  0.00000000000E+00  0.20175083234E+02  0.20175083395E+02  0.25500000000E-02 0. -1.
          2   -1    0    0  501    0  0.00000000000E+00 -0.00000000000E+00 -0.38925963877E+04  0.38925963877E+04  0.25500000000E-02 0.  1.
    5000001    1    1    2    0    0  0.53146704615E+02  0.20037984073E+03 -0.18343710555E+04  0.18555963521E+04  0.18800000000E+03 0.  0.
   -5000001    1    1    2    0    0 -0.53146704615E+02 -0.20037984073E+03 -0.20380502490E+04  0.20571751190E+04  0.18800000000E+03 0.  0.
<mgrwt>
<rscale>  0 0.56047643E+03</rscale>
<asrwt>0</asrwt>
<pdfrwt beam="1">  1        2 0.55608472E+00 0.56047643E+03</pdfrwt>
<pdfrwt beam="2">  1       -2 0.28821572E-02 0.56047643E+03</pdfrwt>
<totfact> 0.36001895E+02</totfact>
</mgrwt>
</event>
<event>
 4    1  0.5917727E-005  0.6169059E+03  0.7818608E-02  0.9870939E-01
          2   -1    0    0  501    0  0.00000000000E+00  0.00000000000E+00  0.26010520404E+04  0.26010520404E+04  0.25500000000E-02 0.  1.
         -2   -1    0    0    0  501 -0.00000000000E+00 -0.00000000000E+00 -0.36578747526E+02  0.36578747615E+02  0.25500000000E-02 0. -1.
    5000001    1    1    2    0    0  0.16657818003E+03 -0.17902516293E+03  0.12781201171E+04  0.13148130410E+04  0.18800000000E+03 0.  0.
   -5000001    1    1    2    0    0 -0.16657818003E+03  0.17902516293E+03  0.12863531758E+04  0.13228177471E+04  0.18800000000E+03 0.  0.
<mgrwt>
<rscale>  0 0.61690591E+03</rscale>
<asrwt>0</asrwt>
<pdfrwt beam="1">  1        2 0.37157896E+00 0.61690591E+03</pdfrwt>
<pdfrwt beam="2">  1       -2 0.52255340E-02 0.61690591E+03</pdfrwt>
<totfact> 0.78552532E+02</totfact>
</mgrwt>
</event>
<event>
 4    1  0.5917727E-005  0.5218002E+03  0.7818608E-02  0.1008240E+00
          2   -1    0    0  501    0  0.00000000000E+00  0.00000000000E+00  0.17189387298E+04  0.17189387298E+04  0.25500000000E-02 0.  1.
         -2   -1    0    0    0  501 -0.00000000000E+00 -0.00000000000E+00 -0.39599359961E+02  0.39599360044E+02  0.25500000000E-02 0. -1.
    5000001    1    1    2    0    0  0.99874007573E+02  0.14971877869E+03  0.77804652724E+03  0.82042118977E+03  0.18800000000E+03 0.  0.
   -5000001    1    1    2    0    0 -0.99874007573E+02 -0.14971877869E+03  0.90129284262E+03  0.93811690009E+03  0.18800000000E+03 0.  0.
<mgrwt>
<rscale>  0 0.52180024E+03</rscale>
<asrwt>0</asrwt>
<pdfrwt beam="1">  1        2 0.24556271E+00 0.52180024E+03</pdfrwt>
<pdfrwt beam="2">  1       -2 0.56570506E-02 0.52180024E+03</pdfrwt>
<totfact> 0.19486823E+03</totfact>
</mgrwt>
</event>
<event>
 4    1  0.5917727E-005  0.9237365E+03  0.7818608E-02  0.9396387E-01
         -2   -1    0    0    0  501 -0.00000000000E+00  0.00000000000E+00  0.33466772553E+03  0.33466772554E+03  0.25500000000E-02 0.  1.
          2   -1    0    0  501    0  0.00000000000E+00 -0.00000000000E+00 -0.63741509495E+03  0.63741509496E+03  0.25500000000E-02 0. -1.
    5000001    1    1    2    0    0  0.40855522127E+03  0.10493060470E+03 -0.14389842407E+03  0.48371330050E+03  0.18800000000E+03 0.  0.
   -5000001    1    1    2    0    0 -0.40855522127E+03 -0.10493060470E+03 -0.15884894535E+03  0.48836952001E+03  0.18800000000E+03 0.  0.
<mgrwt>
<rscale>  0 0.92373646E+03</rscale>
<asrwt>0</asrwt>
<pdfrwt beam="1">  1        2 0.91059299E-01 0.92373646E+03</pdfrwt>
<pdfrwt beam="2">  1       -2 0.47809675E-01 0.92373646E+03</pdfrwt>
<totfact> 0.20952025E+02</totfact>
</mgrwt>
</event>
<event>
 4    1  0.5917727E-005  0.8424806E+03  0.7818608E-02  0.9500485E-01
          2   -1    0    0  501    0  0.00000000000E+00  0.00000000000E+00  0.17182372043E+04  0.17182372043E+04  0.25500000000E-02 0.  1.
         -2   -1    0    0    0  501 -0.00000000000E+00 -0.00000000000E+00 -0.10327060927E+03  0.10327060930E+03  0.25500000000E-02 0. -1.
    5000001    1    1    2    0    0 -0.61505691615E+02  0.36345624760E+03  0.63702155245E+03  0.75962086090E+03  0.18800000000E+03 0.  0.
   -5000001    1    1    2    0    0  0.61505691615E+02 -0.36345624760E+03  0.97794504255E+03  0.10618869527E+04  0.18800000000E+03 0.  0.
<mgrwt>
<rscale>  0 0.84248063E+03</rscale>
<asrwt>0</asrwt>
<pdfrwt beam="1">  1        2 0.24546246E+00 0.84248063E+03</pdfrwt>
<pdfrwt beam="2">  1       -2 0.14752944E-01 0.84248063E+03</pdfrwt>
<totfact> 0.40778119E+02</totfact>
</mgrwt>
</event>
<event>
 4    1  0.5917727E-005  0.6325448E+03  0.7818608E-02  0.9840095E-01
         -2   -1    0    0    0  501 -0.00000000000E+00  0.00000000000E+00  0.14520634142E+03  0.14520634144E+03  0.25500000000E-02 0.  1.
          2   -1    0    0  501    0  0.00000000000E+00 -0.00000000000E+00 -0.68886965755E+03  0.68886965756E+03  0.25500000000E-02 0. -1.
    5000001    1    1    2    0    0  0.78362896846E+02 -0.16110574101E+03 -0.50986954709E+03  0.57219468578E+03  0.18800000000E+03 0.  0.
   -5000001    1    1    2    0    0 -0.78362896846E+02  0.16110574101E+03 -0.33793769044E+02  0.26188131322E+03  0.18800000000E+03 0.  0.
<mgrwt>
<rscale>  0 0.63254484E+03</rscale>
<asrwt>0</asrwt>
<pdfrwt beam="1">  1        2 0.98409950E-01 0.63254484E+03</pdfrwt>
<pdfrwt beam="2">  1       -2 0.20743763E-01 0.63254484E+03</pdfrwt>
<totfact> 0.92110748E+02</totfact>
</mgrwt>
</event>
<event>
 4    1  0.5917727E-005  0.7699710E+03  0.7818608E-02  0.9604530E-01
         -2   -1    0    0    0  501 -0.00000000000E+00  0.00000000000E+00  0.34931343567E+03  0.34931343568E+03  0.25500000000E-02 0. -1.
          2   -1    0    0  501    0  0.00000000000E+00 -0.00000000000E+00 -0.42430042553E+03  0.42430042554E+03  0.25500000000E-02 0.  1.
    5000001    1    1    2    0    0  0.31725838836E+03  0.65847773084E+02 -0.12668864207E+03  0.39545268520E+03  0.18800000000E+03 0.  0.
   -5000001    1    1    2    0    0 -0.31725838836E+03 -0.65847773084E+02  0.51701652208E+02  0.37816117602E+03  0.18800000000E+03 0.  0.
<mgrwt>
<rscale>  0 0.76997101E+03</rscale>
<asrwt>0</asrwt>
<pdfrwt beam="1">  1        2 0.60614347E-01 0.76997101E+03</pdfrwt>
<pdfrwt beam="2">  1       -2 0.49901919E-01 0.76997101E+03</pdfrwt>
<totfact> 0.30964322E+02</totfact>
</mgrwt>
</event>
<event>
 4    1  0.5917727E-005  0.5696157E+03  0.7818608E-02  0.9970529E-01
          2   -1    0    0  501    0  0.00000000000E+00  0.00000000000E+00  0.12551765894E+03  0.12551765896E+03  0.25500000000E-02 0.  1.
         -2   -1    0    0    0  501 -0.00000000000E+00 -0.00000000000E+00 -0.64624772407E+03  0.64624772408E+03  0.25500000000E-02 0. -1.
    5000001    1    1    2    0    0 -0.82678240501E+02 -0.80987644906E+02 -0.50415757014E+03  0.55037582215E+03  0.18800000000E+03 0.  0.
   -5000001    1    1    2    0    0  0.82678240501E+02  0.80987644906E+02 -0.16572494996E+02  0.22138956089E+03  0.18800000000E+03 0.  0.
<mgrwt>
<rscale>  0 0.56961566E+03</rscale>
<asrwt>0</asrwt>
<pdfrwt beam="1">  1        2 0.17931095E-01 0.56961566E+03</pdfrwt>
<pdfrwt beam="2">  1       -2 0.92321101E-01 0.56961566E+03</pdfrwt>
<totfact> 0.32574634E+02</totfact>
</mgrwt>
</event>
<event>
 4    1  0.5917727E-005  0.5326388E+03  0.7818608E-02  0.1005594E+00
          2   -1    0    0  501    0  0.00000000000E+00  0.00000000000E+00  0.29602678783E+04  0.29602678783E+04  0.25500000000E-02 0.  1.
         -2   -1    0    0    0  501 -0.00000000000E+00 -0.00000000000E+00 -0.23959322136E+02  0.23959322271E+02  0.25500000000E-02 0. -1.
    5000001    1    1    2    0    0  0.80240541362E+02 -0.75072133943E+02  0.60913352929E+03  0.64688640910E+03  0.18800000000E+03 0.  0.
   -5000001    1    1    2    0    0 -0.80240541362E+02  0.75072133943E+02  0.23271750269E+04  0.23373407915E+04  0.18800000000E+03 0.  0.
<mgrwt>
<rscale>  0 0.53263876E+03</rscale>
<asrwt>0</asrwt>
<pdfrwt beam="1">  1        2 0.42289550E+00 0.53263876E+03</pdfrwt>
<pdfrwt beam="2">  1       -2 0.34227596E-02 0.53263876E+03</pdfrwt>
<totfact> 0.98033734E+02</totfact>
</mgrwt>
</event>
<event>
 4    1  0.5917727E-005  0.5560359E+03  0.7818608E-02  0.1000106E+00
         -2   -1    0    0    0  501 -0.00000000000E+00  0.00000000000E+00  0.70906157118E+02  0.70906157164E+02  0.25500000000E-02 0. -1.
          2   -1    0    0  501    0  0.00000000000E+00 -0.00000000000E+00 -0.10900883744E+04  0.10900883744E+04  0.25500000000E-02 0.  1.
    5000001    1    1    2    0    0 -0.17143296511E+03 -0.64516913493E+02 -0.31824368173E+03  0.41252240498E+03  0.18800000000E+03 0.  0.
   -5000001    1    1    2    0    0  0.17143296511E+03  0.64516913493E+02 -0.70093853559E+03  0.74847212662E+03  0.18800000000E+03 0.  0.
<mgrwt>
<rscale>  0 0.55603589E+03</rscale>
<asrwt>0</asrwt>
<pdfrwt beam="1">  1        2 0.15572690E+00 0.55603589E+03</pdfrwt>
<pdfrwt beam="2">  1       -2 0.10129452E-01 0.55603589E+03</pdfrwt>
<totfact> 0.16738769E+03</totfact>
</mgrwt>
</event>
<event>
 4    1  0.5917727E-005  0.5672261E+03  0.7818608E-02  0.9975836E-01
         -2   -1    0    0    0  501 -0.00000000000E+00  0.00000000000E+00  0.29289637754E+02  0.29289637865E+02  0.25500000000E-02 0. -1.
          2   -1    0    0  501    0  0.00000000000E+00 -0.00000000000E+00 -0.27462392571E+04  0.27462392571E+04  0.25500000000E-02 0.  1.
    5000001    1    1    2    0    0  0.18342589074E+03 -0.65978376094E+02 -0.94633957552E+03  0.98432758556E+03  0.18800000000E+03 0.  0.
   -5000001    1    1    2    0    0 -0.18342589074E+03  0.65978376094E+02 -0.17706100438E+04  0.17912013094E+04  0.18800000000E+03 0.  0.
<mgrwt>
<rscale>  0 0.56722607E+03</rscale>
<asrwt>0</asrwt>
<pdfrwt beam="1">  1        2 0.39231973E+00 0.56722607E+03</pdfrwt>
<pdfrwt beam="2">  1       -2 0.41842357E-02 0.56722607E+03</pdfrwt>
<totfact> 0.93414552E+02</totfact>
</mgrwt>
</event>
<event>
 4    1  0.5917727E-005  0.1017681E+04  0.7818608E-02  0.9289363E-01
         -2   -1    0    0    0  501 -0.00000000000E+00  0.00000000000E+00  0.85911660797E+02  0.85911660834E+02  0.25500000000E-02 0. -1.
          2   -1    0    0  501    0  0.00000000000E+00 -0.00000000000E+00 -0.30137755965E+04  0.30137755965E+04  0.25500000000E-02 0.  1.
    5000001    1    1    2    0    0 -0.28807743439E+03  0.27555550550E+03 -0.22384071418E+04  0.22813877306E+04  0.18800000000E+03 0.  0.
   -5000001    1    1    2    0    0  0.28807743439E+03 -0.27555550550E+03 -0.68945679387E+03  0.81829952672E+03  0.18800000000E+03 0.  0.
<mgrwt>
<rscale>  0 0.10176806E+04</rscale>
<asrwt>0</asrwt>
<pdfrwt beam="1">  1        2 0.43053930E+00 0.10176806E+04</pdfrwt>
<pdfrwt beam="2">  1       -2 0.12273096E-01 0.10176806E+04</pdfrwt>
<totfact> 0.11582108E+02</totfact>
</mgrwt>
</event>
<event>
 4    1  0.5917727E-005  0.4876051E+03  0.7818608E-02  0.1017066E+00
          2   -1    0    0  501    0  0.00000000000E+00  0.00000000000E+00  0.13820615854E+03  0.13820615857E+03  0.25500000000E-02 0.  1.
         -2   -1    0    0    0  501 -0.00000000000E+00 -0.00000000000E+00 -0.43007983485E+03  0.43007983486E+03  0.25500000000E-02 0. -1.
    5000001    1    1    2    0    0 -0.36526301686E+02 -0.13672257976E+03 -0.71598462568E+02  0.24596254669E+03  0.18800000000E+03 0.  0.
   -5000001    1    1    2    0    0  0.36526301686E+02  0.13672257976E+03 -0.22027521374E+03  0.32232344674E+03  0.18800000000E+03 0.  0.
<mgrwt>
<rscale>  0 0.48760509E+03</rscale>
<asrwt>0</asrwt>
<pdfrwt beam="1">  1        2 0.19743737E-01 0.48760509E+03</pdfrwt>
<pdfrwt beam="2">  1       -2 0.61439976E-01 0.48760509E+03</pdfrwt>
<totfact> 0.71446106E+02</totfact>
</mgrwt>
</event>
<event>
 4    1  0.5917727E-005  0.5207565E+03  0.7818608E-02  0.1008499E+00
         -2   -1    0    0    0  501 -0.00000000000E+00  0.00000000000E+00  0.12827775553E+03  0.12827775556E+03  0.25500000000E-02 0. -1.
          2   -1    0    0  501    0  0.00000000000E+00 -0.00000000000E+00 -0.52851581268E+03  0.52851581269E+03  0.25500000000E-02 0.  1.
    5000001    1    1    2    0    0 -0.15759219721E+02  0.15504991681E+03 -0.86160843094E+02  0.25895273814E+03  0.18800000000E+03 0.  0.
   -5000001    1    1    2    0    0  0.15759219721E+02 -0.15504991681E+03 -0.31407721406E+03  0.39784083010E+03  0.18800000000E+03 0.  0.
<mgrwt>
<rscale>  0 0.52075646E+03</rscale>
<asrwt>0</asrwt>
<pdfrwt beam="1">  1        2 0.75502258E-01 0.52075646E+03</pdfrwt>
<pdfrwt beam="2">  1       -2 0.18325394E-01 0.52075646E+03</pdfrwt>
<totfact> 0.15620267E+03</totfact>
</mgrwt>
</event>
<event>
 4    1  0.5917727E-005  0.1212749E+04  0.7818608E-02  0.9101770E-01
          2   -1    0    0  501    0  0.00000000000E+00  0.00000000000E+00  0.29086917008E+04  0.29086917008E+04  0.25500000000E-02 0.  1.
         -2   -1    0    0    0  501 -0.00000000000E+00 -0.00000000000E+00 -0.12641083642E+03  0.12641083645E+03  0.25500000000E-02 0. -1.
    5000001    1    1    2    0    0  0.54510108840E+03  0.16785683793E+03  0.16010515990E+04  0.17099769991E+04  0.18800000000E+03 0.  0.
   -5000001    1    1    2    0    0 -0.54510108840E+03 -0.16785683793E+03  0.11812292654E+04  0.13251255382E+04  0.18800000000E+03 0.  0.
<mgrwt>
<rscale>  0 0.12127492E+04</rscale>
<asrwt>0</asrwt>
<pdfrwt beam="1">  1        2 0.41552735E+00 0.12127492E+04</pdfrwt>
<pdfrwt beam="2">  1       -2 0.18058692E-01 0.12127492E+04</pdfrwt>
<totfact> 0.67463047E+01</totfact>
</mgrwt>
</event>
<event>
 4    1  0.5917727E-005  0.6706509E+03  0.7818608E-02  0.9768783E-01
          2   -1    0    0  501    0  0.00000000000E+00  0.00000000000E+00  0.10989369009E+04  0.10989369009E+04  0.25500000000E-02 0.  1.
         -2   -1    0    0    0  501 -0.00000000000E+00 -0.00000000000E+00 -0.10231993535E+03  0.10231993538E+03  0.25500000000E-02 0. -1.
    5000001    1    1    2    0    0  0.15308307107E+03  0.22403125955E+03  0.60389277781E+03  0.68822592147E+03  0.18800000000E+03 0.  0.
   -5000001    1    1    2    0    0 -0.15308307107E+03 -0.22403125955E+03  0.39272418774E+03  0.51303091480E+03  0.18800000000E+03 0.  0.
<mgrwt>
<rscale>  0 0.67065089E+03</rscale>
<asrwt>0</asrwt>
<pdfrwt beam="1">  1        2 0.15699098E+00 0.67065089E+03</pdfrwt>
<pdfrwt beam="2">  1       -2 0.14617134E-01 0.67065089E+03</pdfrwt>
<totfact> 0.90065127E+02</totfact>
</mgrwt>
</event>
<event>
 4    1  0.5917727E-005  0.4584894E+03  0.7818608E-02  0.1025220E+00
         -2   -1    0    0    0  501 -0.00000000000E+00  0.00000000000E+00  0.93709497188E+03  0.93709497188E+03  0.25500000000E-02 0. -1.
          2   -1    0    0  501    0  0.00000000000E+00 -0.00000000000E+00 -0.56080898764E+02  0.56080898822E+02  0.25500000000E-02 0.  1.
    5000001    1    1    2    0    0 -0.11570158711E+02  0.13067071332E+03  0.44191820596E+03  0.49783973792E+03  0.18800000000E+03 0.  0.
   -5000001    1    1    2    0    0  0.11570158711E+02 -0.13067071332E+03  0.43909586716E+03  0.49533613279E+03  0.18800000000E+03 0.  0.
<mgrwt>
<rscale>  0 0.45848938E+03</rscale>
<asrwt>0</asrwt>
<pdfrwt beam="1">  1        2 0.80115568E-02 0.45848938E+03</pdfrwt>
<pdfrwt beam="2">  1       -2 0.13387071E+00 0.45848938E+03</pdfrwt>
<totfact> 0.36111617E+02</totfact>
</mgrwt>
</event>
<event>
 4    1  0.5917727E-005  0.7288059E+03  0.7818608E-02  0.9669200E-01
         -2   -1    0    0    0  501 -0.00000000000E+00  0.00000000000E+00  0.16818395063E+03  0.16818395065E+03  0.25500000000E-02 0. -1.
          2   -1    0    0  501    0  0.00000000000E+00 -0.00000000000E+00 -0.78954933738E+03  0.78954933739E+03  0.25500000000E-02 0.  1.
    5000001    1    1    2    0    0  0.17710679896E+03  0.19154057391E+03 -0.53597130783E+03  0.62503108124E+03  0.18800000000E+03 0.  0.
   -5000001    1    1    2    0    0 -0.17710679896E+03 -0.19154057391E+03 -0.85394078920E+02  0.33270220680E+03  0.18800000000E+03 0.  0.
<mgrwt>
<rscale>  0 0.72880595E+03</rscale>
<asrwt>0</asrwt>
<pdfrwt beam="1">  1        2 0.11279276E+00 0.72880595E+03</pdfrwt>
<pdfrwt beam="2">  1       -2 0.24026279E-01 0.72880595E+03</pdfrwt>
<totfact> 0.59738698E+02</totfact>
</mgrwt>
</event>
<event>
 4    1  0.5917727E-005  0.1341435E+04  0.7818608E-02  0.8997337E-01
         -2   -1    0    0    0  501 -0.00000000000E+00  0.00000000000E+00  0.30762561137E+03  0.30762561138E+03  0.25500000000E-02 0. -1.
          2   -1    0    0  501    0  0.00000000000E+00 -0.00000000000E+00 -0.14623689793E+04  0.14623689793E+04  0.25500000000E-02 0.  1.
    5000001    1    1    2    0    0  0.47489830255E+03  0.25003792474E+03 -0.10812919381E+03  0.57886378720E+03  0.18800000000E+03 0.  0.
   -5000001    1    1    2    0    0 -0.47489830255E+03 -0.25003792474E+03 -0.10466141741E+04  0.11911308035E+04  0.18800000000E+03 0.  0.
<mgrwt>
<rscale>  0 0.13414353E+04</rscale>
<asrwt>0</asrwt>
<pdfrwt beam="1">  1        2 0.20890985E+00 0.13414353E+04</pdfrwt>
<pdfrwt beam="2">  1       -2 0.43946517E-01 0.13414353E+04</pdfrwt>
<totfact> 0.73502880E+01</totfact>
</mgrwt>
</event>
<event>
 4    1  0.5917727E-005  0.5647111E+03  0.7818608E-02  0.9981451E-01
          2   -1    0    0  501    0  0.00000000000E+00  0.00000000000E+00  0.52331888612E+03  0.52331888613E+03  0.25500000000E-02 0. -1.
         -2   -1    0    0    0  501 -0.00000000000E+00 -0.00000000000E+00 -0.15234433516E+03  0.15234433518E+03  0.25500000000E-02 0.  1.
    5000001    1    1    2    0    0  0.79123281550E+02  0.18164372578E+03  0.27114801701E+03  0.38486385115E+03  0.18800000000E+03 0.  0.
   -5000001    1    1    2    0    0 -0.79123281550E+02 -0.18164372578E+03  0.99826533957E+02  0.29079937015E+03  0.18800000000E+03 0.  0.
<mgrwt>
<rscale>  0 0.56471114E+03</rscale>
<asrwt>0</asrwt>
<pdfrwt beam="1">  1        2 0.74759840E-01 0.56471114E+03</pdfrwt>
<pdfrwt beam="2">  1       -2 0.21763477E-01 0.56471114E+03</pdfrwt>
<totfact> 0.11716198E+03</totfact>
</mgrwt>
</event>
<event>
 4    1  0.5917727E-005  0.1546935E+04  0.7818608E-02  0.8853828E-01
          2   -1    0    0  501    0  0.00000000000E+00  0.00000000000E+00  0.48952334891E+03  0.48952334892E+03  0.25500000000E-02 0.  1.
         -2   -1    0    0    0  501 -0.00000000000E+00 -0.00000000000E+00 -0.12221114330E+04  0.12221114330E+04  0.25500000000E-02 0. -1.
    5000001    1    1    2    0    0  0.50467472489E+03 -0.51117377193E+03 -0.60594823872E+03  0.95839056290E+03  0.18800000000E+03 0.  0.
   -5000001    1    1    2    0    0 -0.50467472489E+03  0.51117377193E+03 -0.12663984536E+03  0.75324421902E+03  0.18800000000E+03 0.  0.
<mgrwt>
<rscale>  0 0.15469351E+04</rscale>
<asrwt>0</asrwt>
<pdfrwt beam="1">  1        2 0.69931907E-01 0.15469351E+04</pdfrwt>
<pdfrwt beam="2">  1       -2 0.17458735E+00 0.15469351E+04</pdfrwt>
<totfact> 0.13115905E+01</totfact>
</mgrwt>
</event>
<event>
 4    1  0.5917727E-005  0.5121013E+03  0.7818608E-02  0.1010668E+00
          2   -1    0    0  501    0  0.00000000000E+00  0.00000000000E+00  0.27986718925E+04  0.27986718925E+04  0.25500000000E-02 0.  1.
         -2   -1    0    0    0  501 -0.00000000000E+00 -0.00000000000E+00 -0.23426087612E+02  0.23426087751E+02  0.25500000000E-02 0. -1.
    5000001    1    1    2    0    0 -0.12177216624E+03 -0.12182823936E+03  0.12586941212E+04  0.12842606710E+04  0.18800000000E+03 0.  0.
   -5000001    1    1    2    0    0  0.12177216624E+03  0.12182823936E+03  0.15165516837E+04  0.15378373093E+04  0.18800000000E+03 0.  0.
<mgrwt>
<rscale>  0 0.51210129E+03</rscale>
<asrwt>0</asrwt>
<pdfrwt beam="1">  1        2 0.39980993E+00 0.51210129E+03</pdfrwt>
<pdfrwt beam="2">  1       -2 0.33465868E-02 0.51210129E+03</pdfrwt>
<totfact> 0.12390615E+03</totfact>
</mgrwt>
</event>
<event>
 4    1  0.5917727E-005  0.4927114E+03  0.7818608E-02  0.1015699E+00
          2   -1    0    0  501    0  0.00000000000E+00  0.00000000000E+00  0.87351687581E+03  0.87351687581E+03  0.25500000000E-02 0.  1.
         -2   -1    0    0    0  501 -0.00000000000E+00 -0.00000000000E+00 -0.69479052127E+02  0.69479052174E+02  0.25500000000E-02 0. -1.
    5000001    1    1    2    0    0  0.10744792546E+03 -0.10837558255E+03  0.31522018279E+03  0.39748973222E+03  0.18800000000E+03 0.  0.
   -5000001    1    1    2    0    0 -0.10744792546E+03  0.10837558255E+03  0.48881764089E+03  0.54550619577E+03  0.18800000000E+03 0.  0.
<mgrwt>
<rscale>  0 0.49271137E+03</rscale>
<asrwt>0</asrwt>
<pdfrwt beam="1">  1        2 0.12478812E+00 0.49271137E+03</pdfrwt>
<pdfrwt beam="2">  1       -2 0.99255794E-02 0.49271137E+03</pdfrwt>
<totfact> 0.23504555E+03</totfact>
</mgrwt>
</event>
<event>
 4    1  0.5917727E-005  0.7217034E+03  0.7818608E-02  0.9680820E-01
          2   -1    0    0  501    0  0.00000000000E+00  0.00000000000E+00  0.51337498835E+03  0.51337498836E+03  0.25500000000E-02 0.  1.
         -2   -1    0    0    0  501 -0.00000000000E+00 -0.00000000000E+00 -0.25364292421E+03  0.25364292423E+03  0.25500000000E-02 0. -1.
    5000001    1    1    2    0    0 -0.24727596679E+02  0.26404087313E+03 -0.36625440415E+02  0.32713064609E+03  0.18800000000E+03 0.  0.
   -5000001    1    1    2    0    0  0.24727596679E+02 -0.26404087313E+03  0.29635750455E+03  0.43988726650E+03  0.18800000000E+03 0.  0.
<mgrwt>
<rscale>  0 0.72170336E+03</rscale>
<asrwt>0</asrwt>
<pdfrwt beam="1">  1        2 0.73339286E-01 0.72170336E+03</pdfrwt>
<pdfrwt beam="2">  1       -2 0.36234703E-01 0.72170336E+03</pdfrwt>
<totfact> 0.46940517E+02</totfact>
</mgrwt>
</event>
<event>
 4    1  0.5917727E-005  0.6277252E+03  0.7818608E-02  0.9849498E-01
         -2   -1    0    0    0  501 -0.00000000000E+00  0.00000000000E+00  0.77330328015E+02  0.77330328057E+02  0.25500000000E-02 0. -1.
          2   -1    0    0  501    0  0.00000000000E+00 -0.00000000000E+00 -0.12738820651E+04  0.12738820651E+04  0.25500000000E-02 0.  1.
    5000001    1    1    2    0    0  0.18473450935E+03  0.10814792516E+03 -0.31480070609E+03  0.42457778700E+03  0.18800000000E+03 0.  0.
   -5000001    1    1    2    0    0 -0.18473450935E+03 -0.10814792516E+03 -0.88175103099E+03  0.92663460615E+03  0.18800000000E+03 0.  0.
<mgrwt>
<rscale>  0 0.62772516E+03</rscale>
<asrwt>0</asrwt>
<pdfrwt beam="1">  1        2 0.18198314E+00 0.62772516E+03</pdfrwt>
<pdfrwt beam="2">  1       -2 0.11047191E-01 0.62772516E+03</pdfrwt>
<totfact> 0.11427159E+03</totfact>
</mgrwt>
</event>
<event>
 4    1  0.5917727E-005  0.5852257E+03  0.7818608E-02  0.9936541E-01
         -2   -1    0    0    0  501 -0.00000000000E+00  0.00000000000E+00  0.41151895089E+02  0.41151895168E+02  0.25500000000E-02 0. -1.
          2   -1    0    0  501    0  0.00000000000E+00 -0.00000000000E+00 -0.20806400888E+04  0.20806400888E+04  0.25500000000E-02 0.  1.
    5000001    1    1    2    0    0  0.19631403538E+03 -0.11914686370E+02 -0.62930389389E+03  0.68560086866E+03  0.18800000000E+03 0.  0.
   -5000001    1    1    2    0    0 -0.19631403538E+03  0.11914686370E+02 -0.14101842999E+04  0.14361911154E+04  0.18800000000E+03 0.  0.
<mgrwt>
<rscale>  0 0.58522571E+03</rscale>
<asrwt>0</asrwt>
<pdfrwt beam="1">  1        2 0.29723423E+00 0.58522571E+03</pdfrwt>
<pdfrwt beam="2">  1       -2 0.58788435E-02 0.58522571E+03</pdfrwt>
<totfact> 0.12044775E+03</totfact>
</mgrwt>
</event>
<event>
 4    1  0.5917727E-005  0.6964483E+03  0.7818608E-02  0.9723325E-01
         -2   -1    0    0    0  501 -0.00000000000E+00  0.00000000000E+00  0.10415000764E+03  0.10415000767E+03  0.25500000000E-02 0. -1.
          2   -1    0    0  501    0  0.00000000000E+00 -0.00000000000E+00 -0.11642827568E+04  0.11642827568E+04  0.25500000000E-02 0.  1.
    5000001    1    1    2    0    0 -0.28785936558E+03  0.55401919677E+01 -0.63019331473E+03  0.71790063520E+03  0.18800000000E+03 0.  0.
   -5000001    1    1    2    0    0  0.28785936558E+03 -0.55401919677E+01 -0.42993943440E+03  0.55053212925E+03  0.18800000000E+03 0.  0.
<mgrwt>
<rscale>  0 0.69644830E+03</rscale>
<asrwt>0</asrwt>
<pdfrwt beam="1">  1        2 0.16632610E+00 0.69644830E+03</pdfrwt>
<pdfrwt beam="2">  1       -2 0.14878573E-01 0.69644830E+03</pdfrwt>
<totfact> 0.80074109E+02</totfact>
</mgrwt>
</event>
<event>
 4    1  0.5917727E-005  0.3937333E+03  0.7818608E-02  0.1045971E+00
         -2   -1    0    0    0  501 -0.00000000000E+00  0.00000000000E+00  0.11563864740E+02  0.11563865022E+02  0.25500000000E-02 0. -1.
          2   -1    0    0  501    0  0.00000000000E+00 -0.00000000000E+00 -0.33515153680E+04  0.33515153680E+04  0.25500000000E-02 0.  1.
    5000001    1    1    2    0    0  0.54877043066E+02 -0.12030631757E+02 -0.15332461291E+04  0.15457502769E+04  0.18800000000E+03 0.  0.
   -5000001    1    1    2    0    0 -0.54877043066E+02  0.12030631757E+02 -0.18067053741E+04  0.18173289561E+04  0.18800000000E+03 0.  0.
<mgrwt>
<rscale>  0 0.39373326E+03</rscale>
<asrwt>0</asrwt>
<pdfrwt beam="1">  1        2 0.47878729E+00 0.39373326E+03</pdfrwt>
<pdfrwt beam="2">  1       -2 0.16519828E-02 0.39373326E+03</pdfrwt>
<totfact> 0.18010321E+03</totfact>
</mgrwt>
</event>
<event>
 4    1  0.5917727E-005  0.6394553E+03  0.7818608E-02  0.9826769E-01
         -2   -1    0    0    0  501 -0.00000000000E+00  0.00000000000E+00  0.24286068048E+02  0.24286068182E+02  0.25500000000E-02 0. -1.
          2   -1    0    0  501    0  0.00000000000E+00 -0.00000000000E+00 -0.42092351588E+04  0.42092351588E+04  0.25500000000E-02 0.  1.
    5000001    1    1    2    0    0 -0.25837315404E+03 -0.71148118647E+01 -0.20353442844E+04  0.20602858208E+04  0.18800000000E+03 0.  0.
   -5000001    1    1    2    0    0  0.25837315404E+03  0.71148118647E+01 -0.21496048063E+04  0.21732354062E+04  0.18800000000E+03 0.  0.
<mgrwt>
<rscale>  0 0.63945531E+03</rscale>
<asrwt>0</asrwt>
<pdfrwt beam="1">  1        2 0.60131884E+00 0.63945531E+03</pdfrwt>
<pdfrwt beam="2">  1       -2 0.34694410E-02 0.63945531E+03</pdfrwt>
<totfact> 0.16381758E+02</totfact>
</mgrwt>
</event>
<event>
 4    1  0.5917727E-005  0.4773585E+03  0.7818608E-02  0.1019864E+00
          2   -1    0    0  501    0  0.00000000000E+00  0.00000000000E+00  0.68107300149E+03  0.68107300150E+03  0.25500000000E-02 0.  1.
         -2   -1    0    0    0  501 -0.00000000000E+00 -0.00000000000E+00 -0.83644169900E+02  0.83644169939E+02  0.25500000000E-02 0. -1.
    5000001    1    1    2    0    0 -0.12408914202E+03  0.50547549628E+02  0.20165768721E+03  0.30653383622E+03  0.18800000000E+03 0.  0.
   -5000001    1    1    2    0    0  0.12408914202E+03 -0.50547549628E+02  0.39577114438E+03  0.45818333521E+03  0.18800000000E+03 0.  0.
<mgrwt>
<rscale>  0 0.47735851E+03</rscale>
<asrwt>0</asrwt>
<pdfrwt beam="1">  1        2 0.97296146E-01 0.47735851E+03</pdfrwt>
<pdfrwt beam="2">  1       -2 0.11949167E-01 0.47735851E+03</pdfrwt>
<totfact> 0.23752129E+03</totfact>
</mgrwt>
</event>
<event>
 4    1  0.5917727E-005  0.5661832E+03  0.7818608E-02  0.9978160E-01
         -2   -1    0    0    0  501 -0.00000000000E+00  0.00000000000E+00  0.98494693086E+02  0.98494693119E+02  0.25500000000E-02 0. -1.
          2   -1    0    0  501    0  0.00000000000E+00 -0.00000000000E+00 -0.81365656579E+03  0.81365656579E+03  0.25500000000E-02 0.  1.
    5000001    1    1    2    0    0  0.70530471097E+02 -0.16222067100E+03 -0.17034660677E+03  0.30927667208E+03  0.18800000000E+03 0.  0.
   -5000001    1    1    2    0    0 -0.70530471097E+02  0.16222067100E+03 -0.54481526593E+03  0.60287458683E+03  0.18800000000E+03 0.  0.
<mgrwt>
<rscale>  0 0.56618320E+03</rscale>
<asrwt>0</asrwt>
<pdfrwt beam="1">  1        2 0.11623665E+00 0.56618320E+03</pdfrwt>
<pdfrwt beam="2">  1       -2 0.14070671E-01 0.56618320E+03</pdfrwt>
<totfact> 0.14535708E+03</totfact>
</mgrwt>
</event>
<event>
 4    1  0.5917727E-005  0.6125897E+03  0.7818608E-02  0.9879625E-01
         -2   -1    0    0    0  501 -0.00000000000E+00  0.00000000000E+00  0.15049618468E+03  0.15049618470E+03  0.25500000000E-02 0. -1.
          2   -1    0    0  501    0  0.00000000000E+00 -0.00000000000E+00 -0.62338157589E+03  0.62338157590E+03  0.25500000000E-02 0.  1.
    5000001    1    1    2    0    0 -0.19604453034E+03 -0.13407782190E+03 -0.29381087202E+03  0.42199425200E+03  0.18800000000E+03 0.  0.
   -5000001    1    1    2    0    0  0.19604453034E+03  0.13407782190E+03 -0.17907451919E+03  0.35188350860E+03  0.18800000000E+03 0.  0.
<mgrwt>
<rscale>  0 0.61258974E+03</rscale>
<asrwt>0</asrwt>
<pdfrwt beam="1">  1        2 0.89054510E-01 0.61258974E+03</pdfrwt>
<pdfrwt beam="2">  1       -2 0.21499455E-01 0.61258974E+03</pdfrwt>
<totfact> 0.97588112E+02</totfact>
</mgrwt>
</event>
<event>
 4    1  0.5917727E-005  0.4667449E+03  0.7818608E-02  0.1022843E+00
          2   -1    0    0  501    0  0.00000000000E+00  0.00000000000E+00  0.11926419926E+04  0.11926419926E+04  0.25500000000E-02 0.  1.
         -2   -1    0    0    0  501 -0.00000000000E+00 -0.00000000000E+00 -0.45665595296E+02  0.45665595367E+02  0.25500000000E-02 0. -1.
    5000001    1    1    2    0    0 -0.87128885624E+02 -0.10304367302E+03  0.65348898394E+03  0.69325413334E+03  0.18800000000E+03 0.  0.
   -5000001    1    1    2    0    0  0.87128885624E+02  0.10304367302E+03  0.49348741339E+03  0.54505345466E+03  0.18800000000E+03 0.  0.
<mgrwt>
<rscale>  0 0.46674493E+03</rscale>
<asrwt>0</asrwt>
<pdfrwt beam="1">  1        2 0.17037742E+00 0.46674493E+03</pdfrwt>
<pdfrwt beam="2">  1       -2 0.65236566E-02 0.46674493E+03</pdfrwt>
<totfact> 0.29488739E+03</totfact>
</mgrwt>
</event>
<event>
 4    1  0.5917727E-005  0.6162184E+03  0.7818608E-02  0.9872318E-01
          2   -1    0    0  501    0  0.00000000000E+00  0.00000000000E+00  0.15123117568E+04  0.15123117568E+04  0.25500000000E-02 0.  1.
         -2   -1    0    0    0  501 -0.00000000000E+00 -0.00000000000E+00 -0.62772292088E+02  0.62772292140E+02  0.25500000000E-02 0. -1.
    5000001    1    1    2    0    0 -0.11928551390E+03 -0.82572960557E+02  0.12265627809E+04  0.12493388584E+04  0.18800000000E+03 0.  0.
   -5000001    1    1    2    0    0  0.11928551390E+03  0.82572960557E+02  0.22297668387E+03  0.32574519059E+03  0.18800000000E+03 0.  0.
<mgrwt>
<rscale>  0 0.61621839E+03</rscale>
<asrwt>0</asrwt>
<pdfrwt beam="1">  1        2 0.21604449E+00 0.61621839E+03</pdfrwt>
<pdfrwt beam="2">  1       -2 0.89674722E-02 0.61621839E+03</pdfrwt>
<totfact> 0.11963696E+03</totfact>
</mgrwt>
</event>
<event>
 4    1  0.5917727E-005  0.4186935E+03  0.7818608E-02  0.1037492E+00
         -2   -1    0    0    0  501 -0.00000000000E+00  0.00000000000E+00  0.25050938572E+04  0.25050938572E+04  0.25500000000E-02 0.  1.
          2   -1    0    0  501    0  0.00000000000E+00 -0.00000000000E+00 -0.17494778575E+02  0.17494778761E+02  0.25500000000E-02 0. -1.
    5000001    1    1    2    0    0 -0.88009490945E+02  0.21223526571E+02  0.11419173424E+04  0.11608252778E+04  0.18800000000E+03 0.  0.
   -5000001    1    1    2    0    0  0.88009490945E+02 -0.21223526571E+02  0.13456817362E+04  0.13617633582E+04  0.18800000000E+03 0.  0.
<mgrwt>
<rscale>  0 0.41869350E+03</rscale>
<asrwt>0</asrwt>
<pdfrwt beam="1">  1        2 0.24992528E-02 0.41869350E+03</pdfrwt>
<pdfrwt beam="2">  1       -2 0.35787074E+00 0.41869350E+03</pdfrwt>
<totfact> 0.65333133E+01</totfact>
</mgrwt>
</event>
<event>
 4    1  0.5917727E-005  0.4395530E+03  0.7818608E-02  0.1030884E+00
          2   -1    0    0  501    0  0.00000000000E+00  0.00000000000E+00  0.72982375242E+02  0.72982375286E+02  0.25500000000E-02 0.  1.
         -2   -1    0    0    0  501 -0.00000000000E+00 -0.00000000000E+00 -0.66182696755E+03  0.66182696755E+03  0.25500000000E-02 0. -1.
    5000001    1    1    2    0    0 -0.43075134638E+02 -0.72334384373E+02 -0.42250235719E+03  0.47004252171E+03  0.18800000000E+03 0.  0.
   -5000001    1    1    2    0    0  0.43075134638E+02  0.72334384373E+02 -0.16634223512E+03  0.26476682113E+03  0.18800000000E+03 0.  0.
<mgrwt>
<rscale>  0 0.43955297E+03</rscale>
<asrwt>0</asrwt>
<pdfrwt beam="1">  1        2 0.10426054E-01 0.43955297E+03</pdfrwt>
<pdfrwt beam="2">  1       -2 0.94546706E-01 0.43955297E+03</pdfrwt>
<totfact> 0.59809990E+02</totfact>
</mgrwt>
</event>
<event>
 4    1  0.5917727E-005  0.6265229E+03  0.7818608E-02  0.9851858E-01
         -2   -1    0    0    0  501 -0.00000000000E+00  0.00000000000E+00  0.46134839031E+02  0.46134839102E+02  0.25500000000E-02 0. -1.
          2   -1    0    0  501    0  0.00000000000E+00 -0.00000000000E+00 -0.21270855644E+04  0.21270855644E+04  0.25500000000E-02 0.  1.
    5000001    1    1    2    0    0 -0.75592146931E+02  0.21804288757E+03 -0.70182152545E+03  0.76233478675E+03  0.18800000000E+03 0.  0.
   -5000001    1    1    2    0    0  0.75592146931E+02 -0.21804288757E+03 -0.13791291999E+04  0.14108856167E+04  0.18800000000E+03 0.  0.
<mgrwt>
<rscale>  0 0.62652295E+03</rscale>
<asrwt>0</asrwt>
<pdfrwt beam="1">  1        2 0.30386930E+00 0.62652295E+03</pdfrwt>
<pdfrwt beam="2">  1       -2 0.65906926E-02 0.62652295E+03</pdfrwt>
<totfact> 0.95167521E+02</totfact>
</mgrwt>
</event>
<event>
 4    1  0.5917727E-005  0.7012618E+03  0.7818608E-02  0.9715077E-01
         -2   -1    0    0    0  501 -0.00000000000E+00  0.00000000000E+00  0.13596351085E+03  0.13596351088E+03  0.25500000000E-02 0. -1.
          2   -1    0    0  501    0  0.00000000000E+00 -0.00000000000E+00 -0.90422815158E+03  0.90422815158E+03  0.25500000000E-02 0.  1.
    5000001    1    1    2    0    0  0.18773346671E+03 -0.18231807062E+03 -0.58920716100E+03  0.67155998390E+03  0.18800000000E+03 0.  0.
   -5000001    1    1    2    0    0 -0.18773346671E+03  0.18231807062E+03 -0.17905747972E+03  0.36863167856E+03  0.18800000000E+03 0.  0.
<mgrwt>
<rscale>  0 0.70126182E+03</rscale>
<asrwt>0</asrwt>
<pdfrwt beam="1">  1        2 0.12917545E+00 0.70126182E+03</pdfrwt>
<pdfrwt beam="2">  1       -2 0.19423359E-01 0.70126182E+03</pdfrwt>
<totfact> 0.72842061E+02</totfact>
</mgrwt>
</event>
<event>
 4    1  0.5917727E-005  0.8572805E+03  0.7818608E-02  0.9480617E-01
         -2   -1    0    0    0  501 -0.00000000000E+00  0.00000000000E+00  0.23396135781E+03  0.23396135782E+03  0.25500000000E-02 0. -1.
          2   -1    0    0  501    0  0.00000000000E+00 -0.00000000000E+00 -0.78531112311E+03  0.78531112311E+03  0.25500000000E-02 0.  1.
    5000001    1    1    2    0    0 -0.17284189464E+03 -0.33943820059E+03 -0.20741733308E+03  0.47271403896E+03  0.18800000000E+03 0.  0.
   -5000001    1    1    2    0    0  0.17284189464E+03  0.33943820059E+03 -0.34393243222E+03  0.54655844198E+03  0.18800000000E+03 0.  0.
<mgrwt>
<rscale>  0 0.85728048E+03</rscale>
<asrwt>0</asrwt>
<pdfrwt beam="1">  1        2 0.11218730E+00 0.85728048E+03</pdfrwt>
<pdfrwt beam="2">  1       -2 0.33423052E-01 0.85728048E+03</pdfrwt>
<totfact> 0.32621045E+02</totfact>
</mgrwt>
</event>
<event>
 4    1  0.5917727E-005  0.6296290E+03  0.7818608E-02  0.9845773E-01
          2   -1    0    0  501    0  0.00000000000E+00  0.00000000000E+00  0.35922161181E+04  0.35922161181E+04  0.25500000000E-02 0.  1.
         -2   -1    0    0    0  501 -0.00000000000E+00 -0.00000000000E+00 -0.27589699949E+02  0.27589700066E+02  0.25500000000E-02 0. -1.
    5000001    1    1    2    0    0  0.19010433820E+03 -0.69762834151E+02  0.91502330191E+03  0.95583374886E+03  0.18800000000E+03 0.  0.
   -5000001    1    1    2    0    0 -0.19010433820E+03  0.69762834151E+02  0.26496031163E+04  0.26639720693E+04  0.18800000000E+03 0.  0.
<mgrwt>
<rscale>  0 0.62962899E+03</rscale>
<asrwt>0</asrwt>
<pdfrwt beam="1">  1        2 0.51317409E+00 0.62962899E+03</pdfrwt>
<pdfrwt beam="2">  1       -2 0.39413830E-02 0.62962899E+03</pdfrwt>
<totfact> 0.34118706E+02</totfact>
</mgrwt>
</event>
<event>
 4    1  0.5917727E-005  0.1049957E+04  0.7818608E-02  0.9255389E-01
          2   -1    0    0  501    0  0.00000000000E+00  0.00000000000E+00  0.24871134301E+04  0.24871134301E+04  0.25500000000E-02 0.  1.
         -2   -1    0    0    0  501 -0.00000000000E+00 -0.00000000000E+00 -0.11081213424E+03  0.11081213427E+03  0.25500000000E-02 0. -1.
    5000001    1    1    2    0    0  0.40121601125E+03  0.97224754601E+02  0.18420044406E+04  0.18970375062E+04  0.18800000000E+03 0.  0.
   -5000001    1    1    2    0    0 -0.40121601125E+03 -0.97224754601E+02  0.53429685528E+03  0.70088805822E+03  0.18800000000E+03 0.  0.
<mgrwt>
<rscale>  0 0.10499569E+04</rscale>
<asrwt>0</asrwt>
<pdfrwt beam="1">  1        2 0.35530193E+00 0.10499569E+04</pdfrwt>
<pdfrwt beam="2">  1       -2 0.15830304E-01 0.10499569E+04</pdfrwt>
<totfact> 0.14396301E+02</totfact>
</mgrwt>
</event>
<event>
 4    1  0.5917727E-005  0.7441622E+03  0.7818608E-02  0.9644554E-01
         -2   -1    0    0    0  501 -0.00000000000E+00  0.00000000000E+00  0.68330042425E+02  0.68330042473E+02  0.25500000000E-02 0. -1.
          2   -1    0    0  501    0  0.00000000000E+00 -0.00000000000E+00 -0.20261126410E+04  0.20261126410E+04  0.25500000000E-02 0.  1.
    5000001    1    1    2    0    0 -0.30469416588E+03  0.10124326755E+03 -0.98848903480E+03  0.10561928356E+04  0.18800000000E+03 0.  0.
   -5000001    1    1    2    0    0  0.30469416588E+03 -0.10124326755E+03 -0.96929356380E+03  0.10382498480E+04  0.18800000000E+03 0.  0.
<mgrwt>
<rscale>  0 0.74416225E+03</rscale>
<asrwt>0</asrwt>
<pdfrwt beam="1">  1        2 0.28944463E+00 0.74416225E+03</pdfrwt>
<pdfrwt beam="2">  1       -2 0.97614359E-02 0.74416225E+03</pdfrwt>
<totfact> 0.56683160E+02</totfact>
</mgrwt>
</event>
<event>
 4    1  0.5917727E-005  0.6029107E+03  0.7818608E-02  0.9899386E-01
         -2   -1    0    0    0  501 -0.00000000000E+00  0.00000000000E+00  0.30724411766E+02  0.30724411872E+02  0.25500000000E-02 0.  1.
          2   -1    0    0  501    0  0.00000000000E+00 -0.00000000000E+00 -0.29577560824E+04  0.29577560824E+04  0.25500000000E-02 0. -1.
    5000001    1    1    2    0    0 -0.22598388146E+03 -0.62261043652E+02 -0.13435087403E+04  0.13767007254E+04  0.18800000000E+03 0.  0.
   -5000001    1    1    2    0    0  0.22598388146E+03  0.62261043652E+02 -0.15835229303E+04  0.16117797688E+04  0.18800000000E+03 0.  0.
<mgrwt>
<rscale>  0 0.60291066E+03</rscale>
<asrwt>0</asrwt>
<pdfrwt beam="1">  1        2 0.42253640E+00 0.60291066E+03</pdfrwt>
<pdfrwt beam="2">  1       -2 0.43892036E-02 0.60291066E+03</pdfrwt>
<totfact> 0.66737356E+02</totfact>
</mgrwt>
</event>
<event>
 4    1  0.5917727E-005  0.5042945E+03  0.7818608E-02  0.1012664E+00
         -2   -1    0    0    0  501 -0.00000000000E+00  0.00000000000E+00  0.20355161347E+02  0.20355161507E+02  0.25500000000E-02 0. -1.
          2   -1    0    0  501    0  0.00000000000E+00 -0.00000000000E+00 -0.31234455330E+04  0.31234455330E+04  0.25500000000E-02 0.  1.
    5000001    1    1    2    0    0  0.12889956744E+03  0.46362798375E+02 -0.94489647081E+03  0.97310736721E+03  0.18800000000E+03 0.  0.
   -5000001    1    1    2    0    0 -0.12889956744E+03 -0.46362798375E+02 -0.21581939009E+04  0.21706933273E+04  0.18800000000E+03 0.  0.
<mgrwt>
<rscale>  0 0.50429451E+03</rscale>
<asrwt>0</asrwt>
<pdfrwt beam="1">  1        2 0.44620620E+00 0.50429451E+03</pdfrwt>
<pdfrwt beam="2">  1       -2 0.29078822E-02 0.50429451E+03</pdfrwt>
<totfact> 0.10257473E+03</totfact>
</mgrwt>
</event>
<event>
 4    1  0.5917727E-005  0.5896982E+03  0.7818608E-02  0.9927013E-01
          2   -1    0    0  501    0  0.00000000000E+00  0.00000000000E+00  0.26012790218E+03  0.26012790219E+03  0.25500000000E-02 0.  1.
         -2   -1    0    0    0  501 -0.00000000000E+00 -0.00000000000E+00 -0.33420477346E+03  0.33420477347E+03  0.25500000000E-02 0. -1.
    5000001    1    1    2    0    0  0.96767149621E+02  0.55729237187E+02 -0.23638663964E+03  0.32201284527E+03  0.18800000000E+03 0.  0.
   -5000001    1    1    2    0    0 -0.96767149621E+02 -0.55729237187E+02  0.16230976835E+03  0.27231983039E+03  0.18800000000E+03 0.  0.
<mgrwt>
<rscale>  0 0.58969818E+03</rscale>
<asrwt>0</asrwt>
<pdfrwt beam="1">  1        2 0.37161129E-01 0.58969818E+03</pdfrwt>
<pdfrwt beam="2">  1       -2 0.47743539E-01 0.58969818E+03</pdfrwt>
<totfact> 0.58545548E+02</totfact>
</mgrwt>
</event>
<event>
 4    1  0.5917727E-005  0.8919299E+03  0.7818608E-02  0.9435726E-01
          2   -1    0    0  501    0  0.00000000000E+00  0.00000000000E+00  0.15293915498E+04  0.15293915498E+04  0.25500000000E-02 0.  1.
         -2   -1    0    0    0  501 -0.00000000000E+00 -0.00000000000E+00 -0.13004173159E+03  0.13004173161E+03  0.25500000000E-02 0. -1.
    5000001    1    1    2    0    0 -0.39539116532E+03  0.28812687449E+02  0.84823980757E+03  0.95499691922E+03  0.18800000000E+03 0.  0.
   -5000001    1    1    2    0    0  0.39539116532E+03 -0.28812687449E+02  0.55111001069E+03  0.70443636224E+03  0.18800000000E+03 0.  0.
<mgrwt>
<rscale>  0 0.89192987E+03</rscale>
<asrwt>0</asrwt>
<pdfrwt beam="1">  1        2 0.21848450E+00 0.89192987E+03</pdfrwt>
<pdfrwt beam="2">  1       -2 0.18577391E-01 0.89192987E+03</pdfrwt>
<totfact> 0.34335790E+02</totfact>
</mgrwt>
</event>
<event>
 4    1  0.5917727E-005  0.5171283E+03  0.7818608E-02  0.1009402E+00
         -2   -1    0    0    0  501 -0.00000000000E+00  0.00000000000E+00  0.13083412838E+03  0.13083412841E+03  0.25500000000E-02 0. -1.
          2   -1    0    0  501    0  0.00000000000E+00 -0.00000000000E+00 -0.51099381669E+03  0.51099381670E+03  0.25500000000E-02 0.  1.
    5000001    1    1    2    0    0 -0.10645645446E+03 -0.13463459959E+03 -0.24630189539E+03  0.35421473117E+03  0.18800000000E+03 0.  0.
   -5000001    1    1    2    0    0  0.10645645446E+03  0.13463459959E+03 -0.13385779292E+03  0.28761321394E+03  0.18800000000E+03 0.  0.
<mgrwt>
<rscale>  0 0.51712834E+03</rscale>
<asrwt>0</asrwt>
<pdfrwt beam="1">  1        2 0.72999116E-01 0.51712834E+03</pdfrwt>
<pdfrwt beam="2">  1       -2 0.18690590E-01 0.51712834E+03</pdfrwt>
<totfact> 0.15690680E+03</totfact>
</mgrwt>
</event>
<event>
 4    1  0.5917727E-005  0.5655318E+03  0.7818608E-02  0.9979615E-01
         -2   -1    0    0    0  501 -0.00000000000E+00  0.00000000000E+00  0.57674339879E+02  0.57674339935E+02  0.25500000000E-02 0. -1.
          2   -1    0    0  501    0  0.00000000000E+00 -0.00000000000E+00 -0.13863451639E+04  0.13863451639E+04  0.25500000000E-02 0.  1.
    5000001    1    1    2    0    0 -0.17495936986E+03  0.36549000806E+02 -0.37696990928E+03  0.45759908551E+03  0.18800000000E+03 0.  0.
   -5000001    1    1    2    0    0  0.17495936986E+03 -0.36549000806E+02 -0.95170091478E+03  0.98642041836E+03  0.18800000000E+03 0.  0.
<mgrwt>
<rscale>  0 0.56553176E+03</rscale>
<asrwt>0</asrwt>
<pdfrwt beam="1">  1        2 0.19804929E+00 0.56553176E+03</pdfrwt>
<pdfrwt beam="2">  1       -2 0.82391923E-02 0.56553176E+03</pdfrwt>
<totfact> 0.15985590E+03</totfact>
</mgrwt>
</event>
<event>
 4    1  0.5917727E-005  0.5237496E+03  0.7818608E-02  0.1007759E+00
         -2   -1    0    0    0  501 -0.00000000000E+00  0.00000000000E+00  0.41610293993E+03  0.41610293994E+03  0.25500000000E-02 0. -1.
          2   -1    0    0  501    0  0.00000000000E+00 -0.00000000000E+00 -0.16481115876E+03  0.16481115878E+03  0.25500000000E-02 0.  1.
    5000001    1    1    2    0    0 -0.16259467509E+03  0.15752941470E+01  0.34217792268E+02  0.25090708883E+03  0.18800000000E+03 0.  0.
   -5000001    1    1    2    0    0  0.16259467509E+03 -0.15752941470E+01  0.21707398890E+03  0.33000700989E+03  0.18800000000E+03 0.  0.
<mgrwt>
<rscale>  0 0.52374959E+03</rscale>
<asrwt>0</asrwt>
<pdfrwt beam="1">  1        2 0.23544451E-01 0.52374959E+03</pdfrwt>
<pdfrwt beam="2">  1       -2 0.59443277E-01 0.52374959E+03</pdfrwt>
<totfact> 0.62461761E+02</totfact>
</mgrwt>
</event>
<event>
 4    1  0.5917727E-005  0.4866404E+03  0.7818608E-02  0.1017326E+00
          2   -1    0    0  501    0  0.00000000000E+00  0.00000000000E+00  0.28819303519E+04  0.28819303519E+04  0.25500000000E-02 0.  1.
         -2   -1    0    0    0  501 -0.00000000000E+00 -0.00000000000E+00 -0.20543427398E+02  0.20543427556E+02  0.25500000000E-02 0. -1.
    5000001    1    1    2    0    0  0.75042916360E+01 -0.14000011654E+03  0.10439605744E+04  0.10699785175E+04  0.18800000000E+03 0.  0.
   -5000001    1    1    2    0    0 -0.75042916360E+01  0.14000011654E+03  0.18174263501E+04  0.18324952619E+04  0.18800000000E+03 0.  0.
<mgrwt>
<rscale>  0 0.48664043E+03</rscale>
<asrwt>0</asrwt>
<pdfrwt beam="1">  1        2 0.41170389E+00 0.48664043E+03</pdfrwt>
<pdfrwt beam="2">  1       -2 0.29347786E-02 0.48664043E+03</pdfrwt>
<totfact> 0.13690004E+03</totfact>
</mgrwt>
</event>
<event>
 4    1  0.5917727E-005  0.6478934E+03  0.7818608E-02  0.9810740E-01
          2   -1    0    0  501    0  0.00000000000E+00  0.00000000000E+00  0.68272346994E+02  0.68272347041E+02  0.25500000000E-02 0.  1.
         -2   -1    0    0    0  501 -0.00000000000E+00 -0.00000000000E+00 -0.15371005070E+04  0.15371005070E+04  0.25500000000E-02 0. -1.
    5000001    1    1    2    0    0  0.21777326975E+02 -0.66090355139E+02 -0.10387800847E+03  0.22578048555E+03  0.18800000000E+03 0.  0.
   -5000001    1    1    2    0    0 -0.21777326975E+02  0.66090355139E+02 -0.13649501515E+04  0.13795923685E+04  0.18800000000E+03 0.  0.
<mgrwt>
<rscale>  0 0.64789338E+03</rscale>
<asrwt>0</asrwt>
<pdfrwt beam="1">  1        2 0.97531934E-02 0.64789338E+03</pdfrwt>
<pdfrwt beam="2">  1       -2 0.21958577E+00 0.64789338E+03</pdfrwt>
<totfact> 0.70132054E+01</totfact>
</mgrwt>
</event>
<event>
 4    1  0.5917727E-005  0.4319475E+03  0.7818608E-02  0.1033247E+00
          2   -1    0    0  501    0  0.00000000000E+00  0.00000000000E+00  0.71147520922E+02  0.71147520968E+02  0.25500000000E-02 0.  1.
         -2   -1    0    0    0  501 -0.00000000000E+00 -0.00000000000E+00 -0.65560498075E+03  0.65560498075E+03  0.25500000000E-02 0. -1.
    5000001    1    1    2    0    0  0.25869471497E+02  0.87149148465E+02 -0.38494153152E+03  0.43793628112E+03  0.18800000000E+03 0.  0.
   -5000001    1    1    2    0    0 -0.25869471497E+02 -0.87149148465E+02 -0.19951592831E+03  0.28881622060E+03  0.18800000000E+03 0.  0.
<mgrwt>
<rscale>  0 0.43194754E+03</rscale>
<asrwt>0</asrwt>
<pdfrwt beam="1">  1        2 0.10163932E-01 0.43194754E+03</pdfrwt>
<pdfrwt beam="2">  1       -2 0.93657851E-01 0.43194754E+03</pdfrwt>
<totfact> 0.63111612E+02</totfact>
</mgrwt>
</event>
<event>
 4    1  0.5917727E-005  0.7674625E+03  0.7818608E-02  0.9608346E-01
          2   -1    0    0  501    0  0.00000000000E+00  0.00000000000E+00  0.77989850833E+03  0.77989850833E+03  0.25500000000E-02 0.  1.
         -2   -1    0    0    0  501 -0.00000000000E+00 -0.00000000000E+00 -0.18880617511E+03  0.18880617512E+03  0.25500000000E-02 0. -1.
    5000001    1    1    2    0    0  0.32175519448E+03 -0.90027243659E+02  0.31645271992E+03  0.49710927744E+03  0.18800000000E+03 0.  0.
   -5000001    1    1    2    0    0 -0.32175519448E+03  0.90027243659E+02  0.27463961330E+03  0.47159540601E+03  0.18800000000E+03 0.  0.
<mgrwt>
<rscale>  0 0.76746245E+03</rscale>
<asrwt>0</asrwt>
<pdfrwt beam="1">  1        2 0.11141408E+00 0.76746245E+03</pdfrwt>
<pdfrwt beam="2">  1       -2 0.26972310E-01 0.76746245E+03</pdfrwt>
<totfact> 0.49174696E+02</totfact>
</mgrwt>
</event>
<event>
 4    1  0.5917727E-005  0.9038401E+03  0.7818608E-02  0.9420794E-01
          2   -1    0    0  501    0  0.00000000000E+00  0.00000000000E+00  0.93775084386E+03  0.93775084386E+03  0.25500000000E-02 0.  1.
         -2   -1    0    0    0  501 -0.00000000000E+00 -0.00000000000E+00 -0.21778890547E+03  0.21778890549E+03  0.25500000000E-02 0. -1.
    5000001    1    1    2    0    0 -0.30140096641E+03  0.14225136757E+03  0.52588107622E+02  0.38624798148E+03  0.18800000000E+03 0.  0.
   -5000001    1    1    2    0    0  0.30140096641E+03 -0.14225136757E+03  0.66737383076E+03  0.76929176787E+03  0.18800000000E+03 0.  0.
<mgrwt>
<rscale>  0 0.90384010E+03</rscale>
<asrwt>0</asrwt>
<pdfrwt beam="1">  1        2 0.13396440E+00 0.90384010E+03</pdfrwt>
<pdfrwt beam="2">  1       -2 0.31112701E-01 0.90384010E+03</pdfrwt>
<totfact> 0.29428051E+02</totfact>
</mgrwt>
</event>
<event>
 4    1  0.5917727E-005  0.6644825E+03  0.7818608E-02  0.9779977E-01
          2   -1    0    0  501    0  0.00000000000E+00  0.00000000000E+00  0.14779938887E+04  0.14779938887E+04  0.25500000000E-02 0.  1.
         -2   -1    0    0    0  501 -0.00000000000E+00 -0.00000000000E+00 -0.74685183815E+02  0.74685183859E+02  0.25500000000E-02 0. -1.
    5000001    1    1    2    0    0  0.26669379871E+02  0.18326550127E+03  0.23000059008E+03  0.35005966808E+03  0.18800000000E+03 0.  0.
   -5000001    1    1    2    0    0 -0.26669379871E+02 -0.18326550127E+03  0.11733081148E+04  0.12026194045E+04  0.18800000000E+03 0.  0.
<mgrwt>
<rscale>  0 0.66448249E+03</rscale>
<asrwt>0</asrwt>
<pdfrwt beam="1">  1        2 0.21114198E+00 0.66448249E+03</pdfrwt>
<pdfrwt beam="2">  1       -2 0.10669312E-01 0.66448249E+03</pdfrwt>
<totfact> 0.93904116E+02</totfact>
</mgrwt>
</event>
<event>
 4    1  0.5917727E-005  0.1286244E+04  0.7818608E-02  0.9040546E-01
         -2   -1    0    0    0  501 -0.00000000000E+00  0.00000000000E+00  0.19649227634E+03  0.19649227636E+03  0.25500000000E-02 0. -1.
          2   -1    0    0  501    0  0.00000000000E+00 -0.00000000000E+00 -0.21049463375E+04  0.21049463375E+04  0.25500000000E-02 0.  1.
    5000001    1    1    2    0    0  0.41435562898E+03  0.24617987974E+03 -0.16378282919E+04  0.17175915214E+04  0.18800000000E+03 0.  0.
   -5000001    1    1    2    0    0 -0.41435562898E+03 -0.24617987974E+03 -0.27062576928E+03  0.58384709253E+03  0.18800000000E+03 0.  0.
<mgrwt>
<rscale>  0 0.12862437E+04</rscale>
<asrwt>0</asrwt>
<pdfrwt beam="1">  1        2 0.30070661E+00 0.12862437E+04</pdfrwt>
<pdfrwt beam="2">  1       -2 0.28070326E-01 0.12862437E+04</pdfrwt>
<totfact> 0.80713777E+01</totfact>
</mgrwt>
</event>
<event>
 4    1  0.5917727E-005  0.5317974E+03  0.7818608E-02  0.1005797E+00
          2   -1    0    0  501    0  0.00000000000E+00  0.00000000000E+00  0.58641986207E+02  0.58641986262E+02  0.25500000000E-02 0.  1.
         -2   -1    0    0    0  501 -0.00000000000E+00 -0.00000000000E+00 -0.12056568840E+04  0.12056568840E+04  0.25500000000E-02 0. -1.
    5000001    1    1    2    0    0 -0.13458194671E+03 -0.12640983333E+03 -0.48890488454E+03  0.55539511383E+03  0.18800000000E+03 0.  0.
   -5000001    1    1    2    0    0  0.13458194671E+03  0.12640983333E+03 -0.65811001329E+03  0.70890375646E+03  0.18800000000E+03 0.  0.
<mgrwt>
<rscale>  0 0.53179738E+03</rscale>
<asrwt>0</asrwt>
<pdfrwt beam="1">  1        2 0.83774273E-02 0.53179738E+03</pdfrwt>
<pdfrwt beam="2">  1       -2 0.17223668E+00 0.53179738E+03</pdfrwt>
<totfact> 0.17510869E+02</totfact>
</mgrwt>
</event>
<event>
 4    1  0.5917727E-005  0.5396520E+03  0.7818608E-02  0.1003918E+00
         -2   -1    0    0    0  501 -0.00000000000E+00  0.00000000000E+00  0.58982890374E+02  0.58982890429E+02  0.25500000000E-02 0. -1.
          2   -1    0    0  501    0  0.00000000000E+00 -0.00000000000E+00 -0.12343590782E+04  0.12343590782E+04  0.25500000000E-02 0.  1.
    5000001    1    1    2    0    0 -0.12302489980E+03 -0.11010313493E+03 -0.82978538084E+03  0.86668656650E+03  0.18800000000E+03 0.  0.
   -5000001    1    1    2    0    0  0.12302489980E+03  0.11010313493E+03 -0.34559080695E+03  0.42665540209E+03  0.18800000000E+03 0.  0.
<mgrwt>
<rscale>  0 0.53965198E+03</rscale>
<asrwt>0</asrwt>
<pdfrwt beam="1">  1        2 0.17633699E+00 0.53965198E+03</pdfrwt>
<pdfrwt beam="2">  1       -2 0.84261280E-02 0.53965198E+03</pdfrwt>
<totfact> 0.18649856E+03</totfact>
</mgrwt>
</event>
<event>
 4    1  0.5917727E-005  0.7074113E+03  0.7818608E-02  0.9704641E-01
         -2   -1    0    0    0  501 -0.00000000000E+00  0.00000000000E+00  0.98327534683E+02  0.98327534716E+02  0.25500000000E-02 0. -1.
          2   -1    0    0  501    0  0.00000000000E+00 -0.00000000000E+00 -0.12723567320E+04  0.12723567320E+04  0.25500000000E-02 0.  1.
    5000001    1    1    2    0    0  0.25788667368E+03  0.92301338618E+02 -0.35178393869E+03  0.48386053063E+03  0.18800000000E+03 0.  0.
   -5000001    1    1    2    0    0 -0.25788667368E+03 -0.92301338618E+02 -0.82224525865E+03  0.88682373612E+03  0.18800000000E+03 0.  0.
<mgrwt>
<rscale>  0 0.70741134E+03</rscale>
<asrwt>0</asrwt>
<pdfrwt beam="1">  1        2 0.18176524E+00 0.70741134E+03</pdfrwt>
<pdfrwt beam="2">  1       -2 0.14046791E-01 0.70741134E+03</pdfrwt>
<totfact> 0.76696992E+02</totfact>
</mgrwt>
</event>
<event>
 4    1  0.5917727E-005  0.9203691E+03  0.7818608E-02  0.9400471E-01
         -2   -1    0    0    0  501 -0.00000000000E+00  0.00000000000E+00  0.42242978730E+03  0.42242978731E+03  0.25500000000E-02 0. -1.
          2   -1    0    0  501    0  0.00000000000E+00 -0.00000000000E+00 -0.50131359992E+03  0.50131359993E+03  0.25500000000E-02 0.  1.
    5000001    1    1    2    0    0  0.34097907527E+03 -0.28779496213E+02  0.20503028676E+03  0.44099479324E+03  0.18800000000E+03 0.  0.
   -5000001    1    1    2    0    0 -0.34097907527E+03  0.28779496213E+02 -0.28391409938E+03  0.48274859400E+03  0.18800000000E+03 0.  0.
<mgrwt>
<rscale>  0 0.92036905E+03</rscale>
<asrwt>0</asrwt>
<pdfrwt beam="1">  1        2 0.71616228E-01 0.92036905E+03</pdfrwt>
<pdfrwt beam="2">  1       -2 0.60347113E-01 0.92036905E+03</pdfrwt>
<totfact> 0.17173156E+02</totfact>
</mgrwt>
</event>
<event>
 4    1  0.5917727E-005  0.7343882E+03  0.7818608E-02  0.9660166E-01
          2   -1    0    0  501    0  0.00000000000E+00  0.00000000000E+00  0.16053759537E+04  0.16053759537E+04  0.25500000000E-02 0.  1.
         -2   -1    0    0    0  501 -0.00000000000E+00 -0.00000000000E+00 -0.83987487175E+02  0.83987487214E+02  0.25500000000E-02 0. -1.
    5000001    1    1    2    0    0 -0.27365592567E+03  0.14011294631E+03  0.59855024562E+03  0.69865985995E+03  0.18800000000E+03 0.  0.
   -5000001    1    1    2    0    0  0.27365592567E+03 -0.14011294631E+03  0.92283822095E+03  0.99070358101E+03  0.18800000000E+03 0.  0.
<mgrwt>
<rscale>  0 0.73438816E+03</rscale>
<asrwt>0</asrwt>
<pdfrwt beam="1">  1        2 0.22933939E+00 0.73438816E+03</pdfrwt>
<pdfrwt beam="2">  1       -2 0.11998214E-01 0.73438816E+03</pdfrwt>
<totfact> 0.66249566E+02</totfact>
</mgrwt>
</event>
<event>
 4    1  0.5917727E-005  0.5447473E+03  0.7818608E-02  0.1002717E+00
          2   -1    0    0  501    0  0.00000000000E+00  0.00000000000E+00  0.40181773064E+03  0.40181773065E+03  0.25500000000E-02 0.  1.
         -2   -1    0    0    0  501 -0.00000000000E+00 -0.00000000000E+00 -0.18462950653E+03  0.18462950655E+03  0.25500000000E-02 0. -1.
    5000001    1    1    2    0    0 -0.18959230624E+01  0.15162349806E+03  0.24412873615E+03  0.34341828650E+03  0.18800000000E+03 0.  0.
   -5000001    1    1    2    0    0  0.18959230624E+01 -0.15162349806E+03 -0.26940512033E+02  0.24302895070E+03  0.18800000000E+03 0.  0.
<mgrwt>
<rscale>  0 0.54474732E+03</rscale>
<asrwt>0</asrwt>
<pdfrwt beam="1">  1        2 0.57402532E-01 0.54474732E+03</pdfrwt>
<pdfrwt beam="2">  1       -2 0.26375644E-01 0.54474732E+03</pdfrwt>
<totfact> 0.11194063E+03</totfact>
</mgrwt>
</event>
<event>
 4    1  0.5917727E-005  0.5518894E+03  0.7818608E-02  0.1001058E+00
          2   -1    0    0  501    0  0.00000000000E+00  0.00000000000E+00  0.89540880030E+03  0.89540880030E+03  0.25500000000E-02 0.  1.
         -2   -1    0    0    0  501 -0.00000000000E+00 -0.00000000000E+00 -0.85039892118E+02  0.85039892157E+02  0.25500000000E-02 0. -1.
    5000001    1    1    2    0    0  0.51330571899E+02  0.17729275478E+03  0.25940148203E+03  0.36973054700E+03  0.18800000000E+03 0.  0.
   -5000001    1    1    2    0    0 -0.51330571899E+02 -0.17729275478E+03  0.55096742615E+03  0.61071814546E+03  0.18800000000E+03 0.  0.
<mgrwt>
<rscale>  0 0.55188936E+03</rscale>
<asrwt>0</asrwt>
<pdfrwt beam="1">  1        2 0.12791554E+00 0.55188936E+03</pdfrwt>
<pdfrwt beam="2">  1       -2 0.12148556E-01 0.55188936E+03</pdfrwt>
<totfact> 0.16364956E+03</totfact>
</mgrwt>
</event>
<event>
 4    1  0.5917727E-005  0.5779172E+03  0.7818608E-02  0.9952310E-01
         -2   -1    0    0    0  501 -0.00000000000E+00  0.00000000000E+00  0.52577054835E+03  0.52577054835E+03  0.25500000000E-02 0. -1.
          2   -1    0    0  501    0  0.00000000000E+00 -0.00000000000E+00 -0.15880895223E+03  0.15880895225E+03  0.25500000000E-02 0.  1.
    5000001    1    1    2    0    0 -0.21746857965E+02  0.14444209149E+03  0.37746231300E+03  0.44627148840E+03  0.18800000000E+03 0.  0.
   -5000001    1    1    2    0    0  0.21746857965E+02 -0.14444209149E+03 -0.10500716887E+02  0.23830801220E+03  0.18800000000E+03 0.  0.
<mgrwt>
<rscale>  0 0.57791719E+03</rscale>
<asrwt>0</asrwt>
<pdfrwt beam="1">  1        2 0.22686993E-01 0.57791719E+03</pdfrwt>
<pdfrwt beam="2">  1       -2 0.75110078E-01 0.57791719E+03</pdfrwt>
<totfact> 0.39405472E+02</totfact>
</mgrwt>
</event>
<event>
 4    1  0.5917727E-005  0.8191277E+03  0.7818608E-02  0.9532736E-01
         -2   -1    0    0    0  501 -0.00000000000E+00  0.00000000000E+00  0.89277859381E+02  0.89277859417E+02  0.25500000000E-02 0. -1.
          2   -1    0    0  501    0  0.00000000000E+00 -0.00000000000E+00 -0.18788816794E+04  0.18788816794E+04  0.25500000000E-02 0.  1.
    5000001    1    1    2    0    0  0.20214942102E+03  0.20265164486E+03 -0.14345736099E+04  0.14748822054E+04  0.18800000000E+03 0.  0.
   -5000001    1    1    2    0    0 -0.20214942102E+03 -0.20265164486E+03 -0.35503021018E+03  0.49327733348E+03  0.18800000000E+03 0.  0.
<mgrwt>
<rscale>  0 0.81912767E+03</rscale>
<asrwt>0</asrwt>
<pdfrwt beam="1">  1        2 0.26841164E+00 0.81912767E+03</pdfrwt>
<pdfrwt beam="2">  1       -2 0.12753981E-01 0.81912767E+03</pdfrwt>
<totfact> 0.43161842E+02</totfact>
</mgrwt>
</event>
<event>
 4    1  0.5917727E-005  0.1752909E+04  0.7818608E-02  0.8731751E-01
          2   -1    0    0  501    0  0.00000000000E+00  0.00000000000E+00  0.11714184760E+04  0.11714184760E+04  0.25500000000E-02 0.  1.
         -2   -1    0    0    0  501 -0.00000000000E+00 -0.00000000000E+00 -0.65576231229E+03  0.65576231229E+03  0.25500000000E-02 0. -1.
    5000001    1    1    2    0    0  0.81344472676E+03 -0.23899360298E+03  0.13441461712E+03  0.87876137549E+03  0.18800000000E+03 0.  0.
   -5000001    1    1    2    0    0 -0.81344472676E+03  0.23899360298E+03  0.38124154659E+03  0.94841941281E+03  0.18800000000E+03 0.  0.
<mgrwt>
<rscale>  0 0.17529085E+04</rscale>
<asrwt>0</asrwt>
<pdfrwt beam="1">  1        2 0.16734550E+00 0.17529085E+04</pdfrwt>
<pdfrwt beam="2">  1       -2 0.93680331E-01 0.17529085E+04</pdfrwt>
<totfact> 0.20314685E+01</totfact>
</mgrwt>
</event>
<event>
 4    1  0.5917727E-005  0.7027844E+03  0.7818608E-02  0.9712482E-01
          2   -1    0    0  501    0  0.00000000000E+00  0.00000000000E+00  0.12442539562E+04  0.12442539562E+04  0.25500000000E-02 0.  1.
         -2   -1    0    0    0  501 -0.00000000000E+00 -0.00000000000E+00 -0.99237357551E+02  0.99237357584E+02  0.25500000000E-02 0. -1.
    5000001    1    1    2    0    0  0.24822840640E+03 -0.22765250855E+02  0.26427941048E+03  0.40905159234E+03  0.18800000000E+03 0.  0.
   -5000001    1    1    2    0    0 -0.24822840640E+03  0.22765250855E+02  0.88073718813E+03  0.93443972141E+03  0.18800000000E+03 0.  0.
<mgrwt>
<rscale>  0 0.70278439E+03</rscale>
<asrwt>0</asrwt>
<pdfrwt beam="1">  1        2 0.17775055E+00 0.70278439E+03</pdfrwt>
<pdfrwt beam="2">  1       -2 0.14176767E-01 0.70278439E+03</pdfrwt>
<totfact> 0.78288163E+02</totfact>
</mgrwt>
</event>
<event>
 4    1  0.5917727E-005  0.1281597E+04  0.7818608E-02  0.9044288E-01
          2   -1    0    0  501    0  0.00000000000E+00  0.00000000000E+00  0.21554797893E+04  0.21554797893E+04  0.25500000000E-02 0.  1.
         -2   -1    0    0    0  501 -0.00000000000E+00 -0.00000000000E+00 -0.19050172100E+03  0.19050172102E+03  0.25500000000E-02 0. -1.
    5000001    1    1    2    0    0 -0.58116660877E+03  0.14014252546E+03  0.12272860712E+04  0.13780310791E+04  0.18800000000E+03 0.  0.
   -5000001    1    1    2    0    0  0.58116660877E+03 -0.14014252546E+03  0.73769199716E+03  0.96795043120E+03  0.18800000000E+03 0.  0.
<mgrwt>
<rscale>  0 0.12815968E+04</rscale>
<asrwt>0</asrwt>
<pdfrwt beam="1">  1        2 0.30792568E+00 0.12815968E+04</pdfrwt>
<pdfrwt beam="2">  1       -2 0.27214532E-01 0.12815968E+04</pdfrwt>
<totfact> 0.80516645E+01</totfact>
</mgrwt>
</event>
<event>
 4    1  0.5917727E-005  0.5039303E+03  0.7818608E-02  0.1012758E+00
          2   -1    0    0  501    0  0.00000000000E+00  0.00000000000E+00  0.20421142114E+04  0.20421142114E+04  0.25500000000E-02 0.  1.
         -2   -1    0    0    0  501 -0.00000000000E+00 -0.00000000000E+00 -0.31088582928E+02  0.31088583032E+02  0.25500000000E-02 0. -1.
    5000001    1    1    2    0    0 -0.17519050223E+02 -0.16659220739E+03  0.96813217021E+03  0.10003418314E+04  0.18800000000E+03 0.  0.
   -5000001    1    1    2    0    0  0.17519050223E+02  0.16659220739E+03  0.10428934582E+04  0.10728609630E+04  0.18800000000E+03 0.  0.
<mgrwt>
<rscale>  0 0.50393030E+03</rscale>
<asrwt>0</asrwt>
<pdfrwt beam="1">  1        2 0.29173060E+00 0.50393030E+03</pdfrwt>
<pdfrwt beam="2">  1       -2 0.44412262E-02 0.50393030E+03</pdfrwt>
<totfact> 0.19525765E+03</totfact>
</mgrwt>
</event>
<event>
 4    1  0.5917727E-005  0.6263295E+03  0.7818608E-02  0.9852238E-01
         -2   -1    0    0    0  501 -0.00000000000E+00  0.00000000000E+00  0.24323172744E+02  0.24323172877E+02  0.25500000000E-02 0. -1.
          2   -1    0    0  501    0  0.00000000000E+00 -0.00000000000E+00 -0.40320466268E+04  0.40320466268E+04  0.25500000000E-02 0.  1.
    5000001    1    1    2    0    0  0.16306399042E+02 -0.24766305625E+03 -0.22211142001E+04  0.22428319549E+04  0.18800000000E+03 0.  0.
   -5000001    1    1    2    0    0 -0.16306399042E+02  0.24766305625E+03 -0.17866092539E+04  0.18135378448E+04  0.18800000000E+03 0.  0.
<mgrwt>
<rscale>  0 0.62632952E+03</rscale>
<asrwt>0</asrwt>
<pdfrwt beam="1">  1        2 0.57600623E+00 0.62632952E+03</pdfrwt>
<pdfrwt beam="2">  1       -2 0.34747416E-02 0.62632952E+03</pdfrwt>
<totfact> 0.21701957E+02</totfact>
</mgrwt>
</event>
<event>
 4    1  0.5917727E-005  0.5814799E+03  0.7818608E-02  0.9944592E-01
          2   -1    0    0  501    0  0.00000000000E+00  0.00000000000E+00  0.15560014377E+03  0.15560014379E+03  0.25500000000E-02 0.  1.
         -2   -1    0    0    0  501 -0.00000000000E+00 -0.00000000000E+00 -0.54324962868E+03  0.54324962869E+03  0.25500000000E-02 0. -1.
    5000001    1    1    2    0    0  0.14449399929E+03  0.13692368396E+03 -0.31133014360E+03  0.41460471461E+03  0.18800000000E+03 0.  0.
   -5000001    1    1    2    0    0 -0.14449399929E+03 -0.13692368396E+03 -0.76319341312E+02  0.28424505786E+03  0.18800000000E+03 0.  0.
<mgrwt>
<rscale>  0 0.58147991E+03</rscale>
<asrwt>0</asrwt>
<pdfrwt beam="1">  1        2 0.22228592E-01 0.58147991E+03</pdfrwt>
<pdfrwt beam="2">  1       -2 0.77607089E-01 0.58147991E+03</pdfrwt>
<totfact> 0.37525117E+02</totfact>
</mgrwt>
</event>
<event>
 4    1  0.5917727E-005  0.6765683E+03  0.7818608E-02  0.9758164E-01
          2   -1    0    0  501    0  0.00000000000E+00  0.00000000000E+00  0.32714535495E+04  0.32714535495E+04  0.25500000000E-02 0.  1.
         -2   -1    0    0    0  501 -0.00000000000E+00 -0.00000000000E+00 -0.34980218293E+02  0.34980218386E+02  0.25500000000E-02 0. -1.
    5000001    1    1    2    0    0 -0.28263037819E+02  0.12737991571E+03  0.40070271202E+03  0.46144458568E+03  0.18800000000E+03 0.  0.
   -5000001    1    1    2    0    0  0.28263037819E+02 -0.12737991571E+03  0.28357706191E+04  0.28449891822E+04  0.18800000000E+03 0.  0.
<mgrwt>
<rscale>  0 0.67656828E+03</rscale>
<asrwt>0</asrwt>
<pdfrwt beam="1">  1        2 0.46735041E+00 0.67656828E+03</pdfrwt>
<pdfrwt beam="2">  1       -2 0.49971751E-02 0.67656828E+03</pdfrwt>
<totfact> 0.36290560E+02</totfact>
</mgrwt>
</event>
<event>
 4    1  0.5917727E-005  0.5801078E+03  0.7818608E-02  0.9947558E-01
         -2   -1    0    0    0  501 -0.00000000000E+00  0.00000000000E+00  0.78070686946E+02  0.78070686988E+02  0.25500000000E-02 0. -1.
          2   -1    0    0  501    0  0.00000000000E+00 -0.00000000000E+00 -0.10776293327E+04  0.10776293327E+04  0.25500000000E-02 0.  1.
    5000001    1    1    2    0    0  0.14110698573E+03 -0.10539566526E+03 -0.76533382836E+03  0.80752665375E+03  0.18800000000E+03 0.  0.
   -5000001    1    1    2    0    0 -0.14110698573E+03  0.10539566526E+03 -0.23422481743E+03  0.34817336598E+03  0.18800000000E+03 0.  0.
<mgrwt>
<rscale>  0 0.58010779E+03</rscale>
<asrwt>0</asrwt>
<pdfrwt beam="1">  1        2 0.15394704E+00 0.58010779E+03</pdfrwt>
<pdfrwt beam="2">  1       -2 0.11152956E-01 0.58010779E+03</pdfrwt>
<totfact> 0.14548040E+03</totfact>
</mgrwt>
</event>
<event>
 4    1  0.5917727E-005  0.5314211E+03  0.7818608E-02  0.1005888E+00
          2   -1    0    0  501    0  0.00000000000E+00  0.00000000000E+00  0.66538018906E+02  0.66538018955E+02  0.25500000000E-02 0.  1.
         -2   -1    0    0    0  501 -0.00000000000E+00 -0.00000000000E+00 -0.10610791322E+04  0.10610791322E+04  0.25500000000E-02 0. -1.
    5000001    1    1    2    0    0  0.17418615298E+02 -0.68101900738E+02 -0.12781285399E+03  0.23795252192E+03  0.18800000000E+03 0.  0.
   -5000001    1    1    2    0    0 -0.17418615298E+02  0.68101900738E+02 -0.86672825934E+03  0.88966462928E+03  0.18800000000E+03 0.  0.
<mgrwt>
<rscale>  0 0.53142113E+03</rscale>
<asrwt>0</asrwt>
<pdfrwt beam="1">  1        2 0.95054319E-02 0.53142113E+03</pdfrwt>
<pdfrwt beam="2">  1       -2 0.15158272E+00 0.53142113E+03</pdfrwt>
<totfact> 0.21019993E+02</totfact>
</mgrwt>
</event>
<event>
 4    1  0.5917727E-005  0.6669889E+03  0.7818608E-02  0.9775413E-01
         -2   -1    0    0    0  501 -0.00000000000E+00  0.00000000000E+00  0.46783356375E+03  0.46783356376E+03  0.25500000000E-02 0. -1.
          2   -1    0    0  501    0  0.00000000000E+00 -0.00000000000E+00 -0.23773100613E+03  0.23773100615E+03  0.25500000000E-02 0.  1.
    5000001    1    1    2    0    0 -0.26144082496E+03 -0.79621137203E+02  0.78656302259E+02  0.34091295712E+03  0.18800000000E+03 0.  0.
   -5000001    1    1    2    0    0  0.26144082496E+03  0.79621137203E+02  0.15144625536E+03  0.36465161279E+03  0.18800000000E+03 0.  0.
<mgrwt>
<rscale>  0 0.66698889E+03</rscale>
<asrwt>0</asrwt>
<pdfrwt beam="1">  1        2 0.33961573E-01 0.66698889E+03</pdfrwt>
<pdfrwt beam="2">  1       -2 0.66833365E-01 0.66698889E+03</pdfrwt>
<totfact> 0.32108101E+02</totfact>
</mgrwt>
</event>
<event>
 4    1  0.5917727E-005  0.5916251E+03  0.7818608E-02  0.9922935E-01
         -2   -1    0    0    0  501 -0.00000000000E+00  0.00000000000E+00  0.30034422281E+02  0.30034422389E+02  0.25500000000E-02 0. -1.
          2   -1    0    0  501    0  0.00000000000E+00 -0.00000000000E+00 -0.29134921950E+04  0.29134921950E+04  0.25500000000E-02 0.  1.
    5000001    1    1    2    0    0 -0.18900233114E+03 -0.76685974439E+02 -0.19529645942E+04  0.19725661778E+04  0.18800000000E+03 0.  0.
   -5000001    1    1    2    0    0  0.18900233114E+03  0.76685974439E+02 -0.93049317851E+03  0.97096043952E+03  0.18800000000E+03 0.  0.
<mgrwt>
<rscale>  0 0.59162507E+03</rscale>
<asrwt>0</asrwt>
<pdfrwt beam="1">  1        2 0.41621299E+00 0.59162507E+03</pdfrwt>
<pdfrwt beam="2">  1       -2 0.42906336E-02 0.59162507E+03</pdfrwt>
<totfact> 0.73094299E+02</totfact>
</mgrwt>
</event>
<event>
 4    1  0.5917727E-005  0.5634750E+03  0.7818608E-02  0.9984222E-01
         -2   -1    0    0    0  501 -0.00000000000E+00  0.00000000000E+00  0.15640184909E+03  0.15640184911E+03  0.25500000000E-02 0. -1.
          2   -1    0    0  501    0  0.00000000000E+00 -0.00000000000E+00 -0.50751334812E+03  0.50751334813E+03  0.25500000000E-02 0.  1.
    5000001    1    1    2    0    0  0.18586334168E+03 -0.27283072105E+02 -0.28572368709E+03  0.39021990361E+03  0.18800000000E+03 0.  0.
   -5000001    1    1    2    0    0 -0.18586334168E+03  0.27283072105E+02 -0.65387811945E+02  0.27369529363E+03  0.18800000000E+03 0.  0.
<mgrwt>
<rscale>  0 0.56347503E+03</rscale>
<asrwt>0</asrwt>
<pdfrwt beam="1">  1        2 0.72501906E-01 0.56347503E+03</pdfrwt>
<pdfrwt beam="2">  1       -2 0.22343121E-01 0.56347503E+03</pdfrwt>
<totfact> 0.11584438E+03</totfact>
</mgrwt>
</event>
<event>
 4    1  0.5917727E-005  0.1124150E+04  0.7818608E-02  0.9181968E-01
          2   -1    0    0  501    0  0.00000000000E+00  0.00000000000E+00  0.10377355505E+04  0.10377355505E+04  0.25500000000E-02 0.  1.
         -2   -1    0    0    0  501 -0.00000000000E+00 -0.00000000000E+00 -0.30444003072E+03  0.30444003073E+03  0.25500000000E-02 0. -1.
    5000001    1    1    2    0    0 -0.24886236168E+03  0.43685064571E+03  0.16752943748E+03  0.56229980805E+03  0.18800000000E+03 0.  0.
   -5000001    1    1    2    0    0  0.24886236168E+03 -0.43685064571E+03  0.56576608234E+03  0.77987577321E+03  0.18800000000E+03 0.  0.
<mgrwt>
<rscale>  0 0.11241499E+04</rscale>
<asrwt>0</asrwt>
<pdfrwt beam="1">  1        2 0.14824794E+00 0.11241499E+04</pdfrwt>
<pdfrwt beam="2">  1       -2 0.43491433E-01 0.11241499E+04</pdfrwt>
<totfact> 0.13223841E+02</totfact>
</mgrwt>
</event>
<event>
 4    1  0.5917727E-005  0.7371044E+03  0.7818608E-02  0.9655802E-01
          2   -1    0    0  501    0  0.00000000000E+00  0.00000000000E+00  0.14034858965E+04  0.14034858965E+04  0.25500000000E-02 0.  1.
         -2   -1    0    0    0  501 -0.00000000000E+00 -0.00000000000E+00 -0.96780964316E+02  0.96780964350E+02  0.25500000000E-02 0. -1.
    5000001    1    1    2    0    0  0.23186740552E+03  0.13532039800E+03  0.31027268667E+03  0.45131723206E+03  0.18800000000E+03 0.  0.
   -5000001    1    1    2    0    0 -0.23186740552E+03 -0.13532039800E+03  0.99643224548E+03  0.10489496288E+04  0.18800000000E+03 0.  0.
<mgrwt>
<rscale>  0 0.73710438E+03</rscale>
<asrwt>0</asrwt>
<pdfrwt beam="1">  1        2 0.20049797E+00 0.73710438E+03</pdfrwt>
<pdfrwt beam="2">  1       -2 0.13825853E-01 0.73710438E+03</pdfrwt>
<totfact> 0.66781311E+02</totfact>
</mgrwt>
</event>
<event>
 4    1  0.5917727E-005  0.9453657E+03  0.7818608E-02  0.9370584E-01
          2   -1    0    0  501    0  0.00000000000E+00  0.00000000000E+00  0.85855414959E+03  0.85855414960E+03  0.25500000000E-02 0.  1.
         -2   -1    0    0    0  501 -0.00000000000E+00 -0.00000000000E+00 -0.26023879783E+03  0.26023879784E+03  0.25500000000E-02 0. -1.
    5000001    1    1    2    0    0  0.34502266079E+03  0.33542806816E+02  0.60758056141E+03  0.72433686565E+03  0.18800000000E+03 0.  0.
   -5000001    1    1    2    0    0 -0.34502266079E+03 -0.33542806816E+02 -0.92652096357E+01  0.39445608178E+03  0.18800000000E+03 0.  0.
<mgrwt>
<rscale>  0 0.94536575E+03</rscale>
<asrwt>0</asrwt>
<pdfrwt beam="1">  1        2 0.12265059E+00 0.94536575E+03</pdfrwt>
<pdfrwt beam="2">  1       -2 0.37176971E-01 0.94536575E+03</pdfrwt>
<totfact> 0.23604607E+02</totfact>
</mgrwt>
</event>
<event>
 4    1  0.5917727E-005  0.4300313E+03  0.7818608E-02  0.1033850E+00
         -2   -1    0    0    0  501 -0.00000000000E+00  0.00000000000E+00  0.13272114490E+03  0.13272114493E+03  0.25500000000E-02 0. -1.
          2   -1    0    0  501    0  0.00000000000E+00 -0.00000000000E+00 -0.34833741247E+03  0.34833741248E+03  0.25500000000E-02 0.  1.
    5000001    1    1    2    0    0  0.57727091974E+02 -0.74020356930E+02 -0.15878156951E+03  0.26337618952E+03  0.18800000000E+03 0.  0.
   -5000001    1    1    2    0    0 -0.57727091974E+02  0.74020356930E+02 -0.56834698054E+02  0.21768236789E+03  0.18800000000E+03 0.  0.
<mgrwt>
<rscale>  0 0.43003135E+03</rscale>
<asrwt>0</asrwt>
<pdfrwt beam="1">  1        2 0.49762487E-01 0.43003135E+03</pdfrwt>
<pdfrwt beam="2">  1       -2 0.18960164E-01 0.43003135E+03</pdfrwt>
<totfact> 0.23392613E+03</totfact>
</mgrwt>
</event>
<event>
 4    1  0.5917727E-005  0.5981668E+03  0.7818608E-02  0.9909217E-01
         -2   -1    0    0    0  501 -0.00000000000E+00  0.00000000000E+00  0.13529585336E+03  0.13529585338E+03  0.25500000000E-02 0. -1.
          2   -1    0    0  501    0  0.00000000000E+00 -0.00000000000E+00 -0.66115021284E+03  0.66115021284E+03  0.25500000000E-02 0.  1.
    5000001    1    1    2    0    0 -0.21772143019E+03 -0.57939873009E+02 -0.33996021009E+03  0.44908417306E+03  0.18800000000E+03 0.  0.
   -5000001    1    1    2    0    0  0.21772143019E+03  0.57939873009E+02 -0.18589414939E+03  0.34736189317E+03  0.18800000000E+03 0.  0.
<mgrwt>
<rscale>  0 0.59816681E+03</rscale>
<asrwt>0</asrwt>
<pdfrwt beam="1">  1        2 0.94450029E-01 0.59816681E+03</pdfrwt>
<pdfrwt beam="2">  1       -2 0.19327979E-01 0.59816681E+03</pdfrwt>
<totfact> 0.10957091E+03</totfact>
</mgrwt>
</event>
<event>
 4    1  0.5917727E-005  0.4137917E+03  0.7818608E-02  0.1039106E+00
         -2   -1    0    0    0  501 -0.00000000000E+00  0.00000000000E+00  0.76267794572E+02  0.76267794614E+02  0.25500000000E-02 0. -1.
          2   -1    0    0  501    0  0.00000000000E+00 -0.00000000000E+00 -0.56125774896E+03  0.56125774897E+03  0.25500000000E-02 0.  1.
    5000001    1    1    2    0    0  0.56481790111E+02  0.23119563056E+02 -0.33668134742E+03  0.39041392970E+03  0.18800000000E+03 0.  0.
   -5000001    1    1    2    0    0 -0.56481790111E+02 -0.23119563056E+02 -0.14830860698E+03  0.24711161388E+03  0.18800000000E+03 0.  0.
<mgrwt>
<rscale>  0 0.41379169E+03</rscale>
<asrwt>0</asrwt>
<pdfrwt beam="1">  1        2 0.80179676E-01 0.41379169E+03</pdfrwt>
<pdfrwt beam="2">  1       -2 0.10895400E-01 0.41379169E+03</pdfrwt>
<totfact> 0.34582411E+03</totfact>
</mgrwt>
</event>
<event>
 4    1  0.5917727E-005  0.1005653E+04  0.7818608E-02  0.9302366E-01
          2   -1    0    0  501    0  0.00000000000E+00  0.00000000000E+00  0.11115146394E+04  0.11115146394E+04  0.25500000000E-02 0.  1.
         -2   -1    0    0    0  501 -0.00000000000E+00 -0.00000000000E+00 -0.22746857253E+03  0.22746857255E+03  0.25500000000E-02 0. -1.
    5000001    1    1    2    0    0  0.81503737057E+02 -0.21405222409E+03 -0.98865216977E+02  0.31237724776E+03  0.18800000000E+03 0.  0.
   -5000001    1    1    2    0    0 -0.81503737057E+02  0.21405222409E+03  0.98291128384E+03  0.10266059642E+04  0.18800000000E+03 0.  0.
<mgrwt>
<rscale>  0 0.10056533E+04</rscale>
<asrwt>0</asrwt>
<pdfrwt beam="1">  1        2 0.15878781E+00 0.10056533E+04</pdfrwt>
<pdfrwt beam="2">  1       -2 0.32495510E-01 0.10056533E+04</pdfrwt>
<totfact> 0.21129201E+02</totfact>
</mgrwt>
</event>
<event>
 4    1  0.5917727E-005  0.7445827E+03  0.7818608E-02  0.9643888E-01
         -2   -1    0    0    0  501 -0.00000000000E+00  0.00000000000E+00  0.67540167470E+02  0.67540167518E+02  0.25500000000E-02 0. -1.
          2   -1    0    0  501    0  0.00000000000E+00 -0.00000000000E+00 -0.20521245243E+04  0.20521245243E+04  0.25500000000E-02 0.  1.
    5000001    1    1    2    0    0  0.16914174491E+03 -0.24885979995E+03 -0.13133191579E+04  0.13604011689E+04  0.18800000000E+03 0.  0.
   -5000001    1    1    2    0    0 -0.16914174491E+03  0.24885979995E+03 -0.67126519892E+03  0.75926352288E+03  0.18800000000E+03 0.  0.
<mgrwt>
<rscale>  0 0.74458266E+03</rscale>
<asrwt>0</asrwt>
<pdfrwt beam="1">  1        2 0.29316061E+00 0.74458266E+03</pdfrwt>
<pdfrwt beam="2">  1       -2 0.96485966E-02 0.74458266E+03</pdfrwt>
<totfact> 0.56038621E+02</totfact>
</mgrwt>
</event>
<event>
 4    1  0.5917727E-005  0.6093260E+03  0.7818608E-02  0.9886244E-01
         -2   -1    0    0    0  501 -0.00000000000E+00  0.00000000000E+00  0.37534081410E+02  0.37534081496E+02  0.25500000000E-02 0. -1.
          2   -1    0    0  501    0  0.00000000000E+00 -0.00000000000E+00 -0.24729402037E+04  0.24729402037E+04  0.25500000000E-02 0.  1.
    5000001    1    1    2    0    0  0.19062405264E+03  0.10225903556E+03 -0.79189482938E+03  0.84216142193E+03  0.18800000000E+03 0.  0.
   -5000001    1    1    2    0    0 -0.19062405264E+03 -0.10225903556E+03 -0.16435112929E+04  0.16683128633E+04  0.18800000000E+03 0.  0.
<mgrwt>
<rscale>  0 0.60932599E+03</rscale>
<asrwt>0</asrwt>
<pdfrwt beam="1">  1        2 0.35327707E+00 0.60932599E+03</pdfrwt>
<pdfrwt beam="2">  1       -2 0.53620132E-02 0.60932599E+03</pdfrwt>
<totfact> 0.87899382E+02</totfact>
</mgrwt>
</event>
<event>
 4    1  0.5917727E-005  0.4607321E+03  0.7818608E-02  0.1024569E+00
          2   -1    0    0  501    0  0.00000000000E+00  0.00000000000E+00  0.13730946795E+03  0.13730946797E+03  0.25500000000E-02 0.  1.
         -2   -1    0    0    0  501 -0.00000000000E+00 -0.00000000000E+00 -0.38648846810E+03  0.38648846810E+03  0.25500000000E-02 0. -1.
    5000001    1    1    2    0    0 -0.95289221372E+02  0.84483055672E+02 -0.80454125395E+02  0.24090306909E+03  0.18800000000E+03 0.  0.
   -5000001    1    1    2    0    0  0.95289221372E+02 -0.84483055672E+02 -0.16872487475E+03  0.28289486698E+03  0.18800000000E+03 0.  0.
<mgrwt>
<rscale>  0 0.46073214E+03</rscale>
<asrwt>0</asrwt>
<pdfrwt beam="1">  1        2 0.19615638E-01 0.46073214E+03</pdfrwt>
<pdfrwt beam="2">  1       -2 0.55212638E-01 0.46073214E+03</pdfrwt>
<totfact> 0.89910415E+02</totfact>
</mgrwt>
</event>
<event>
 4    1  0.5917727E-005  0.1213551E+04  0.7818608E-02  0.9101077E-01
         -2   -1    0    0    0  501 -0.00000000000E+00  0.00000000000E+00  0.29729640173E+03  0.29729640174E+03  0.25500000000E-02 0. -1.
          2   -1    0    0  501    0  0.00000000000E+00 -0.00000000000E+00 -0.12384165854E+04  0.12384165854E+04  0.25500000000E-02 0.  1.
    5000001    1    1    2    0    0 -0.55237173790E+03  0.16635548931E+03 -0.47896466358E+03  0.77300700813E+03  0.18800000000E+03 0.  0.
   -5000001    1    1    2    0    0  0.55237173790E+03 -0.16635548931E+03 -0.46215552005E+03  0.76270597898E+03  0.18800000000E+03 0.  0.
<mgrwt>
<rscale>  0 0.12135515E+04</rscale>
<asrwt>0</asrwt>
<pdfrwt beam="1">  1        2 0.17691665E+00 0.12135515E+04</pdfrwt>
<pdfrwt beam="2">  1       -2 0.42470915E-01 0.12135515E+04</pdfrwt>
<totfact> 0.10524691E+02</totfact>
</mgrwt>
</event>
<event>
 4    1  0.5917727E-005  0.1074644E+04  0.7818608E-02  0.9230264E-01
         -2   -1    0    0    0  501 -0.00000000000E+00  0.00000000000E+00  0.24328977766E+03  0.24328977767E+03  0.25500000000E-02 0. -1.
          2   -1    0    0  501    0  0.00000000000E+00 -0.00000000000E+00 -0.11867115726E+04  0.11867115726E+04  0.25500000000E-02 0.  1.
    5000001    1    1    2    0    0 -0.30455390147E+03 -0.19006596056E+03 -0.22020486073E+01  0.40524930263E+03  0.18800000000E+03 0.  0.
   -5000001    1    1    2    0    0  0.30455390147E+03  0.19006596056E+03 -0.94121974638E+03  0.10247520477E+04  0.18800000000E+03 0.  0.
<mgrwt>
<rscale>  0 0.10746437E+04</rscale>
<asrwt>0</asrwt>
<pdfrwt beam="1">  1        2 0.16953022E+00 0.10746437E+04</pdfrwt>
<pdfrwt beam="2">  1       -2 0.34755683E-01 0.10746437E+04</pdfrwt>
<totfact> 0.16758992E+02</totfact>
</mgrwt>
</event>
<event>
 4    1  0.5917727E-005  0.1353808E+04  0.7818608E-02  0.8987950E-01
          2   -1    0    0  501    0  0.00000000000E+00  0.00000000000E+00  0.25165852107E+03  0.25165852108E+03  0.25500000000E-02 0.  1.
         -2   -1    0    0    0  501 -0.00000000000E+00 -0.00000000000E+00 -0.18207180246E+04  0.18207180246E+04  0.25500000000E-02 0. -1.
    5000001    1    1    2    0    0  0.28394377901E+03 -0.55524801588E+03 -0.10665033244E+04  0.12496790667E+04  0.18800000000E+03 0.  0.
   -5000001    1    1    2    0    0 -0.28394377901E+03  0.55524801588E+03 -0.50255617918E+03  0.82269747903E+03  0.18800000000E+03 0.  0.
<mgrwt>
<rscale>  0 0.13538083E+04</rscale>
<asrwt>0</asrwt>
<pdfrwt beam="1">  1        2 0.35951218E-01 0.13538083E+04</pdfrwt>
<pdfrwt beam="2">  1       -2 0.26010257E+00 0.13538083E+04</pdfrwt>
<totfact> 0.79277566E+00</totfact>
</mgrwt>
</event>
<event>
 4    1  0.5917727E-005  0.6516346E+03  0.7818608E-02  0.9803717E-01
         -2   -1    0    0    0  501 -0.00000000000E+00  0.00000000000E+00  0.34055503603E+03  0.34055503604E+03  0.25500000000E-02 0. -1.
          2   -1    0    0  501    0  0.00000000000E+00 -0.00000000000E+00 -0.31171734038E+03  0.31171734039E+03  0.25500000000E-02 0.  1.
    5000001    1    1    2    0    0 -0.13954746587E+03 -0.17610127795E+03 -0.12829613277E+03  0.31982659835E+03  0.18800000000E+03 0.  0.
   -5000001    1    1    2    0    0  0.13954746587E+03  0.17610127795E+03  0.15713382842E+03  0.33244577808E+03  0.18800000000E+03 0.  0.
<mgrwt>
<rscale>  0 0.65163459E+03</rscale>
<asrwt>0</asrwt>
<pdfrwt beam="1">  1        2 0.44531049E-01 0.65163459E+03</pdfrwt>
<pdfrwt beam="2">  1       -2 0.48650719E-01 0.65163459E+03</pdfrwt>
<totfact> 0.46089433E+02</totfact>
</mgrwt>
</event>
<event>
 4    1  0.5917727E-005  0.6776086E+03  0.7818608E-02  0.9756310E-01
         -2   -1    0    0    0  501 -0.00000000000E+00  0.00000000000E+00  0.23595184296E+03  0.23595184297E+03  0.25500000000E-02 0. -1.
          2   -1    0    0  501    0  0.00000000000E+00 -0.00000000000E+00 -0.48649058219E+03  0.48649058219E+03  0.25500000000E-02 0.  1.
    5000001    1    1    2    0    0  0.63980390985E+02  0.21598696392E+03  0.55351945313E+02  0.29858281408E+03  0.18800000000E+03 0.  0.
   -5000001    1    1    2    0    0 -0.63980390985E+02 -0.21598696392E+03 -0.30589068454E+03  0.42385961108E+03  0.18800000000E+03 0.  0.
<mgrwt>
<rscale>  0 0.67760859E+03</rscale>
<asrwt>0</asrwt>
<pdfrwt beam="1">  1        2 0.69498654E-01 0.67760859E+03</pdfrwt>
<pdfrwt beam="2">  1       -2 0.33707406E-01 0.67760859E+03</pdfrwt>
<totfact> 0.57330409E+02</totfact>
</mgrwt>
</event>
<event>
 4    1  0.5917727E-005  0.8940382E+03  0.7818608E-02  0.9433065E-01
          2   -1    0    0  501    0  0.00000000000E+00  0.00000000000E+00  0.15689075470E+04  0.15689075470E+04  0.25500000000E-02 0.  1.
         -2   -1    0    0    0  501 -0.00000000000E+00 -0.00000000000E+00 -0.12736637471E+03  0.12736637473E+03  0.25500000000E-02 0. -1.
    5000001    1    1    2    0    0  0.22804909852E+03 -0.19869675756E+03  0.12333808417E+04  0.12837675387E+04  0.18800000000E+03 0.  0.
   -5000001    1    1    2    0    0 -0.22804909852E+03  0.19869675756E+03  0.20816033061E+03  0.41250638303E+03  0.18800000000E+03 0.  0.
<mgrwt>
<rscale>  0 0.89403818E+03</rscale>
<asrwt>0</asrwt>
<pdfrwt beam="1">  1        2 0.22412965E+00 0.89403818E+03</pdfrwt>
<pdfrwt beam="2">  1       -2 0.18195196E-01 0.89403818E+03</pdfrwt>
<totfact> 0.33934231E+02</totfact>
</mgrwt>
</event>
<event>
 4    1  0.5917727E-005  0.5633047E+03  0.7818608E-02  0.9984605E-01
          2   -1    0    0  501    0  0.00000000000E+00  0.00000000000E+00  0.52170918446E+03  0.52170918447E+03  0.25500000000E-02 0.  1.
         -2   -1    0    0    0  501 -0.00000000000E+00 -0.00000000000E+00 -0.15205413396E+03  0.15205413399E+03  0.25500000000E-02 0. -1.
    5000001    1    1    2    0    0 -0.19700506120E+03 -0.64917797160E+02  0.22186238835E+03  0.35720055136E+03  0.18800000000E+03 0.  0.
   -5000001    1    1    2    0    0  0.19700506120E+03  0.64917797160E+02  0.14779266214E+03  0.31656276709E+03  0.18800000000E+03 0.  0.
<mgrwt>
<rscale>  0 0.56330467E+03</rscale>
<asrwt>0</asrwt>
<pdfrwt beam="1">  1        2 0.74529884E-01 0.56330467E+03</pdfrwt>
<pdfrwt beam="2">  1       -2 0.21722019E-01 0.56330467E+03</pdfrwt>
<totfact> 0.11797141E+03</totfact>
</mgrwt>
</event>
<event>
 4    1  0.5917727E-005  0.1719425E+04  0.7818608E-02  0.8750362E-01
         -2   -1    0    0    0  501 -0.00000000000E+00  0.00000000000E+00  0.24559095748E+03  0.24559095749E+03  0.25500000000E-02 0. -1.
          2   -1    0    0  501    0  0.00000000000E+00 -0.00000000000E+00 -0.30094989089E+04  0.30094989089E+04  0.25500000000E-02 0.  1.
    5000001    1    1    2    0    0  0.78082223093E+03  0.27807657810E+03 -0.16269788491E+04  0.18355963922E+04  0.18800000000E+03 0.  0.
   -5000001    1    1    2    0    0 -0.78082223093E+03 -0.27807657810E+03 -0.11369291024E+04  0.14194934742E+04  0.18800000000E+03 0.  0.
<mgrwt>
<rscale>  0 0.17194252E+04</rscale>
<asrwt>0</asrwt>
<pdfrwt beam="1">  1        2 0.42992839E+00 0.17194252E+04</pdfrwt>
<pdfrwt beam="2">  1       -2 0.35084424E-01 0.17194252E+04</pdfrwt>
<totfact> 0.16967937E+01</totfact>
</mgrwt>
</event>
<event>
 4    1  0.5917727E-005  0.1446832E+04  0.7818608E-02  0.8920600E-01
          2   -1    0    0  501    0  0.00000000000E+00  0.00000000000E+00  0.25318325938E+04  0.25318325938E+04  0.25500000000E-02 0.  1.
         -2   -1    0    0    0  501 -0.00000000000E+00 -0.00000000000E+00 -0.20670045283E+03  0.20670045285E+03  0.25500000000E-02 0. -1.
    5000001    1    1    2    0    0 -0.49134251155E+03 -0.25230410058E+03  0.35305829281E+03  0.68195966225E+03  0.18800000000E+03 0.  0.
   -5000001    1    1    2    0    0  0.49134251155E+03  0.25230410058E+03  0.19720738482E+04  0.20565733844E+04  0.18800000000E+03 0.  0.
<mgrwt>
<rscale>  0 0.14468323E+04</rscale>
<asrwt>0</asrwt>
<pdfrwt beam="1">  1        2 0.36169035E+00 0.14468323E+04</pdfrwt>
<pdfrwt beam="2">  1       -2 0.29528638E-01 0.14468323E+04</pdfrwt>
<totfact> 0.43586872E+01</totfact>
</mgrwt>
</event>
<event>
 4    1  0.5917727E-005  0.5700030E+03  0.7818608E-02  0.9969672E-01
          2   -1    0    0  501    0  0.00000000000E+00  0.00000000000E+00  0.46744180033E+02  0.46744180102E+02  0.25500000000E-02 0.  1.
         -2   -1    0    0    0  501 -0.00000000000E+00 -0.00000000000E+00 -0.17376679916E+04  0.17376679916E+04  0.25500000000E-02 0. -1.
    5000001    1    1    2    0    0 -0.64337730060E+02 -0.11413866966E+03 -0.13759450100E+04  0.13948962865E+04  0.18800000000E+03 0.  0.
   -5000001    1    1    2    0    0  0.64337730060E+02  0.11413866966E+03 -0.31497880155E+03  0.38951588523E+03  0.18800000000E+03 0.  0.
<mgrwt>
<rscale>  0 0.57000304E+03</rscale>
<asrwt>0</asrwt>
<pdfrwt beam="1">  1        2 0.66777411E-02 0.57000304E+03</pdfrwt>
<pdfrwt beam="2">  1       -2 0.24823824E+00 0.57000304E+03</pdfrwt>
<totfact> 0.77023897E+01</totfact>
</mgrwt>
</event>
<event>
 4    1  0.5917727E-005  0.7331957E+03  0.7818608E-02  0.9662089E-01
          2   -1    0    0  501    0  0.00000000000E+00  0.00000000000E+00  0.81442735724E+03  0.81442735725E+03  0.25500000000E-02 0.  1.
         -2   -1    0    0    0  501 -0.00000000000E+00 -0.00000000000E+00 -0.16501654131E+03  0.16501654133E+03  0.25500000000E-02 0. -1.
    5000001    1    1    2    0    0  0.29840230096E+03  0.73155965813E+02  0.23357048363E+03  0.42929581803E+03  0.18800000000E+03 0.  0.
   -5000001    1    1    2    0    0 -0.29840230096E+03 -0.73155965813E+02  0.41584033231E+03  0.55014808055E+03  0.18800000000E+03 0.  0.
<mgrwt>
<rscale>  0 0.73319571E+03</rscale>
<asrwt>0</asrwt>
<pdfrwt beam="1">  1        2 0.11634677E+00 0.73319571E+03</pdfrwt>
<pdfrwt beam="2">  1       -2 0.23573791E-01 0.73319571E+03</pdfrwt>
<totfact> 0.59378658E+02</totfact>
</mgrwt>
</event>
<event>
 4    1  0.5917727E-005  0.5834521E+03  0.7818608E-02  0.9940345E-01
         -2   -1    0    0    0  501 -0.00000000000E+00  0.00000000000E+00  0.65719795932E+02  0.65719795981E+02  0.25500000000E-02 0. -1.
          2   -1    0    0  501    0  0.00000000000E+00 -0.00000000000E+00 -0.12949535571E+04  0.12949535571E+04  0.25500000000E-02 0.  1.
    5000001    1    1    2    0    0  0.15649485776E+03 -0.15831140519E+03 -0.58106838560E+03  0.65002893032E+03  0.18800000000E+03 0.  0.
   -5000001    1    1    2    0    0 -0.15649485776E+03  0.15831140519E+03 -0.64816537561E+03  0.71064442280E+03  0.18800000000E+03 0.  0.
<mgrwt>
<rscale>  0 0.58345208E+03</rscale>
<asrwt>0</asrwt>
<pdfrwt beam="1">  1        2 0.18499335E+00 0.58345208E+03</pdfrwt>
<pdfrwt beam="2">  1       -2 0.93885431E-02 0.58345208E+03</pdfrwt>
<totfact> 0.14511584E+03</totfact>
</mgrwt>
</event>
<event>
 4    1  0.5917727E-005  0.5877015E+03  0.7818608E-02  0.9931255E-01
         -2   -1    0    0    0  501 -0.00000000000E+00  0.00000000000E+00  0.85334981646E+02  0.85334981684E+02  0.25500000000E-02 0. -1.
          2   -1    0    0  501    0  0.00000000000E+00 -0.00000000000E+00 -0.10118739947E+04  0.10118739947E+04  0.25500000000E-02 0.  1.
    5000001    1    1    2    0    0  0.65055135164E+02 -0.13407221263E+03 -0.78008331402E+03  0.81613816577E+03  0.18800000000E+03 0.  0.
   -5000001    1    1    2    0    0 -0.65055135164E+02  0.13407221263E+03 -0.14645569906E+03  0.28107081065E+03  0.18800000000E+03 0.  0.
<mgrwt>
<rscale>  0 0.58770145E+03</rscale>
<asrwt>0</asrwt>
<pdfrwt beam="1">  1        2 0.14455342E+00 0.58770145E+03</pdfrwt>
<pdfrwt beam="2">  1       -2 0.12190712E-01 0.58770145E+03</pdfrwt>
<totfact> 0.13756399E+03</totfact>
</mgrwt>
</event>
<event>
 4    1  0.5917727E-005  0.1109465E+04  0.7818608E-02  0.9196015E-01
         -2   -1    0    0    0  501 -0.00000000000E+00  0.00000000000E+00  0.23292396116E+03  0.23292396118E+03  0.25500000000E-02 0. -1.
          2   -1    0    0  501    0  0.00000000000E+00 -0.00000000000E+00 -0.13211533462E+04  0.13211533462E+04  0.25500000000E-02 0.  1.
    5000001    1    1    2    0    0  0.48337902294E+03 -0.62723638001E+01 -0.81963671413E+03  0.96997060034E+03  0.18800000000E+03 0.  0.
   -5000001    1    1    2    0    0 -0.48337902294E+03  0.62723638001E+01 -0.26859267093E+03  0.58410670707E+03  0.18800000000E+03 0.  0.
<mgrwt>
<rscale>  0 0.11094652E+04</rscale>
<asrwt>0</asrwt>
<pdfrwt beam="1">  1        2 0.18873619E+00 0.11094652E+04</pdfrwt>
<pdfrwt beam="2">  1       -2 0.33274852E-01 0.11094652E+04</pdfrwt>
<totfact> 0.15271523E+02</totfact>
</mgrwt>
</event>
<event>
 4    1  0.5917727E-005  0.9438712E+03  0.7818608E-02  0.9372343E-01
         -2   -1    0    0    0  501 -0.00000000000E+00  0.00000000000E+00  0.63601088289E+02  0.63601088340E+02  0.25500000000E-02 0. -1.
          2   -1    0    0  501    0  0.00000000000E+00 -0.00000000000E+00 -0.35018770190E+04  0.35018770190E+04  0.25500000000E-02 0.  1.
    5000001    1    1    2    0    0  0.42528885894E+03 -0.70359571052E+02 -0.18682469005E+04  0.19265283709E+04  0.18800000000E+03 0.  0.
   -5000001    1    1    2    0    0 -0.42528885894E+03  0.70359571052E+02 -0.15700290302E+04  0.16389497364E+04  0.18800000000E+03 0.  0.
<mgrwt>
<rscale>  0 0.94387116E+03</rscale>
<asrwt>0</asrwt>
<pdfrwt beam="1">  1        2 0.50026802E+00 0.94387116E+03</pdfrwt>
<pdfrwt beam="2">  1       -2 0.90858720E-02 0.94387116E+03</pdfrwt>
<totfact> 0.10010800E+02</totfact>
</mgrwt>
</event>
<event>
 4    1  0.5917727E-005  0.6687905E+03  0.7818608E-02  0.9772145E-01
          2   -1    0    0  501    0  0.00000000000E+00  0.00000000000E+00  0.54952556358E+03  0.54952556358E+03  0.25500000000E-02 0.  1.
         -2   -1    0    0    0  501 -0.00000000000E+00 -0.00000000000E+00 -0.20348498184E+03  0.20348498186E+03  0.25500000000E-02 0. -1.
    5000001    1    1    2    0    0 -0.10158228897E+02 -0.17849940172E+03  0.41056451608E+03  0.48566701339E+03  0.18800000000E+03 0.  0.
   -5000001    1    1    2    0    0  0.10158228897E+02  0.17849940172E+03 -0.64523934348E+02  0.26734353206E+03  0.18800000000E+03 0.  0.
<mgrwt>
<rscale>  0 0.66879055E+03</rscale>
<asrwt>0</asrwt>
<pdfrwt beam="1">  1        2 0.78503652E-01 0.66879055E+03</pdfrwt>
<pdfrwt beam="2">  1       -2 0.29069283E-01 0.66879055E+03</pdfrwt>
<totfact> 0.65698303E+02</totfact>
</mgrwt>
</event>
<event>
 4    1  0.5917727E-005  0.7719991E+03  0.7818608E-02  0.9601456E-01
          2   -1    0    0  501    0  0.00000000000E+00  0.00000000000E+00  0.30943081515E+03  0.30943081516E+03  0.25500000000E-02 0.  1.
         -2   -1    0    0    0  501 -0.00000000000E+00 -0.00000000000E+00 -0.48151525889E+03  0.48151525889E+03  0.25500000000E-02 0. -1.
    5000001    1    1    2    0    0 -0.13298472243E+03  0.22605454199E+03 -0.30305688057E+03  0.44268845164E+03  0.18800000000E+03 0.  0.
   -5000001    1    1    2    0    0  0.13298472243E+03 -0.22605454199E+03  0.13097243684E+03  0.34825762241E+03  0.18800000000E+03 0.  0.
<mgrwt>
<rscale>  0 0.77199912E+03</rscale>
<asrwt>0</asrwt>
<pdfrwt beam="1">  1        2 0.44204402E-01 0.77199912E+03</pdfrwt>
<pdfrwt beam="2">  1       -2 0.68787894E-01 0.77199912E+03</pdfrwt>
<totfact> 0.22427579E+02</totfact>
</mgrwt>
</event>
<event>
 4    1  0.5917727E-005  0.6521539E+03  0.7818608E-02  0.9802746E-01
         -2   -1    0    0    0  501 -0.00000000000E+00  0.00000000000E+00  0.11730047942E+03  0.11730047945E+03  0.25500000000E-02 0. -1.
          2   -1    0    0  501    0  0.00000000000E+00 -0.00000000000E+00 -0.90644277668E+03  0.90644277668E+03  0.25500000000E-02 0.  1.
    5000001    1    1    2    0    0 -0.14973812915E+03 -0.46302613671E+02 -0.56367527749E+02  0.25117073384E+03  0.18800000000E+03 0.  0.
   -5000001    1    1    2    0    0  0.14973812915E+03  0.46302613671E+02 -0.73277476951E+03  0.77257252228E+03  0.18800000000E+03 0.  0.
<mgrwt>
<rscale>  0 0.65215388E+03</rscale>
<asrwt>0</asrwt>
<pdfrwt beam="1">  1        2 0.12949182E+00 0.65215388E+03</pdfrwt>
<pdfrwt beam="2">  1       -2 0.16757212E-01 0.65215388E+03</pdfrwt>
<totfact> 0.93762852E+02</totfact>
</mgrwt>
</event>
<event>
 4    1  0.5917727E-005  0.7398411E+03  0.7818608E-02  0.9651424E-01
          2   -1    0    0  501    0  0.00000000000E+00  0.00000000000E+00  0.12316706887E+04  0.12316706887E+04  0.25500000000E-02 0.  1.
         -2   -1    0    0    0  501 -0.00000000000E+00 -0.00000000000E+00 -0.11110209900E+03  0.11110209903E+03  0.25500000000E-02 0. -1.
    5000001    1    1    2    0    0 -0.22484527794E+03  0.14027227487E+03  0.23936434823E+03  0.40357279555E+03  0.18800000000E+03 0.  0.
   -5000001    1    1    2    0    0  0.22484527794E+03 -0.14027227487E+03  0.88120424145E+03  0.93919999215E+03  0.18800000000E+03 0.  0.
<mgrwt>
<rscale>  0 0.73984106E+03</rscale>
<asrwt>0</asrwt>
<pdfrwt beam="1">  1        2 0.17595294E+00 0.73984106E+03</pdfrwt>
<pdfrwt beam="2">  1       -2 0.15871730E-01 0.73984106E+03</pdfrwt>
<totfact> 0.65645052E+02</totfact>
</mgrwt>
</event>
<event>
 4    1  0.5917727E-005  0.1312695E+04  0.7818608E-02  0.9019558E-01
         -2   -1    0    0    0  501 -0.00000000000E+00  0.00000000000E+00  0.26103200988E+03  0.26103200989E+03  0.25500000000E-02 0. -1.
          2   -1    0    0  501    0  0.00000000000E+00 -0.00000000000E+00 -0.16503424984E+04  0.16503424984E+04  0.25500000000E-02 0.  1.
    5000001    1    1    2    0    0  0.19343152050E+03 -0.57824309279E+03 -0.91865991272E+03  0.11185083204E+04  0.18800000000E+03 0.  0.
   -5000001    1    1    2    0    0 -0.19343152050E+03  0.57824309279E+03 -0.47065057583E+03  0.79286618797E+03  0.18800000000E+03 0.  0.
<mgrwt>
<rscale>  0 0.13126953E+04</rscale>
<asrwt>0</asrwt>
<pdfrwt beam="1">  1        2 0.23576321E+00 0.13126953E+04</pdfrwt>
<pdfrwt beam="2">  1       -2 0.37290288E-01 0.13126953E+04</pdfrwt>
<totfact> 0.80854658E+01</totfact>
</mgrwt>
</event>
<event>
 4    1  0.5917727E-005  0.4081780E+03  0.7818608E-02  0.1040984E+00
          2   -1    0    0  501    0  0.00000000000E+00  0.00000000000E+00  0.14368895575E+03  0.14368895577E+03  0.25500000000E-02 0.  1.
         -2   -1    0    0    0  501 -0.00000000000E+00 -0.00000000000E+00 -0.28987833411E+03  0.28987833412E+03  0.25500000000E-02 0. -1.
    5000001    1    1    2    0    0 -0.10515619480E+02 -0.74990835720E+02 -0.47643678114E+02  0.20820212237E+03  0.18800000000E+03 0.  0.
   -5000001    1    1    2    0    0  0.10515619480E+02  0.74990835720E+02 -0.98545700242E+02  0.22536516752E+03  0.18800000000E+03 0.  0.
<mgrwt>
<rscale>  0 0.40817798E+03</rscale>
<asrwt>0</asrwt>
<pdfrwt beam="1">  1        2 0.20526994E-01 0.40817798E+03</pdfrwt>
<pdfrwt beam="2">  1       -2 0.41411190E-01 0.40817798E+03</pdfrwt>
<totfact> 0.15135661E+03</totfact>
</mgrwt>
</event>
<event>
 4    1  0.5917727E-005  0.7351001E+03  0.7818608E-02  0.9659020E-01
          2   -1    0    0  501    0  0.00000000000E+00  0.00000000000E+00  0.11579893805E+03  0.11579893808E+03  0.25500000000E-02 0.  1.
         -2   -1    0    0    0  501 -0.00000000000E+00 -0.00000000000E+00 -0.11666172662E+04  0.11666172662E+04  0.25500000000E-02 0. -1.
    5000001    1    1    2    0    0 -0.12668633550E+03  0.28759591339E+03 -0.58025020890E+03  0.68614513182E+03  0.18800000000E+03 0.  0.
   -5000001    1    1    2    0    0  0.12668633550E+03 -0.28759591339E+03 -0.47056811930E+03  0.59627107250E+03  0.18800000000E+03 0.  0.
<mgrwt>
<rscale>  0 0.73510010E+03</rscale>
<asrwt>0</asrwt>
<pdfrwt beam="1">  1        2 0.16542706E-01 0.73510010E+03</pdfrwt>
<pdfrwt beam="2">  1       -2 0.16665960E+00 0.73510010E+03</pdfrwt>
<totfact> 0.81305482E+01</totfact>
</mgrwt>
</event>
<event>
 4    1  0.5917727E-005  0.5036879E+03  0.7818608E-02  0.1012821E+00
          2   -1    0    0  501    0  0.00000000000E+00  0.00000000000E+00  0.10022478301E+04  0.10022478301E+04  0.25500000000E-02 0.  1.
         -2   -1    0    0    0  501 -0.00000000000E+00 -0.00000000000E+00 -0.63283137880E+02  0.63283137932E+02  0.25500000000E-02 0. -1.
    5000001    1    1    2    0    0 -0.38733118244E+02 -0.16069832390E+03  0.52769328804E+03  0.58406199328E+03  0.18800000000E+03 0.  0.
   -5000001    1    1    2    0    0  0.38733118244E+02  0.16069832390E+03  0.41127140416E+03  0.48146897473E+03  0.18800000000E+03 0.  0.
<mgrwt>
<rscale>  0 0.50368795E+03</rscale>
<asrwt>0</asrwt>
<pdfrwt beam="1">  1        2 0.14317826E+00 0.50368795E+03</pdfrwt>
<pdfrwt beam="2">  1       -2 0.90404483E-02 0.50368795E+03</pdfrwt>
<totfact> 0.22679272E+03</totfact>
</mgrwt>
</event>
<event>
 4    1  0.5917727E-005  0.4511830E+03  0.7818608E-02  0.1027370E+00
          2   -1    0    0  501    0  0.00000000000E+00  0.00000000000E+00  0.27952557622E+04  0.27952557622E+04  0.25500000000E-02 0.  1.
         -2   -1    0    0    0  501 -0.00000000000E+00 -0.00000000000E+00 -0.18206394668E+02  0.18206394847E+02  0.25500000000E-02 0. -1.
    5000001    1    1    2    0    0 -0.60298270177E+02  0.10098789953E+03  0.16466191846E+04  0.16614852321E+04  0.18800000000E+03 0.  0.
   -5000001    1    1    2    0    0  0.60298270177E+02 -0.10098789953E+03  0.11304301829E+04  0.11519769250E+04  0.18800000000E+03 0.  0.
<mgrwt>
<rscale>  0 0.45118302E+03</rscale>
<asrwt>0</asrwt>
<pdfrwt beam="1">  1        2 0.39932243E+00 0.45118302E+03</pdfrwt>
<pdfrwt beam="2">  1       -2 0.26009123E-02 0.45118302E+03</pdfrwt>
<totfact> 0.18300575E+03</totfact>
</mgrwt>
</event>
<event>
 4    1  0.5917727E-005  0.5195086E+03  0.7818608E-02  0.1008809E+00
          2   -1    0    0  501    0  0.00000000000E+00  0.00000000000E+00  0.49153813384E+03  0.49153813385E+03  0.25500000000E-02 0.  1.
         -2   -1    0    0    0  501 -0.00000000000E+00 -0.00000000000E+00 -0.13726764875E+03  0.13726764877E+03  0.25500000000E-02 0. -1.
    5000001    1    1    2    0    0  0.15411498282E+03 -0.53612683439E+02  0.87349934284E+02  0.26381766199E+03  0.18800000000E+03 0.  0.
   -5000001    1    1    2    0    0 -0.15411498282E+03  0.53612683439E+02  0.26692055081E+03  0.36498812063E+03  0.18800000000E+03 0.  0.
<mgrwt>
<rscale>  0 0.51950855E+03</rscale>
<asrwt>0</asrwt>
<pdfrwt beam="1">  1        2 0.70219734E-01 0.51950855E+03</pdfrwt>
<pdfrwt beam="2">  1       -2 0.19609664E-01 0.51950855E+03</pdfrwt>
<totfact> 0.15092091E+03</totfact>
</mgrwt>
</event>
<event>
 4    1  0.5917727E-005  0.6055222E+03  0.7818608E-02  0.9894015E-01
         -2   -1    0    0    0  501 -0.00000000000E+00  0.00000000000E+00  0.70513794698E+02  0.70513794744E+02  0.25500000000E-02 0. -1.
          2   -1    0    0  501    0  0.00000000000E+00 -0.00000000000E+00 -0.12999483875E+04  0.12999483875E+04  0.25500000000E-02 0.  1.
    5000001    1    1    2    0    0 -0.29419383656E+02  0.22909699927E+03 -0.73804716878E+03  0.79586968692E+03  0.18800000000E+03 0.  0.
   -5000001    1    1    2    0    0  0.29419383656E+02 -0.22909699927E+03 -0.49138742406E+03  0.57459249537E+03  0.18800000000E+03 0.  0.
<mgrwt>
<rscale>  0 0.60552223E+03</rscale>
<asrwt>0</asrwt>
<pdfrwt beam="1">  1        2 0.18570690E+00 0.60552223E+03</pdfrwt>
<pdfrwt beam="2">  1       -2 0.10073400E-01 0.60552223E+03</pdfrwt>
<totfact> 0.12861102E+03</totfact>
</mgrwt>
</event>
<event>
 4    1  0.5917727E-005  0.4579966E+03  0.7818608E-02  0.1025364E+00
          2   -1    0    0  501    0  0.00000000000E+00  0.00000000000E+00  0.60758952219E+03  0.60758952220E+03  0.25500000000E-02 0.  1.
         -2   -1    0    0    0  501 -0.00000000000E+00 -0.00000000000E+00 -0.86308614776E+02  0.86308614814E+02  0.25500000000E-02 0. -1.
    5000001    1    1    2    0    0 -0.49085380087E+02  0.34910438543E+02  0.43646788390E+03  0.47903687430E+03  0.18800000000E+03 0.  0.
   -5000001    1    1    2    0    0  0.49085380087E+02 -0.34910438543E+02  0.84813023512E+02  0.21486126271E+03  0.18800000000E+03 0.  0.
<mgrwt>
<rscale>  0 0.45799655E+03</rscale>
<asrwt>0</asrwt>
<pdfrwt beam="1">  1        2 0.86798507E-01 0.45799655E+03</pdfrwt>
<pdfrwt beam="2">  1       -2 0.12329802E-01 0.45799655E+03</pdfrwt>
<totfact> 0.25825228E+03</totfact>
</mgrwt>
</event>
<event>
 4    1  0.5917727E-005  0.4177280E+03  0.7818608E-02  0.1037808E+00
          2   -1    0    0  501    0  0.00000000000E+00  0.00000000000E+00  0.96559797070E+03  0.96559797070E+03  0.25500000000E-02 0.  1.
         -2   -1    0    0    0  501 -0.00000000000E+00 -0.00000000000E+00 -0.45178394111E+02  0.45178394183E+02  0.25500000000E-02 0. -1.
    5000001    1    1    2    0    0  0.46019653421E+02  0.76125357119E+02  0.50658270581E+03  0.54761566479E+03  0.18800000000E+03 0.  0.
   -5000001    1    1    2    0    0 -0.46019653421E+02 -0.76125357119E+02  0.41383687078E+03  0.46316070010E+03  0.18800000000E+03 0.  0.
<mgrwt>
<rscale>  0 0.41772798E+03</rscale>
<asrwt>0</asrwt>
<pdfrwt beam="1">  1        2 0.13794257E+00 0.41772798E+03</pdfrwt>
<pdfrwt beam="2">  1       -2 0.64540563E-02 0.41772798E+03</pdfrwt>
<totfact> 0.40615924E+03</totfact>
</mgrwt>
</event>
<event>
 4    1  0.5917727E-005  0.6178611E+03  0.7818608E-02  0.9869027E-01
          2   -1    0    0  501    0  0.00000000000E+00  0.00000000000E+00  0.37672479969E+03  0.37672479970E+03  0.25500000000E-02 0.  1.
         -2   -1    0    0    0  501 -0.00000000000E+00 -0.00000000000E+00 -0.25333637837E+03  0.25333637838E+03  0.25500000000E-02 0. -1.
    5000001    1    1    2    0    0 -0.71857744283E+02 -0.19933520514E+03  0.18740050146E+03  0.33964835841E+03  0.18800000000E+03 0.  0.
   -5000001    1    1    2    0    0  0.71857744283E+02  0.19933520514E+03 -0.64012080144E+02  0.29041281967E+03  0.18800000000E+03 0.  0.
<mgrwt>
<rscale>  0 0.61786114E+03</rscale>
<asrwt>0</asrwt>
<pdfrwt beam="1">  1        2 0.53817829E-01 0.61786114E+03</pdfrwt>
<pdfrwt beam="2">  1       -2 0.36190911E-01 0.61786114E+03</pdfrwt>
<totfact> 0.66805052E+02</totfact>
</mgrwt>
</event>
<event>
 4    1  0.5917727E-005  0.5461584E+03  0.7818608E-02  0.1002387E+00
          2   -1    0    0  501    0  0.00000000000E+00  0.00000000000E+00  0.12442868692E+04  0.12442868692E+04  0.25500000000E-02 0. -1.
         -2   -1    0    0    0  501 -0.00000000000E+00 -0.00000000000E+00 -0.59931719278E+02  0.59931719332E+02  0.25500000000E-02 0.  1.
    5000001    1    1    2    0    0  0.85178199636E+02  0.15332406253E+03  0.81188081348E+03  0.85162083648E+03  0.18800000000E+03 0.  0.
   -5000001    1    1    2    0    0 -0.85178199636E+02 -0.15332406253E+03  0.37247433642E+03  0.45259775202E+03  0.18800000000E+03 0.  0.
<mgrwt>
<rscale>  0 0.54615841E+03</rscale>
<asrwt>0</asrwt>
<pdfrwt beam="1">  1        2 0.17775526E+00 0.54615841E+03</pdfrwt>
<pdfrwt beam="2">  1       -2 0.85616745E-02 0.54615841E+03</pdfrwt>
<totfact> 0.17950693E+03</totfact>
</mgrwt>
</event>
<event>
 4    1  0.5917727E-005  0.6697401E+03  0.7818608E-02  0.9770427E-01
          2   -1    0    0  501    0  0.00000000000E+00  0.00000000000E+00  0.16221843612E+04  0.16221843612E+04  0.25500000000E-02 0.  1.
         -2   -1    0    0    0  501 -0.00000000000E+00 -0.00000000000E+00 -0.69127744599E+02  0.69127744646E+02  0.25500000000E-02 0. -1.
    5000001    1    1    2    0    0 -0.25144033041E+02  0.15959447995E+03  0.13450987627E+04  0.13677489908E+04  0.18800000000E+03 0.  0.
   -5000001    1    1    2    0    0  0.25144033041E+02 -0.15959447995E+03  0.20795785395E+03  0.32356311509E+03  0.18800000000E+03 0.  0.
<mgrwt>
<rscale>  0 0.66974009E+03</rscale>
<asrwt>0</asrwt>
<pdfrwt beam="1">  1        2 0.23174059E+00 0.66974009E+03</pdfrwt>
<pdfrwt beam="2">  1       -2 0.98753935E-02 0.66974009E+03</pdfrwt>
<totfact> 0.89608989E+02</totfact>
</mgrwt>
</event>
<event>
 4    1  0.5917727E-005  0.5488155E+03  0.7818608E-02  0.1001768E+00
         -2   -1    0    0    0  501 -0.00000000000E+00  0.00000000000E+00  0.39274589115E+02  0.39274589198E+02  0.25500000000E-02 0. -1.
          2   -1    0    0  501    0  0.00000000000E+00 -0.00000000000E+00 -0.19172606415E+04  0.19172606415E+04  0.25500000000E-02 0.  1.
    5000001    1    1    2    0    0 -0.55655373625E+02 -0.72957939633E+02 -0.15720741434E+04  0.15859323737E+04  0.18800000000E+03 0.  0.
   -5000001    1    1    2    0    0  0.55655373625E+02  0.72957939633E+02 -0.30591190901E+03  0.37060285704E+03  0.18800000000E+03 0.  0.
<mgrwt>
<rscale>  0 0.54881554E+03</rscale>
<asrwt>0</asrwt>
<pdfrwt beam="1">  1        2 0.27389432E+00 0.54881554E+03</pdfrwt>
<pdfrwt beam="2">  1       -2 0.56106568E-02 0.54881554E+03</pdfrwt>
<totfact> 0.15672672E+03</totfact>
</mgrwt>
</event>
<event>
 4    1  0.5917727E-005  0.7543465E+03  0.7818608E-02  0.9628556E-01
          2   -1    0    0  501    0  0.00000000000E+00  0.00000000000E+00  0.26905703755E+03  0.26905703756E+03  0.25500000000E-02 0.  1.
         -2   -1    0    0    0  501 -0.00000000000E+00 -0.00000000000E+00 -0.52873426383E+03  0.52873426384E+03  0.25500000000E-02 0. -1.
    5000001    1    1    2    0    0  0.20518497997E+03  0.12862073991E+03 -0.36219992000E+03  0.47452813698E+03  0.18800000000E+03 0.  0.
   -5000001    1    1    2    0    0 -0.20518497997E+03 -0.12862073991E+03  0.10252269372E+03  0.32326316442E+03  0.18800000000E+03 0.  0.
<mgrwt>
<rscale>  0 0.75434654E+03</rscale>
<asrwt>0</asrwt>
<pdfrwt beam="1">  1        2 0.38436720E-01 0.75434654E+03</pdfrwt>
<pdfrwt beam="2">  1       -2 0.75533466E-01 0.75434654E+03</pdfrwt>
<totfact> 0.21346628E+02</totfact>
</mgrwt>
</event>
<event>
 4    1  0.5917727E-005  0.8182487E+03  0.7818608E-02  0.9533972E-01
          2   -1    0    0  501    0  0.00000000000E+00  0.00000000000E+00  0.52526158681E+03  0.52526158681E+03  0.25500000000E-02 0.  1.
         -2   -1    0    0    0  501 -0.00000000000E+00 -0.00000000000E+00 -0.31866549197E+03  0.31866549198E+03  0.25500000000E-02 0. -1.
    5000001    1    1    2    0    0 -0.25907927936E+03  0.23920547829E+03  0.12809869142E+02  0.39981173892E+03  0.18800000000E+03 0.  0.
   -5000001    1    1    2    0    0  0.25907927936E+03 -0.23920547829E+03  0.19378622570E+03  0.44411533987E+03  0.18800000000E+03 0.  0.
<mgrwt>
<rscale>  0 0.81824872E+03</rscale>
<asrwt>0</asrwt>
<pdfrwt beam="1">  1        2 0.75037370E-01 0.81824872E+03</pdfrwt>
<pdfrwt beam="2">  1       -2 0.45523642E-01 0.81824872E+03</pdfrwt>
<totfact> 0.29174215E+02</totfact>
</mgrwt>
</event>
<event>
 4    1  0.5917727E-005  0.4565512E+03  0.7818608E-02  0.1025786E+00
         -2   -1    0    0    0  501 -0.00000000000E+00  0.00000000000E+00  0.35434293150E+02  0.35434293242E+02  0.25500000000E-02 0. -1.
          2   -1    0    0  501    0  0.00000000000E+00 -0.00000000000E+00 -0.14706024724E+04  0.14706024724E+04  0.25500000000E-02 0.  1.
    5000001    1    1    2    0    0 -0.95528117277E+02  0.27006971756E+02 -0.99181032203E+03  0.10143405309E+04  0.18800000000E+03 0.  0.
   -5000001    1    1    2    0    0  0.95528117277E+02 -0.27006971756E+02 -0.44335785720E+03  0.49169623473E+03  0.18800000000E+03 0.  0.
<mgrwt>
<rscale>  0 0.45655124E+03</rscale>
<asrwt>0</asrwt>
<pdfrwt beam="1">  1        2 0.21008603E+00 0.45655124E+03</pdfrwt>
<pdfrwt beam="2">  1       -2 0.50620428E-02 0.45655124E+03</pdfrwt>
<totfact> 0.31043672E+03</totfact>
</mgrwt>
</event>
<event>
 4    1  0.5917727E-005  0.4549414E+03  0.7818608E-02  0.1026259E+00
         -2   -1    0    0    0  501 -0.00000000000E+00  0.00000000000E+00  0.10436295549E+03  0.10436295552E+03  0.25500000000E-02 0. -1.
          2   -1    0    0  501    0  0.00000000000E+00 -0.00000000000E+00 -0.49579767485E+03  0.49579767486E+03  0.25500000000E-02 0.  1.
    5000001    1    1    2    0    0 -0.60434668992E+02  0.10943489906E+03 -0.23233720719E+03  0.32396438723E+03  0.18800000000E+03 0.  0.
   -5000001    1    1    2    0    0  0.60434668992E+02 -0.10943489906E+03 -0.15909751217E+03  0.27619624315E+03  0.18800000000E+03 0.  0.
<mgrwt>
<rscale>  0 0.45494136E+03</rscale>
<asrwt>0</asrwt>
<pdfrwt beam="1">  1        2 0.70828238E-01 0.45494136E+03</pdfrwt>
<pdfrwt beam="2">  1       -2 0.14908994E-01 0.45494136E+03</pdfrwt>
<totfact> 0.23801635E+03</totfact>
</mgrwt>
</event>
<event>
 4    1  0.5917727E-005  0.5335742E+03  0.7818608E-02  0.1005369E+00
          2   -1    0    0  501    0  0.00000000000E+00  0.00000000000E+00  0.10502785956E+03  0.10502785959E+03  0.25500000000E-02 0.  1.
         -2   -1    0    0    0  501 -0.00000000000E+00 -0.00000000000E+00 -0.67768063549E+03  0.67768063550E+03  0.25500000000E-02 0. -1.
    5000001    1    1    2    0    0 -0.68774994124E+02 -0.72887345544E+02 -0.52189676066E+03  0.56370452699E+03  0.18800000000E+03 0.  0.
   -5000001    1    1    2    0    0  0.68774994124E+02  0.72887345544E+02 -0.50756015266E+02  0.21900396810E+03  0.18800000000E+03 0.  0.
<mgrwt>
<rscale>  0 0.53357416E+03</rscale>
<asrwt>0</asrwt>
<pdfrwt beam="1">  1        2 0.15003980E-01 0.53357416E+03</pdfrwt>
<pdfrwt beam="2">  1       -2 0.96811517E-01 0.53357416E+03</pdfrwt>
<totfact> 0.36135191E+02</totfact>
</mgrwt>
</event>
<event>
 4    1  0.5917727E-005  0.4078455E+03  0.7818608E-02  0.1041096E+00
         -2   -1    0    0    0  501 -0.00000000000E+00  0.00000000000E+00  0.58599333164E+03  0.58599333165E+03  0.25500000000E-02 0. -1.
          2   -1    0    0  501    0  0.00000000000E+00 -0.00000000000E+00 -0.70964102828E+02  0.70964102874E+02  0.25500000000E-02 0.  1.
    5000001    1    1    2    0    0  0.63404122797E+02 -0.42681445001E+02  0.28967831672E+03  0.35369381633E+03  0.18800000000E+03 0.  0.
   -5000001    1    1    2    0    0 -0.63404122797E+02  0.42681445001E+02  0.22535091209E+03  0.30326361819E+03  0.18800000000E+03 0.  0.
<mgrwt>
<rscale>  0 0.40784552E+03</rscale>
<asrwt>0</asrwt>
<pdfrwt beam="1">  1        2 0.10137730E-01 0.40784552E+03</pdfrwt>
<pdfrwt beam="2">  1       -2 0.83713328E-01 0.40784552E+03</pdfrwt>
<totfact> 0.81707198E+02</totfact>
</mgrwt>
</event>
<event>
 4    1  0.5917727E-005  0.4449203E+03  0.7818608E-02  0.1029248E+00
         -2   -1    0    0    0  501 -0.00000000000E+00  0.00000000000E+00  0.13334916977E+03  0.13334916980E+03  0.25500000000E-02 0. -1.
          2   -1    0    0  501    0  0.00000000000E+00 -0.00000000000E+00 -0.37111984627E+03  0.37111984628E+03  0.25500000000E-02 0.  1.
    5000001    1    1    2    0    0  0.84419157476E+02 -0.83430940093E+02 -0.12746121770E+03  0.25627656532E+03  0.18800000000E+03 0.  0.
   -5000001    1    1    2    0    0 -0.84419157476E+02  0.83430940093E+02 -0.11030945880E+03  0.24819245076E+03  0.18800000000E+03 0.  0.
<mgrwt>
<rscale>  0 0.44492032E+03</rscale>
<asrwt>0</asrwt>
<pdfrwt beam="1">  1        2 0.53017121E-01 0.44492032E+03</pdfrwt>
<pdfrwt beam="2">  1       -2 0.19049882E-01 0.44492032E+03</pdfrwt>
<totfact> 0.21656214E+03</totfact>
</mgrwt>
</event>
<event>
 4    1  0.5917727E-005  0.7555867E+03  0.7818608E-02  0.9626626E-01
          2   -1    0    0  501    0  0.00000000000E+00  0.00000000000E+00  0.41724249346E+03  0.41724249347E+03  0.25500000000E-02 0.  1.
         -2   -1    0    0    0  501 -0.00000000000E+00 -0.00000000000E+00 -0.34207398164E+03  0.34207398165E+03  0.25500000000E-02 0. -1.
    5000001    1    1    2    0    0 -0.22106544496E+03 -0.57486051838E+02  0.27371055547E+03  0.40303355355E+03  0.18800000000E+03 0.  0.
   -5000001    1    1    2    0    0  0.22106544496E+03  0.57486051838E+02 -0.19854204365E+03  0.35628292157E+03  0.18800000000E+03 0.  0.
<mgrwt>
<rscale>  0 0.75558666E+03</rscale>
<asrwt>0</asrwt>
<pdfrwt beam="1">  1        2 0.59606070E-01 0.75558666E+03</pdfrwt>
<pdfrwt beam="2">  1       -2 0.48867712E-01 0.75558666E+03</pdfrwt>
<totfact> 0.32937412E+02</totfact>
</mgrwt>
</event>
<event>
 4    1  0.5917727E-005  0.4672431E+03  0.7818608E-02  0.1022701E+00
         -2   -1    0    0    0  501 -0.00000000000E+00  0.00000000000E+00  0.11310785107E+03  0.11310785110E+03  0.25500000000E-02 0. -1.
          2   -1    0    0  501    0  0.00000000000E+00 -0.00000000000E+00 -0.48253963639E+03  0.48253963640E+03  0.25500000000E-02 0.  1.
    5000001    1    1    2    0    0  0.49643687956E+02 -0.12075418594E+03 -0.24435959334E+03  0.33481588976E+03  0.18800000000E+03 0.  0.
   -5000001    1    1    2    0    0 -0.49643687956E+02  0.12075418594E+03 -0.12507219198E+03  0.26083159774E+03  0.18800000000E+03 0.  0.
<mgrwt>
<rscale>  0 0.46724307E+03</rscale>
<asrwt>0</asrwt>
<pdfrwt beam="1">  1        2 0.68934233E-01 0.46724307E+03</pdfrwt>
<pdfrwt beam="2">  1       -2 0.16158265E-01 0.46724307E+03</pdfrwt>
<totfact> 0.21441404E+03</totfact>
</mgrwt>
</event>
<event>
 4    1  0.5917727E-005  0.4248438E+03  0.7818608E-02  0.1035501E+00
         -2   -1    0    0    0  501 -0.00000000000E+00  0.00000000000E+00  0.14157111897E+03  0.14157111899E+03  0.25500000000E-02 0. -1.
          2   -1    0    0  501    0  0.00000000000E+00 -0.00000000000E+00 -0.31873072843E+03  0.31873072844E+03  0.25500000000E-02 0.  1.
    5000001    1    1    2    0    0 -0.61585780402E+02  0.65427884500E+02 -0.43836006320E+02  0.21293006333E+03  0.18800000000E+03 0.  0.
   -5000001    1    1    2    0    0  0.61585780402E+02 -0.65427884500E+02 -0.13332360314E+03  0.24737178411E+03  0.18800000000E+03 0.  0.
<mgrwt>
<rscale>  0 0.42484381E+03</rscale>
<asrwt>0</asrwt>
<pdfrwt beam="1">  1        2 0.45532961E-01 0.42484381E+03</pdfrwt>
<pdfrwt beam="2">  1       -2 0.20224446E-01 0.42484381E+03</pdfrwt>
<totfact> 0.23058328E+03</totfact>
</mgrwt>
</event>
<event>
 4    1  0.5917727E-005  0.5867029E+03  0.7818608E-02  0.9933384E-01
          2   -1    0    0  501    0  0.00000000000E+00  0.00000000000E+00  0.93893311447E+03  0.93893311447E+03  0.25500000000E-02 0.  1.
         -2   -1    0    0    0  501 -0.00000000000E+00 -0.00000000000E+00 -0.91651963048E+02  0.91651963083E+02  0.25500000000E-02 0. -1.
    5000001    1    1    2    0    0  0.20413048215E+03 -0.94406641983E+02  0.40367466777E+03  0.49887784596E+03  0.18800000000E+03 0.  0.
   -5000001    1    1    2    0    0 -0.20413048215E+03  0.94406641983E+02  0.44360648365E+03  0.53170723159E+03  0.18800000000E+03 0.  0.
<mgrwt>
<rscale>  0 0.58670287E+03</rscale>
<asrwt>0</asrwt>
<pdfrwt beam="1">  1        2 0.13413330E+00 0.58670287E+03</pdfrwt>
<pdfrwt beam="2">  1       -2 0.13093138E-01 0.58670287E+03</pdfrwt>
<totfact> 0.13559583E+03</totfact>
</mgrwt>
</event>
<event>
 4    1  0.5917727E-005  0.4453628E+03  0.7818608E-02  0.1029114E+00
          2   -1    0    0  501    0  0.00000000000E+00  0.00000000000E+00  0.23570844812E+04  0.23570844812E+04  0.25500000000E-02 0.  1.
         -2   -1    0    0    0  501 -0.00000000000E+00 -0.00000000000E+00 -0.21037429131E+02  0.21037429285E+02  0.25500000000E-02 0. -1.
    5000001    1    1    2    0    0  0.11078537188E+03  0.62529542135E+01  0.93340889220E+03  0.95859723455E+03  0.18800000000E+03 0.  0.
   -5000001    1    1    2    0    0 -0.11078537188E+03 -0.62529542135E+01  0.14026381599E+04  0.14195246760E+04  0.18800000000E+03 0.  0.
<mgrwt>
<rscale>  0 0.44536276E+03</rscale>
<asrwt>0</asrwt>
<pdfrwt beam="1">  1        2 0.33672641E+00 0.44536276E+03</pdfrwt>
<pdfrwt beam="2">  1       -2 0.30053466E-02 0.44536276E+03</pdfrwt>
<totfact> 0.24690997E+03</totfact>
</mgrwt>
</event>
<event>
 4    1  0.5917727E-005  0.4844067E+03  0.7818608E-02  0.1017931E+00
         -2   -1    0    0    0  501 -0.00000000000E+00  0.00000000000E+00  0.47973439090E+03  0.47973439091E+03  0.25500000000E-02 0. -1.
          2   -1    0    0  501    0  0.00000000000E+00 -0.00000000000E+00 -0.12228112749E+03  0.12228112752E+03  0.25500000000E-02 0.  1.
    5000001    1    1    2    0    0 -0.13507323963E+03  0.43645352129E+01  0.26708391638E+03  0.35347085823E+03  0.18800000000E+03 0.  0.
   -5000001    1    1    2    0    0  0.13507323963E+03 -0.43645352129E+01  0.90369347030E+02  0.24854466020E+03  0.18800000000E+03 0.  0.
<mgrwt>
<rscale>  0 0.48440670E+03</rscale>
<asrwt>0</asrwt>
<pdfrwt beam="1">  1        2 0.17468732E-01 0.48440670E+03</pdfrwt>
<pdfrwt beam="2">  1       -2 0.68533485E-01 0.48440670E+03</pdfrwt>
<totfact> 0.65371795E+02</totfact>
</mgrwt>
</event>
<event>
 4    1  0.5917727E-005  0.5919105E+03  0.7818608E-02  0.9922333E-01
          2   -1    0    0  501    0  0.00000000000E+00  0.00000000000E+00  0.11910470553E+04  0.11910470553E+04  0.25500000000E-02 0.  1.
         -2   -1    0    0    0  501 -0.00000000000E+00 -0.00000000000E+00 -0.73539919050E+02  0.73539919094E+02  0.25500000000E-02 0. -1.
    5000001    1    1    2    0    0  0.19701533488E+03  0.10193274317E+03  0.44095441640E+03  0.52819515679E+03  0.18800000000E+03 0.  0.
   -5000001    1    1    2    0    0 -0.19701533488E+03 -0.10193274317E+03  0.67655271988E+03  0.73639181764E+03  0.18800000000E+03 0.  0.
<mgrwt>
<rscale>  0 0.59191048E+03</rscale>
<asrwt>0</asrwt>
<pdfrwt beam="1">  1        2 0.17014958E+00 0.59191048E+03</pdfrwt>
<pdfrwt beam="2">  1       -2 0.10505703E-01 0.59191048E+03</pdfrwt>
<totfact> 0.13802869E+03</totfact>
</mgrwt>
</event>
<event>
 4    1  0.5917727E-005  0.8463871E+03  0.7818608E-02  0.9495199E-01
         -2   -1    0    0    0  501 -0.00000000000E+00  0.00000000000E+00  0.18087941041E+03  0.18087941043E+03  0.25500000000E-02 0. -1.
          2   -1    0    0  501    0  0.00000000000E+00 -0.00000000000E+00 -0.99012249497E+03  0.99012249497E+03  0.25500000000E-02 0.  1.
    5000001    1    1    2    0    0  0.34607690338E+03  0.15182480982E+03 -0.44678578937E+03  0.61463935564E+03  0.18800000000E+03 0.  0.
   -5000001    1    1    2    0    0 -0.34607690338E+03 -0.15182480982E+03 -0.36245729519E+03  0.55636254975E+03  0.18800000000E+03 0.  0.
<mgrwt>
<rscale>  0 0.84638708E+03</rscale>
<asrwt>0</asrwt>
<pdfrwt beam="1">  1        2 0.14144607E+00 0.84638708E+03</pdfrwt>
<pdfrwt beam="2">  1       -2 0.25839916E-01 0.84638708E+03</pdfrwt>
<totfact> 0.38500966E+02</totfact>
</mgrwt>
</event>
<event>
 4    1  0.5917727E-005  0.4601646E+03  0.7818608E-02  0.1024734E+00
         -2   -1    0    0    0  501 -0.00000000000E+00  0.00000000000E+00  0.96362064866E+02  0.96362064900E+02  0.25500000000E-02 0. -1.
          2   -1    0    0  501    0  0.00000000000E+00 -0.00000000000E+00 -0.54936406714E+03  0.54936406714E+03  0.25500000000E-02 0.  1.
    5000001    1    1    2    0    0 -0.12384010474E+03  0.35194163099E+02 -0.27129207060E+03  0.35428574376E+03  0.18800000000E+03 0.  0.
   -5000001    1    1    2    0    0  0.12384010474E+03 -0.35194163099E+02 -0.18170993167E+03  0.29144038829E+03  0.18800000000E+03 0.  0.
<mgrwt>
<rscale>  0 0.46016456E+03</rscale>
<asrwt>0</asrwt>
<pdfrwt beam="1">  1        2 0.78480579E-01 0.46016456E+03</pdfrwt>
<pdfrwt beam="2">  1       -2 0.13766010E-01 0.46016456E+03</pdfrwt>
<totfact> 0.24196141E+03</totfact>
</mgrwt>
</event>
<event>
 4    1  0.5917727E-005  0.6950051E+03  0.7818608E-02  0.9725812E-01
         -2   -1    0    0    0  501 -0.00000000000E+00  0.00000000000E+00  0.38863398713E+03  0.38863398713E+03  0.25500000000E-02 0. -1.
          2   -1    0    0  501    0  0.00000000000E+00 -0.00000000000E+00 -0.31072429415E+03  0.31072429416E+03  0.25500000000E-02 0.  1.
    5000001    1    1    2    0    0 -0.23297455707E+03  0.43039508602E+02 -0.13324409363E+03  0.33049588807E+03  0.18800000000E+03 0.  0.
   -5000001    1    1    2    0    0  0.23297455707E+03 -0.43039508602E+02  0.21115378661E+03  0.36886239323E+03  0.18800000000E+03 0.  0.
<mgrwt>
<rscale>  0 0.69500510E+03</rscale>
<asrwt>0</asrwt>
<pdfrwt beam="1">  1        2 0.44389185E-01 0.69500510E+03</pdfrwt>
<pdfrwt beam="2">  1       -2 0.55519141E-01 0.69500510E+03</pdfrwt>
<totfact> 0.35264649E+02</totfact>
</mgrwt>
</event>
<event>
 4    1  0.5917727E-005  0.4804369E+03  0.7818608E-02  0.1019015E+00
         -2   -1    0    0    0  501 -0.00000000000E+00  0.00000000000E+00  0.10003633637E+03  0.10003633640E+03  0.25500000000E-02 0. -1.
          2   -1    0    0  501    0  0.00000000000E+00 -0.00000000000E+00 -0.57683948034E+03  0.57683948035E+03  0.25500000000E-02 0.  1.
    5000001    1    1    2    0    0  0.35644456764E+02  0.68337440175E+02 -0.57865427323E+02  0.21126509581E+03  0.18800000000E+03 0.  0.
   -5000001    1    1    2    0    0 -0.35644456764E+02 -0.68337440175E+02 -0.41893771665E+03  0.46561072094E+03  0.18800000000E+03 0.  0.
<mgrwt>
<rscale>  0 0.48043692E+03</rscale>
<asrwt>0</asrwt>
<pdfrwt beam="1">  1        2 0.82405638E-01 0.48043692E+03</pdfrwt>
<pdfrwt beam="2">  1       -2 0.14290906E-01 0.48043692E+03</pdfrwt>
<totfact> 0.21501322E+03</totfact>
</mgrwt>
</event>
<event>
 4    1  0.5917727E-005  0.7069162E+03  0.7818608E-02  0.9705477E-01
         -2   -1    0    0    0  501 -0.00000000000E+00  0.00000000000E+00  0.17460155672E+03  0.17460155674E+03  0.25500000000E-02 0. -1.
          2   -1    0    0  501    0  0.00000000000E+00 -0.00000000000E+00 -0.71552981478E+03  0.71552981479E+03  0.25500000000E-02 0.  1.
    5000001    1    1    2    0    0 -0.30340511303E+01 -0.29726569770E+03 -0.31431017900E+03  0.47171070490E+03  0.18800000000E+03 0.  0.
   -5000001    1    1    2    0    0  0.30340511303E+01  0.29726569770E+03 -0.22661807907E+03  0.41842066662E+03  0.18800000000E+03 0.  0.
<mgrwt>
<rscale>  0 0.70691617E+03</rscale>
<asrwt>0</asrwt>
<pdfrwt beam="1">  1        2 0.10221854E+00 0.70691617E+03</pdfrwt>
<pdfrwt beam="2">  1       -2 0.24943080E-01 0.70691617E+03</pdfrwt>
<totfact> 0.63259558E+02</totfact>
</mgrwt>
</event>
<event>
 4    1  0.5917727E-005  0.1083896E+04  0.7818608E-02  0.9221031E-01
          2   -1    0    0  501    0  0.00000000000E+00  0.00000000000E+00  0.13143886347E+04  0.13143886347E+04  0.25500000000E-02 0.  1.
         -2   -1    0    0    0  501 -0.00000000000E+00 -0.00000000000E+00 -0.22345588678E+03  0.22345588680E+03  0.25500000000E-02 0. -1.
    5000001    1    1    2    0    0  0.11240440943E+03 -0.44842752264E+03  0.84524170547E+03  0.98158012153E+03  0.18800000000E+03 0.  0.
   -5000001    1    1    2    0    0 -0.11240440943E+03  0.44842752264E+03  0.24569104242E+03  0.55626439994E+03  0.18800000000E+03 0.  0.
<mgrwt>
<rscale>  0 0.10838964E+04</rscale>
<asrwt>0</asrwt>
<pdfrwt beam="1">  1        2 0.18776981E+00 0.10838964E+04</pdfrwt>
<pdfrwt beam="2">  1       -2 0.31922269E-01 0.10838964E+04</pdfrwt>
<totfact> 0.16683123E+02</totfact>
</mgrwt>
</event>
<event>
 4    1  0.5917727E-005  0.4566400E+03  0.7818608E-02  0.1025760E+00
         -2   -1    0    0    0  501 -0.00000000000E+00  0.00000000000E+00  0.22572743596E+02  0.22572743740E+02  0.25500000000E-02 0. -1.
          2   -1    0    0  501    0  0.00000000000E+00 -0.00000000000E+00 -0.23094238028E+04  0.23094238028E+04  0.25500000000E-02 0.  1.
    5000001    1    1    2    0    0 -0.72845190726E+02 -0.95490325756E+02 -0.89527170035E+03  0.92264849296E+03  0.18800000000E+03 0.  0.
   -5000001    1    1    2    0    0  0.72845190726E+02  0.95490325756E+02 -0.13915793588E+04  0.14093480536E+04  0.18800000000E+03 0.  0.
<mgrwt>
<rscale>  0 0.45664004E+03</rscale>
<asrwt>0</asrwt>
<pdfrwt beam="1">  1        2 0.32991754E+00 0.45664004E+03</pdfrwt>
<pdfrwt beam="2">  1       -2 0.32246791E-02 0.45664004E+03</pdfrwt>
<totfact> 0.23441132E+03</totfact>
</mgrwt>
</event>
<event>
 4    1  0.5917727E-005  0.6704145E+03  0.7818608E-02  0.9769209E-01
         -2   -1    0    0    0  501 -0.00000000000E+00  0.00000000000E+00  0.67635854945E+02  0.67635854993E+02  0.25500000000E-02 0. -1.
          2   -1    0    0  501    0  0.00000000000E+00 -0.00000000000E+00 -0.16613067340E+04  0.16613067340E+04  0.25500000000E-02 0.  1.
    5000001    1    1    2    0    0 -0.11554209598E+03  0.24915057833E+03 -0.89979571814E+03  0.95937600607E+03  0.18800000000E+03 0.  0.
   -5000001    1    1    2    0    0  0.11554209598E+03 -0.24915057833E+03 -0.69387516091E+03  0.76956658293E+03  0.18800000000E+03 0.  0.
<mgrwt>
<rscale>  0 0.67041450E+03</rscale>
<asrwt>0</asrwt>
<pdfrwt beam="1">  1        2 0.23732951E+00 0.67041450E+03</pdfrwt>
<pdfrwt beam="2">  1       -2 0.96622660E-02 0.67041450E+03</pdfrwt>
<totfact> 0.88636828E+02</totfact>
</mgrwt>
</event>
<event>
 4    1  0.5917727E-005  0.1475514E+04  0.7818608E-02  0.8900901E-01
         -2   -1    0    0    0  501 -0.00000000000E+00  0.00000000000E+00  0.10980404028E+04  0.10980404028E+04  0.25500000000E-02 0. -1.
          2   -1    0    0  501    0  0.00000000000E+00 -0.00000000000E+00 -0.49568762708E+03  0.49568762709E+03  0.25500000000E-02 0.  1.
    5000001    1    1    2    0    0 -0.65350644517E+03 -0.28225457471E+03  0.35186973297E+03  0.81602366866E+03  0.18800000000E+03 0.  0.
   -5000001    1    1    2    0    0  0.65350644517E+03  0.28225457471E+03  0.25048304279E+03  0.77770436128E+03  0.18800000000E+03 0.  0.
<mgrwt>
<rscale>  0 0.14755135E+04</rscale>
<asrwt>0</asrwt>
<pdfrwt beam="1">  1        2 0.70812518E-01 0.14755135E+04</pdfrwt>
<pdfrwt beam="2">  1       -2 0.15686291E+00 0.14755135E+04</pdfrwt>
<totfact> 0.17466220E+01</totfact>
</mgrwt>
</event>
<event>
 4    1  0.5917727E-005  0.4450943E+03  0.7818608E-02  0.1029195E+00
         -2   -1    0    0    0  501 -0.00000000000E+00  0.00000000000E+00  0.31635702537E+03  0.31635702538E+03  0.25500000000E-02 0. -1.
          2   -1    0    0  501    0  0.00000000000E+00 -0.00000000000E+00 -0.15655490736E+03  0.15655490738E+03  0.25500000000E-02 0.  1.
    5000001    1    1    2    0    0 -0.15604610224E+01  0.10294453397E+03  0.14350231590E+03  0.25794752719E+03  0.18800000000E+03 0.  0.
   -5000001    1    1    2    0    0  0.15604610224E+01 -0.10294453397E+03  0.16299802098E+02  0.21496440557E+03  0.18800000000E+03 0.  0.
<mgrwt>
<rscale>  0 0.44509435E+03</rscale>
<asrwt>0</asrwt>
<pdfrwt beam="1">  1        2 0.22364987E-01 0.44509435E+03</pdfrwt>
<pdfrwt beam="2">  1       -2 0.45193860E-01 0.44509435E+03</pdfrwt>
<totfact> 0.11564760E+03</totfact>
</mgrwt>
</event>
<event>
 4    1  0.5917727E-005  0.6438719E+03  0.7818608E-02  0.9818347E-01
         -2   -1    0    0    0  501 -0.00000000000E+00  0.00000000000E+00  0.13053371689E+03  0.13053371692E+03  0.25500000000E-02 0. -1.
          2   -1    0    0  501    0  0.00000000000E+00 -0.00000000000E+00 -0.79399219710E+03  0.79399219711E+03  0.25500000000E-02 0.  1.
    5000001    1    1    2    0    0  0.82799203180E+02  0.18351590483E+03 -0.92470325305E+02  0.29056592442E+03  0.18800000000E+03 0.  0.
   -5000001    1    1    2    0    0 -0.82799203180E+02 -0.18351590483E+03 -0.57098815490E+03  0.63395998960E+03  0.18800000000E+03 0.  0.
<mgrwt>
<rscale>  0 0.64387189E+03</rscale>
<asrwt>0</asrwt>
<pdfrwt beam="1">  1        2 0.11342745E+00 0.64387189E+03</pdfrwt>
<pdfrwt beam="2">  1       -2 0.18647674E-01 0.64387189E+03</pdfrwt>
<totfact> 0.92846192E+02</totfact>
</mgrwt>
</event>
<event>
 4    1  0.5917727E-005  0.6249757E+03  0.7818608E-02  0.9854903E-01
         -2   -1    0    0    0  501 -0.00000000000E+00  0.00000000000E+00  0.24722268037E+03  0.24722268038E+03  0.25500000000E-02 0. -1.
          2   -1    0    0  501    0  0.00000000000E+00 -0.00000000000E+00 -0.39498263036E+03  0.39498263037E+03  0.25500000000E-02 0.  1.
    5000001    1    1    2    0    0  0.12314283199E+03  0.17636640662E+03 -0.20400194100E+03  0.35104139127E+03  0.18800000000E+03 0.  0.
   -5000001    1    1    2    0    0 -0.12314283199E+03 -0.17636640662E+03  0.56241991008E+02  0.29116391948E+03  0.18800000000E+03 0.  0.
<mgrwt>
<rscale>  0 0.62497573E+03</rscale>
<asrwt>0</asrwt>
<pdfrwt beam="1">  1        2 0.56426090E-01 0.62497573E+03</pdfrwt>
<pdfrwt beam="2">  1       -2 0.35317526E-01 0.62497573E+03</pdfrwt>
<totfact> 0.66391202E+02</totfact>
</mgrwt>
</event>
<event>
 4    1  0.5917727E-005  0.1988601E+04  0.7818608E-02  0.8611969E-01
         -2   -1    0    0    0  501 -0.00000000000E+00  0.00000000000E+00  0.26055980244E+03  0.26055980246E+03  0.25500000000E-02 0. -1.
          2   -1    0    0  501    0  0.00000000000E+00 -0.00000000000E+00 -0.37942660607E+04  0.37942660607E+04  0.25500000000E-02 0.  1.
    5000001    1    1    2    0    0  0.27647818157E+03  0.38363815141E+03 -0.35086122634E+04  0.35453240235E+04  0.18800000000E+03 0.  0.
   -5000001    1    1    2    0    0 -0.27647818157E+03 -0.38363815141E+03 -0.25093994829E+02  0.50950183972E+03  0.18800000000E+03 0.  0.
<mgrwt>
<rscale>  0 0.19886007E+04</rscale>
<asrwt>0</asrwt>
<pdfrwt beam="1">  1        2 0.54203798E+00 0.19886007E+04</pdfrwt>
<pdfrwt beam="2">  1       -2 0.37222831E-01 0.19886007E+04</pdfrwt>
<totfact> 0.49967562E+00</totfact>
</mgrwt>
</event>
<event>
 4    1  0.5917727E-005  0.6288908E+03  0.7818608E-02  0.9847216E-01
          2   -1    0    0  501    0  0.00000000000E+00  0.00000000000E+00  0.22424761740E+03  0.22424761742E+03  0.25500000000E-02 0.  1.
         -2   -1    0    0    0  501 -0.00000000000E+00 -0.00000000000E+00 -0.44092292378E+03  0.44092292379E+03  0.25500000000E-02 0. -1.
    5000001    1    1    2    0    0 -0.70580005450E+02  0.19946121324E+03  0.36552545596E+02  0.28538815908E+03  0.18800000000E+03 0.  0.
   -5000001    1    1    2    0    0  0.70580005450E+02 -0.19946121324E+03 -0.25322785197E+03  0.37978238212E+03  0.18800000000E+03 0.  0.
<mgrwt>
<rscale>  0 0.62889082E+03</rscale>
<asrwt>0</asrwt>
<pdfrwt beam="1">  1        2 0.32035374E-01 0.62889082E+03</pdfrwt>
<pdfrwt beam="2">  1       -2 0.62988989E-01 0.62889082E+03</pdfrwt>
<totfact> 0.38944305E+02</totfact>
</mgrwt>
</event>
<event>
 4    1  0.5917727E-005  0.4664685E+03  0.7818608E-02  0.1022922E+00
          2   -1    0    0  501    0  0.00000000000E+00  0.00000000000E+00  0.72945654578E+03  0.72945654578E+03  0.25500000000E-02 0.  1.
         -2   -1    0    0    0  501 -0.00000000000E+00 -0.00000000000E+00 -0.74573631159E+02  0.74573631202E+02  0.25500000000E-02 0. -1.
    5000001    1    1    2    0    0  0.10957927170E+03 -0.75865382361E+02  0.38937438220E+03  0.45245948166E+03  0.18800000000E+03 0.  0.
   -5000001    1    1    2    0    0 -0.10957927170E+03  0.75865382361E+02  0.26550853242E+03  0.35157069533E+03  0.18800000000E+03 0.  0.
<mgrwt>
<rscale>  0 0.46646853E+03</rscale>
<asrwt>0</asrwt>
<pdfrwt beam="1">  1        2 0.10420809E+00 0.46646853E+03</pdfrwt>
<pdfrwt beam="2">  1       -2 0.10653375E-01 0.46646853E+03</pdfrwt>
<totfact> 0.26336940E+03</totfact>
</mgrwt>
</event>
<event>
 4    1  0.5917727E-005  0.5239260E+03  0.7818608E-02  0.1007716E+00
          2   -1    0    0  501    0  0.00000000000E+00  0.00000000000E+00  0.16038367463E+03  0.16038367465E+03  0.25500000000E-02 0.  1.
         -2   -1    0    0    0  501 -0.00000000000E+00 -0.00000000000E+00 -0.42787785868E+03  0.42787785869E+03  0.25500000000E-02 0. -1.
    5000001    1    1    2    0    0 -0.11322158460E+03  0.11818047456E+03 -0.22423400024E+03  0.33527695813E+03  0.18800000000E+03 0.  0.
   -5000001    1    1    2    0    0  0.11322158460E+03 -0.11818047456E+03 -0.43260183812E+02  0.25298457520E+03  0.18800000000E+03 0.  0.
<mgrwt>
<rscale>  0 0.52392604E+03</rscale>
<asrwt>0</asrwt>
<pdfrwt beam="1">  1        2 0.22911954E-01 0.52392604E+03</pdfrwt>
<pdfrwt beam="2">  1       -2 0.61125408E-01 0.52392604E+03</pdfrwt>
<totfact> 0.60778387E+02</totfact>
</mgrwt>
</event>
<event>
 4    1  0.5917727E-005  0.4753282E+03  0.7818608E-02  0.1020427E+00
          2   -1    0    0  501    0  0.00000000000E+00  0.00000000000E+00  0.17402667894E+04  0.17402667894E+04  0.25500000000E-02 0.  1.
         -2   -1    0    0    0  501 -0.00000000000E+00 -0.00000000000E+00 -0.32457217864E+02  0.32457217964E+02  0.25500000000E-02 0. -1.
    5000001    1    1    2    0    0 -0.10296201629E+03 -0.92423198630E+02  0.10205665388E+04  0.10469208588E+04  0.18800000000E+03 0.  0.
   -5000001    1    1    2    0    0  0.10296201629E+03  0.92423198630E+02  0.68724303272E+03  0.72580314857E+03  0.18800000000E+03 0.  0.
<mgrwt>
<rscale>  0 0.47532817E+03</rscale>
<asrwt>0</asrwt>
<pdfrwt beam="1">  1        2 0.24860953E+00 0.47532817E+03</pdfrwt>
<pdfrwt beam="2">  1       -2 0.46367456E-02 0.47532817E+03</pdfrwt>
<totfact> 0.25892417E+03</totfact>
</mgrwt>
</event>
<event>
 4    1  0.5917727E-005  0.9624493E+03  0.7818608E-02  0.9350716E-01
          2   -1    0    0  501    0  0.00000000000E+00  0.00000000000E+00  0.50359683619E+03  0.50359683619E+03  0.25500000000E-02 0.  1.
         -2   -1    0    0    0  501 -0.00000000000E+00 -0.00000000000E+00 -0.45984632494E+03  0.45984632495E+03  0.25500000000E-02 0. -1.
    5000001    1    1    2    0    0 -0.31545624643E+03  0.10211902503E+03 -0.27218346020E+03  0.46836820419E+03  0.18800000000E+03 0.  0.
   -5000001    1    1    2    0    0  0.31545624643E+03 -0.10211902503E+03  0.31593397145E+03  0.49507495695E+03  0.18800000000E+03 0.  0.
<mgrwt>
<rscale>  0 0.96244928E+03</rscale>
<asrwt>0</asrwt>
<pdfrwt beam="1">  1        2 0.71942405E-01 0.96244928E+03</pdfrwt>
<pdfrwt beam="2">  1       -2 0.65692332E-01 0.96244928E+03</pdfrwt>
<totfact> 0.14224286E+02</totfact>
</mgrwt>
</event>
<event>
 4    1  0.5917727E-005  0.6704779E+03  0.7818608E-02  0.9769095E-01
         -2   -1    0    0    0  501 -0.00000000000E+00  0.00000000000E+00  0.10830781837E+03  0.10830781840E+03  0.25500000000E-02 0. -1.
          2   -1    0    0  501    0  0.00000000000E+00 -0.00000000000E+00 -0.10376459514E+04  0.10376459514E+04  0.25500000000E-02 0.  1.
    5000001    1    1    2    0    0 -0.27224604410E+03 -0.53737797681E+02 -0.47485396907E+03  0.58123657091E+03  0.18800000000E+03 0.  0.
   -5000001    1    1    2    0    0  0.27224604410E+03  0.53737797681E+02 -0.45448416391E+03  0.56471719884E+03  0.18800000000E+03 0.  0.
<mgrwt>
<rscale>  0 0.67047795E+03</rscale>
<asrwt>0</asrwt>
<pdfrwt beam="1">  1        2 0.14823513E+00 0.67047795E+03</pdfrwt>
<pdfrwt beam="2">  1       -2 0.15472546E-01 0.67047795E+03</pdfrwt>
<totfact> 0.88955054E+02</totfact>
</mgrwt>
</event>
<event>
 4    1  0.5917727E-005  0.4560674E+03  0.7818608E-02  0.1025928E+00
          2   -1    0    0  501    0  0.00000000000E+00  0.00000000000E+00  0.98244831176E+03  0.98244831177E+03  0.25500000000E-02 0.  1.
         -2   -1    0    0    0  501 -0.00000000000E+00 -0.00000000000E+00 -0.52928352594E+02  0.52928352656E+02  0.25500000000E-02 0. -1.
    5000001    1    1    2    0    0  0.12712804659E+03  0.20617922120E+02  0.48358120975E+03  0.53458528353E+03  0.18800000000E+03 0.  0.
   -5000001    1    1    2    0    0 -0.12712804659E+03 -0.20617922120E+02  0.44593874942E+03  0.50079138089E+03  0.18800000000E+03 0.  0.
<mgrwt>
<rscale>  0 0.45606741E+03</rscale>
<asrwt>0</asrwt>
<pdfrwt beam="1">  1        2 0.14034974E+00 0.45606741E+03</pdfrwt>
<pdfrwt beam="2">  1       -2 0.75611940E-02 0.45606741E+03</pdfrwt>
<totfact> 0.30966025E+03</totfact>
</mgrwt>
</event>
<event>
 4    1  0.5917727E-005  0.8210140E+03  0.7818608E-02  0.9530089E-01
         -2   -1    0    0    0  501 -0.00000000000E+00  0.00000000000E+00  0.14974372455E+03  0.14974372457E+03  0.25500000000E-02 0. -1.
          2   -1    0    0  501    0  0.00000000000E+00 -0.00000000000E+00 -0.11253627497E+04  0.11253627497E+04  0.25500000000E-02 0.  1.
    5000001    1    1    2    0    0  0.17177778512E+03  0.22346028654E+03 -0.12780835429E+03  0.36210645195E+03  0.18800000000E+03 0.  0.
   -5000001    1    1    2    0    0 -0.17177778512E+03 -0.22346028654E+03 -0.84781067090E+03  0.91300002235E+03  0.18800000000E+03 0.  0.
<mgrwt>
<rscale>  0 0.82101403E+03</rscale>
<asrwt>0</asrwt>
<pdfrwt beam="1">  1        2 0.16076610E+00 0.82101403E+03</pdfrwt>
<pdfrwt beam="2">  1       -2 0.21391961E-01 0.82101403E+03</pdfrwt>
<totfact> 0.44846234E+02</totfact>
</mgrwt>
</event>
<event>
 4    1  0.5917727E-005  0.4695394E+03  0.7818608E-02  0.1022050E+00
          2   -1    0    0  501    0  0.00000000000E+00  0.00000000000E+00  0.12320935581E+04  0.12320935581E+04  0.25500000000E-02 0.  1.
         -2   -1    0    0    0  501 -0.00000000000E+00 -0.00000000000E+00 -0.44734270405E+02  0.44734270478E+02  0.25500000000E-02 0. -1.
    5000001    1    1    2    0    0  0.10827355517E+02  0.60274510924E+02  0.24946745172E+03  0.31832099799E+03  0.18800000000E+03 0.  0.
   -5000001    1    1    2    0    0 -0.10827355517E+02 -0.60274510924E+02  0.93789183598E+03  0.95850683059E+03  0.18800000000E+03 0.  0.
<mgrwt>
<rscale>  0 0.46953938E+03</rscale>
<asrwt>0</asrwt>
<pdfrwt beam="1">  1        2 0.17601335E+00 0.46953938E+03</pdfrwt>
<pdfrwt beam="2">  1       -2 0.63906106E-02 0.46953938E+03</pdfrwt>
<totfact> 0.28962391E+03</totfact>
</mgrwt>
</event>
<event>
 4    1  0.5917727E-005  0.4431680E+03  0.7818608E-02  0.1029779E+00
          2   -1    0    0  501    0  0.00000000000E+00  0.00000000000E+00  0.53927014947E+03  0.53927014947E+03  0.25500000000E-02 0.  1.
         -2   -1    0    0    0  501 -0.00000000000E+00 -0.00000000000E+00 -0.91047987627E+02  0.91047987663E+02  0.25500000000E-02 0. -1.
    5000001    1    1    2    0    0 -0.10324871734E+03  0.74529952590E+01  0.14569576720E+03  0.25939757391E+03  0.18800000000E+03 0.  0.
   -5000001    1    1    2    0    0  0.10324871734E+03 -0.74529952590E+01  0.30252639464E+03  0.37092056323E+03  0.18800000000E+03 0.  0.
<mgrwt>
<rscale>  0 0.44316797E+03</rscale>
<asrwt>0</asrwt>
<pdfrwt beam="1">  1        2 0.77038590E-01 0.44316797E+03</pdfrwt>
<pdfrwt beam="2">  1       -2 0.13006856E-01 0.44316797E+03</pdfrwt>
<totfact> 0.27133783E+03</totfact>
</mgrwt>
</event>
<event>
 4    1  0.5917727E-005  0.4711777E+03  0.7818608E-02  0.1021588E+00
         -2   -1    0    0    0  501 -0.00000000000E+00  0.00000000000E+00  0.46585609353E+03  0.46585609354E+03  0.25500000000E-02 0. -1.
          2   -1    0    0  501    0  0.00000000000E+00 -0.00000000000E+00 -0.11914004875E+03  0.11914004878E+03  0.25500000000E-02 0.  1.
    5000001    1    1    2    0    0  0.17134683799E+02 -0.99273960569E+02  0.49144769203E+02  0.21887924748E+03  0.18800000000E+03 0.  0.
   -5000001    1    1    2    0    0 -0.17134683799E+02  0.99273960569E+02  0.29757127558E+03  0.36611689484E+03  0.18800000000E+03 0.  0.
<mgrwt>
<rscale>  0 0.47117775E+03</rscale>
<asrwt>0</asrwt>
<pdfrwt beam="1">  1        2 0.17020007E-01 0.47117775E+03</pdfrwt>
<pdfrwt beam="2">  1       -2 0.66550871E-01 0.47117775E+03</pdfrwt>
<totfact> 0.71805805E+02</totfact>
</mgrwt>
</event>
<event>
 4    1  0.5917727E-005  0.3963028E+03  0.7818608E-02  0.1045067E+00
         -2   -1    0    0    0  501 -0.00000000000E+00  0.00000000000E+00  0.31523980118E+02  0.31523980221E+02  0.25500000000E-02 0.  1.
          2   -1    0    0  501    0  0.00000000000E+00 -0.00000000000E+00 -0.12455273633E+04  0.12455273633E+04  0.25500000000E-02 0. -1.
    5000001    1    1    2    0    0 -0.76886199444E+01  0.60891165934E+02 -0.64687779156E+03  0.67643309069E+03  0.18800000000E+03 0.  0.
   -5000001    1    1    2    0    0  0.76886199444E+01 -0.60891165934E+02 -0.56712559162E+03  0.60061825283E+03  0.18800000000E+03 0.  0.
<mgrwt>
<rscale>  0 0.39630281E+03</rscale>
<asrwt>0</asrwt>
<pdfrwt beam="1">  1        2 0.17793245E+00 0.39630281E+03</pdfrwt>
<pdfrwt beam="2">  1       -2 0.45034265E-02 0.39630281E+03</pdfrwt>
<totfact> 0.48860970E+03</totfact>
</mgrwt>
</event>
<event>
 4    1  0.5917727E-005  0.4802761E+03  0.7818608E-02  0.1019059E+00
          2   -1    0    0  501    0  0.00000000000E+00  0.00000000000E+00  0.26130347816E+04  0.26130347816E+04  0.25500000000E-02 0.  1.
         -2   -1    0    0    0  501 -0.00000000000E+00 -0.00000000000E+00 -0.22068697914E+02  0.22068698061E+02  0.25500000000E-02 0. -1.
    5000001    1    1    2    0    0 -0.52403347446E+02  0.94172685504E+02  0.72773686928E+03  0.75931518912E+03  0.18800000000E+03 0.  0.
   -5000001    1    1    2    0    0  0.52403347446E+02 -0.94172685504E+02  0.18632292144E+04  0.18757882905E+04  0.18800000000E+03 0.  0.
<mgrwt>
<rscale>  0 0.48027607E+03</rscale>
<asrwt>0</asrwt>
<pdfrwt beam="1">  1        2 0.37329088E+00 0.48027607E+03</pdfrwt>
<pdfrwt beam="2">  1       -2 0.31526695E-02 0.48027607E+03</pdfrwt>
<totfact> 0.16986724E+03</totfact>
</mgrwt>
</event>
<event>
 4    1  0.5917727E-005  0.8483738E+03  0.7818608E-02  0.9492522E-01
         -2   -1    0    0    0  501 -0.00000000000E+00  0.00000000000E+00  0.52535076722E+03  0.52535076723E+03  0.25500000000E-02 0. -1.
          2   -1    0    0  501    0  0.00000000000E+00 -0.00000000000E+00 -0.34250359650E+03  0.34250359651E+03  0.25500000000E-02 0.  1.
    5000001    1    1    2    0    0 -0.25327120421E+02  0.28938325467E+03 -0.15958057393E+03  0.38104342363E+03  0.18800000000E+03 0.  0.
   -5000001    1    1    2    0    0  0.25327120421E+02 -0.28938325467E+03  0.34242774465E+03  0.48681094012E+03  0.18800000000E+03 0.  0.
<mgrwt>
<rscale>  0 0.84837380E+03</rscale>
<asrwt>0</asrwt>
<pdfrwt beam="1">  1        2 0.48929085E-01 0.84837380E+03</pdfrwt>
<pdfrwt beam="2">  1       -2 0.75050110E-01 0.84837380E+03</pdfrwt>
<totfact> 0.16499785E+02</totfact>
</mgrwt>
</event>
<event>
 4    1  0.5917727E-005  0.6528007E+03  0.7818608E-02  0.9801538E-01
          2   -1    0    0  501    0  0.00000000000E+00  0.00000000000E+00  0.11948181339E+04  0.11948181339E+04  0.25500000000E-02 0.  1.
         -2   -1    0    0    0  501 -0.00000000000E+00 -0.00000000000E+00 -0.89166027403E+02  0.89166027439E+02  0.25500000000E-02 0. -1.
    5000001    1    1    2    0    0 -0.16005863800E+03  0.16258901507E+03  0.82493404808E+03  0.87630710319E+03  0.18800000000E+03 0.  0.
   -5000001    1    1    2    0    0  0.16005863800E+03 -0.16258901507E+03  0.28071805841E+03  0.40767705814E+03  0.18800000000E+03 0.  0.
<mgrwt>
<rscale>  0 0.65280069E+03</rscale>
<asrwt>0</asrwt>
<pdfrwt beam="1">  1        2 0.17068830E+00 0.65280069E+03</pdfrwt>
<pdfrwt beam="2">  1       -2 0.12738004E-01 0.65280069E+03</pdfrwt>
<totfact> 0.99923485E+02</totfact>
</mgrwt>
</event>
<event>
 4    1  0.5917727E-005  0.9995663E+03  0.7818608E-02  0.9309021E-01
          2   -1    0    0  501    0  0.00000000000E+00  0.00000000000E+00  0.86700719243E+03  0.86700719243E+03  0.25500000000E-02 0.  1.
         -2   -1    0    0    0  501 -0.00000000000E+00 -0.00000000000E+00 -0.28809815724E+03  0.28809815725E+03  0.25500000000E-02 0. -1.
    5000001    1    1    2    0    0  0.24794649213E+03  0.39058060461E+03  0.31281100492E+03  0.58925834441E+03  0.18800000000E+03 0.  0.
   -5000001    1    1    2    0    0 -0.24794649213E+03 -0.39058060461E+03  0.26609803027E+03  0.56584700527E+03  0.18800000000E+03 0.  0.
<mgrwt>
<rscale>  0 0.99956625E+03</rscale>
<asrwt>0</asrwt>
<pdfrwt beam="1">  1        2 0.12385817E+00 0.99956625E+03</pdfrwt>
<pdfrwt beam="2">  1       -2 0.41156879E-01 0.99956625E+03</pdfrwt>
<totfact> 0.19065119E+02</totfact>
</mgrwt>
</event>
<event>
 4    1  0.5917727E-005  0.7269490E+03  0.7818608E-02  0.9672224E-01
         -2   -1    0    0    0  501 -0.00000000000E+00  0.00000000000E+00  0.89376091638E+03  0.89376091638E+03  0.25500000000E-02 0. -1.
          2   -1    0    0  501    0  0.00000000000E+00 -0.00000000000E+00 -0.14781773782E+03  0.14781773785E+03  0.25500000000E-02 0.  1.
    5000001    1    1    2    0    0 -0.30944555633E+03 -0.25031985555E+02  0.34480080533E+03  0.50061437054E+03  0.18800000000E+03 0.  0.
   -5000001    1    1    2    0    0  0.30944555633E+03  0.25031985555E+02  0.40114237323E+03  0.54096428369E+03  0.18800000000E+03 0.  0.
<mgrwt>
<rscale>  0 0.72694901E+03</rscale>
<asrwt>0</asrwt>
<pdfrwt beam="1">  1        2 0.21116820E-01 0.72694901E+03</pdfrwt>
<pdfrwt beam="2">  1       -2 0.12768013E+00 0.72694901E+03</pdfrwt>
<totfact> 0.12244742E+02</totfact>
</mgrwt>
</event>
<event>
 4    1  0.5917727E-005  0.4328827E+03  0.7818608E-02  0.1032953E+00
          2   -1    0    0  501    0  0.00000000000E+00  0.00000000000E+00  0.34491484490E+03  0.34491484491E+03  0.25500000000E-02 0.  1.
         -2   -1    0    0    0  501 -0.00000000000E+00 -0.00000000000E+00 -0.13582149638E+03  0.13582149640E+03  0.25500000000E-02 0. -1.
    5000001    1    1    2    0    0 -0.45964225169E+02 -0.96450451770E+02  0.94161388288E+02  0.23585115367E+03  0.18800000000E+03 0.  0.
   -5000001    1    1    2    0    0  0.45964225169E+02  0.96450451770E+02  0.11493196024E+03  0.24488518764E+03  0.18800000000E+03 0.  0.
<mgrwt>
<rscale>  0 0.43288266E+03</rscale>
<asrwt>0</asrwt>
<pdfrwt beam="1">  1        2 0.49273549E-01 0.43288266E+03</pdfrwt>
<pdfrwt beam="2">  1       -2 0.19403071E-01 0.43288266E+03</pdfrwt>
<totfact> 0.22727697E+03</totfact>
</mgrwt>
</event>
<event>
 4    1  0.5917727E-005  0.4008805E+03  0.7818608E-02  0.1043475E+00
          2   -1    0    0  501    0  0.00000000000E+00  0.00000000000E+00  0.42603509481E+03  0.42603509482E+03  0.25500000000E-02 0.  1.
         -2   -1    0    0    0  501 -0.00000000000E+00 -0.00000000000E+00 -0.94302794704E+02  0.94302794739E+02  0.25500000000E-02 0. -1.
    5000001    1    1    2    0    0 -0.49690959179E+02 -0.45968265085E+02  0.18639025276E+03  0.27325372667E+03  0.18800000000E+03 0.  0.
   -5000001    1    1    2    0    0  0.49690959179E+02  0.45968265085E+02  0.14534204735E+03  0.24708416288E+03  0.18800000000E+03 0.  0.
<mgrwt>
<rscale>  0 0.40088053E+03</rscale>
<asrwt>0</asrwt>
<pdfrwt beam="1">  1        2 0.60862156E-01 0.40088053E+03</pdfrwt>
<pdfrwt beam="2">  1       -2 0.13471828E-01 0.40088053E+03</pdfrwt>
<totfact> 0.33286216E+03</totfact>
</mgrwt>
</event>
<event>
 4    1  0.5917727E-005  0.9584274E+03  0.7818608E-02  0.9355354E-01
          2   -1    0    0  501    0  0.00000000000E+00  0.00000000000E+00  0.22680322785E+03  0.22680322786E+03  0.25500000000E-02 0.  1.
         -2   -1    0    0    0  501 -0.00000000000E+00 -0.00000000000E+00 -0.10125330997E+04  0.10125330997E+04  0.25500000000E-02 0. -1.
    5000001    1    1    2    0    0  0.28036501775E+03 -0.30169330150E+03 -0.18972827342E+03  0.49088105390E+03  0.18800000000E+03 0.  0.
   -5000001    1    1    2    0    0 -0.28036501775E+03  0.30169330150E+03 -0.59600159843E+03  0.74845527366E+03  0.18800000000E+03 0.  0.
<mgrwt>
<rscale>  0 0.95842741E+03</rscale>
<asrwt>0</asrwt>
<pdfrwt beam="1">  1        2 0.32400461E-01 0.95842741E+03</pdfrwt>
<pdfrwt beam="2">  1       -2 0.14464758E+00 0.95842741E+03</pdfrwt>
<totfact> 0.53826812E+01</totfact>
</mgrwt>
</event>
<event>
 4    1  0.5917727E-005  0.6310158E+03  0.7818608E-02  0.9843069E-01
         -2   -1    0    0    0  501 -0.00000000000E+00  0.00000000000E+00  0.81426694428E+02  0.81426694468E+02  0.25500000000E-02 0. -1.
          2   -1    0    0  501    0  0.00000000000E+00 -0.00000000000E+00 -0.12225135049E+04  0.12225135049E+04  0.25500000000E-02 0.  1.
    5000001    1    1    2    0    0 -0.23428175881E+03  0.46837818606E+02 -0.39618515912E+03  0.49938802956E+03  0.18800000000E+03 0.  0.
   -5000001    1    1    2    0    0  0.23428175881E+03 -0.46837818606E+02 -0.74490165137E+03  0.80455216982E+03  0.18800000000E+03 0.  0.
<mgrwt>
<rscale>  0 0.63101580E+03</rscale>
<asrwt>0</asrwt>
<pdfrwt beam="1">  1        2 0.17464478E+00 0.63101580E+03</pdfrwt>
<pdfrwt beam="2">  1       -2 0.11632386E-01 0.63101580E+03</pdfrwt>
<totfact> 0.11208366E+03</totfact>
</mgrwt>
</event>
<event>
 4    1  0.5917727E-005  0.4926747E+03  0.7818608E-02  0.1015709E+00
          2   -1    0    0  501    0  0.00000000000E+00  0.00000000000E+00  0.18009884222E+04  0.18009884222E+04  0.25500000000E-02 0.  1.
         -2   -1    0    0    0  501 -0.00000000000E+00 -0.00000000000E+00 -0.33693767645E+02  0.33693767742E+02  0.25500000000E-02 0. -1.
    5000001    1    1    2    0    0  0.26677089993E+02  0.12248569737E+03  0.12489652791E+04  0.12692409864E+04  0.18800000000E+03 0.  0.
   -5000001    1    1    2    0    0 -0.26677089993E+02 -0.12248569737E+03  0.51832937544E+03  0.56544120352E+03  0.18800000000E+03 0.  0.
<mgrwt>
<rscale>  0 0.49267468E+03</rscale>
<asrwt>0</asrwt>
<pdfrwt beam="1">  1        2 0.25728407E+00 0.49267468E+03</pdfrwt>
<pdfrwt beam="2">  1       -2 0.48133952E-02 0.49267468E+03</pdfrwt>
<totfact> 0.22775934E+03</totfact>
</mgrwt>
</event>
<event>
 4    1  0.5917727E-005  0.5776969E+03  0.7818608E-02  0.9952790E-01
         -2   -1    0    0    0  501 -0.00000000000E+00  0.00000000000E+00  0.34264525051E+02  0.34264525145E+02  0.25500000000E-02 0. -1.
          2   -1    0    0  501    0  0.00000000000E+00 -0.00000000000E+00 -0.24349800781E+04  0.24349800781E+04  0.25500000000E-02 0.  1.
    5000001    1    1    2    0    0  0.20715821519E+03  0.25901783736E+02 -0.14872135561E+04  0.15135169606E+04  0.18800000000E+03 0.  0.
   -5000001    1    1    2    0    0 -0.20715821519E+03 -0.25901783736E+02 -0.91350199696E+03  0.95572764267E+03  0.18800000000E+03 0.  0.
<mgrwt>
<rscale>  0 0.57769693E+03</rscale>
<asrwt>0</asrwt>
<pdfrwt beam="1">  1        2 0.34785419E+00 0.57769693E+03</pdfrwt>
<pdfrwt beam="2">  1       -2 0.48949337E-02 0.57769693E+03</pdfrwt>
<totfact> 0.10613017E+03</totfact>
</mgrwt>
</event>
<event>
 4    1  0.5917727E-005  0.5387437E+03  0.7818608E-02  0.1004133E+00
          2   -1    0    0  501    0  0.00000000000E+00  0.00000000000E+00  0.53121771317E+03  0.53121771317E+03  0.25500000000E-02 0.  1.
         -2   -1    0    0    0  501 -0.00000000000E+00 -0.00000000000E+00 -0.13659407584E+03  0.13659407586E+03  0.25500000000E-02 0. -1.
    5000001    1    1    2    0    0  0.92830246619E+02  0.60720956877E+02  0.16607124231E+01  0.21829165641E+03  0.18800000000E+03 0.  0.
   -5000001    1    1    2    0    0 -0.92830246619E+02 -0.60720956877E+02  0.39296292490E+03  0.44952013263E+03  0.18800000000E+03 0.  0.
<mgrwt>
<rscale>  0 0.53874370E+03</rscale>
<asrwt>0</asrwt>
<pdfrwt beam="1">  1        2 0.75888245E-01 0.53874370E+03</pdfrwt>
<pdfrwt beam="2">  1       -2 0.19513439E-01 0.53874370E+03</pdfrwt>
<totfact> 0.13935049E+03</totfact>
</mgrwt>
</event>
<event>
 4    1  0.5917727E-005  0.5640803E+03  0.7818608E-02  0.9982864E-01
          2   -1    0    0  501    0  0.00000000000E+00  0.00000000000E+00  0.34183046822E+04  0.34183046822E+04  0.25500000000E-02 0.  1.
         -2   -1    0    0    0  501 -0.00000000000E+00 -0.00000000000E+00 -0.23270789401E+02  0.23270789541E+02  0.25500000000E-02 0. -1.
    5000001    1    1    2    0    0  0.10787235203E+03 -0.17242091198E+03  0.20225023757E+04  0.20413782783E+04  0.18800000000E+03 0.  0.
   -5000001    1    1    2    0    0 -0.10787235203E+03  0.17242091198E+03  0.13725315171E+04  0.14001971935E+04  0.18800000000E+03 0.  0.
<mgrwt>
<rscale>  0 0.56408031E+03</rscale>
<asrwt>0</asrwt>
<pdfrwt beam="1">  1        2 0.48832940E+00 0.56408031E+03</pdfrwt>
<pdfrwt beam="2">  1       -2 0.33243974E-02 0.56408031E+03</pdfrwt>
<totfact> 0.56609219E+02</totfact>
</mgrwt>
</event>
<event>
 4    1  0.5917727E-005  0.4829255E+03  0.7818608E-02  0.1018334E+00
         -2   -1    0    0    0  501 -0.00000000000E+00  0.00000000000E+00  0.34315164030E+03  0.34315164031E+03  0.25500000000E-02 0. -1.
          2   -1    0    0  501    0  0.00000000000E+00 -0.00000000000E+00 -0.16990813147E+03  0.16990813149E+03  0.25500000000E-02 0.  1.
    5000001    1    1    2    0    0  0.10814666939E+03  0.10116847172E+03  0.52533921884E+02  0.24501953946E+03  0.18800000000E+03 0.  0.
   -5000001    1    1    2    0    0 -0.10814666939E+03 -0.10116847172E+03  0.12070958695E+03  0.26804023234E+03  0.18800000000E+03 0.  0.
<mgrwt>
<rscale>  0 0.48292548E+03</rscale>
<asrwt>0</asrwt>
<pdfrwt beam="1">  1        2 0.24272591E-01 0.48292548E+03</pdfrwt>
<pdfrwt beam="2">  1       -2 0.49021662E-01 0.48292548E+03</pdfrwt>
<totfact> 0.89592370E+02</totfact>
</mgrwt>
</event>
<event>
 4    1  0.5917727E-005  0.6842426E+03  0.7818608E-02  0.9744565E-01
         -2   -1    0    0    0  501 -0.00000000000E+00  0.00000000000E+00  0.13139741601E+03  0.13139741603E+03  0.25500000000E-02 0. -1.
          2   -1    0    0  501    0  0.00000000000E+00 -0.00000000000E+00 -0.89078610438E+03  0.89078610438E+03  0.25500000000E-02 0.  1.
    5000001    1    1    2    0    0 -0.28070870997E+03 -0.19914334220E+02 -0.30486501849E+03  0.45550042816E+03  0.18800000000E+03 0.  0.
   -5000001    1    1    2    0    0  0.28070870997E+03  0.19914334220E+02 -0.45452366988E+03  0.56668309225E+03  0.18800000000E+03 0.  0.
<mgrwt>
<rscale>  0 0.68424262E+03</rscale>
<asrwt>0</asrwt>
<pdfrwt beam="1">  1        2 0.12725515E+00 0.68424262E+03</pdfrwt>
<pdfrwt beam="2">  1       -2 0.18771060E-01 0.68424262E+03</pdfrwt>
<totfact> 0.78902624E+02</totfact>
</mgrwt>
</event>
<event>
 4    1  0.5917727E-005  0.5345187E+03  0.7818608E-02  0.1005142E+00
          2   -1    0    0  501    0  0.00000000000E+00  0.00000000000E+00  0.15060299035E+04  0.15060299035E+04  0.25500000000E-02 0.  1.
         -2   -1    0    0    0  501 -0.00000000000E+00 -0.00000000000E+00 -0.47427713860E+02  0.47427713928E+02  0.25500000000E-02 0. -1.
    5000001    1    1    2    0    0  0.12943265946E+03 -0.12540927952E+03  0.90375632669E+03  0.94053165750E+03  0.18800000000E+03 0.  0.
   -5000001    1    1    2    0    0 -0.12943265946E+03  0.12540927952E+03  0.55484586294E+03  0.61292595992E+03  0.18800000000E+03 0.  0.
<mgrwt>
<rscale>  0 0.53451868E+03</rscale>
<asrwt>0</asrwt>
<pdfrwt beam="1">  1        2 0.21514713E+00 0.53451868E+03</pdfrwt>
<pdfrwt beam="2">  1       -2 0.67753877E-02 0.53451868E+03</pdfrwt>
<totfact> 0.18873144E+03</totfact>
</mgrwt>
</event>
<event>
 4    1  0.5917727E-005  0.5692150E+03  0.7818608E-02  0.9971417E-01
          2   -1    0    0  501    0  0.00000000000E+00  0.00000000000E+00  0.10601523274E+03  0.10601523277E+03  0.25500000000E-02 0.  1.
         -2   -1    0    0    0  501 -0.00000000000E+00 -0.00000000000E+00 -0.76405456600E+03  0.76405456601E+03  0.25500000000E-02 0. -1.
    5000001    1    1    2    0    0  0.12186121157E+03 -0.17502574053E+03 -0.30889983579E+03  0.41981814311E+03  0.18800000000E+03 0.  0.
   -5000001    1    1    2    0    0 -0.12186121157E+03  0.17502574053E+03 -0.34913949747E+03  0.45025165566E+03  0.18800000000E+03 0.  0.
<mgrwt>
<rscale>  0 0.56921498E+03</rscale>
<asrwt>0</asrwt>
<pdfrwt beam="1">  1        2 0.15145034E-01 0.56921498E+03</pdfrwt>
<pdfrwt beam="2">  1       -2 0.10915065E+00 0.56921498E+03</pdfrwt>
<totfact> 0.26862116E+02</totfact>
</mgrwt>
</event>
<event>
 4    1  0.5917727E-005  0.4140119E+03  0.7818608E-02  0.1039033E+00
          2   -1    0    0  501    0  0.00000000000E+00  0.00000000000E+00  0.10522752024E+04  0.10522752024E+04  0.25500000000E-02 0.  1.
         -2   -1    0    0    0  501 -0.00000000000E+00 -0.00000000000E+00 -0.40722672888E+02  0.40722672968E+02  0.25500000000E-02 0. -1.
    5000001    1    1    2    0    0  0.64203398012E+02  0.55847151780E+02  0.54887230589E+03  0.58638365329E+03  0.18800000000E+03 0.  0.
   -5000001    1    1    2    0    0 -0.64203398012E+02 -0.55847151780E+02  0.46268022361E+03  0.50661422206E+03  0.18800000000E+03 0.  0.
<mgrwt>
<rscale>  0 0.41401188E+03</rscale>
<asrwt>0</asrwt>
<pdfrwt beam="1">  1        2 0.15032500E+00 0.41401188E+03</pdfrwt>
<pdfrwt beam="2">  1       -2 0.58175258E-02 0.41401188E+03</pdfrwt>
<totfact> 0.42351328E+03</totfact>
</mgrwt>
</event>
<event>
 4    1  0.5917727E-005  0.5715719E+03  0.7818608E-02  0.9966206E-01
          2   -1    0    0  501    0  0.00000000000E+00  0.00000000000E+00  0.16609901513E+04  0.16609901513E+04  0.25500000000E-02 0.  1.
         -2   -1    0    0    0  501 -0.00000000000E+00 -0.00000000000E+00 -0.49171633564E+02  0.49171633630E+02  0.25500000000E-02 0. -1.
    5000001    1    1    2    0    0 -0.12193960491E+03 -0.14786368395E+03  0.51280206777E+03  0.57882890130E+03  0.18800000000E+03 0.  0.
   -5000001    1    1    2    0    0  0.12193960491E+03  0.14786368395E+03  0.10990164500E+04  0.11313328836E+04  0.18800000000E+03 0.  0.
<mgrwt>
<rscale>  0 0.57157186E+03</rscale>
<asrwt>0</asrwt>
<pdfrwt beam="1">  1        2 0.23728430E+00 0.57157186E+03</pdfrwt>
<pdfrwt beam="2">  1       -2 0.70245194E-02 0.57157186E+03</pdfrwt>
<totfact> 0.14825370E+03</totfact>
</mgrwt>
</event>
<event>
 4    1  0.5917727E-005  0.6404140E+03  0.7818608E-02  0.9824935E-01
          2   -1    0    0  501    0  0.00000000000E+00  0.00000000000E+00  0.28491350347E+04  0.28491350347E+04  0.25500000000E-02 0.  1.
         -2   -1    0    0    0  501 -0.00000000000E+00 -0.00000000000E+00 -0.35987243705E+02  0.35987243795E+02  0.25500000000E-02 0. -1.
    5000001    1    1    2    0    0 -0.15096696191E+03  0.14730496013E+03  0.72783253487E+03  0.78075218455E+03  0.18800000000E+03 0.  0.
   -5000001    1    1    2    0    0  0.15096696191E+03 -0.14730496013E+03  0.20853152561E+04  0.21043700939E+04  0.18800000000E+03 0.  0.
<mgrwt>
<rscale>  0 0.64041398E+03</rscale>
<asrwt>0</asrwt>
<pdfrwt beam="1">  1        2 0.40701919E+00 0.64041398E+03</pdfrwt>
<pdfrwt beam="2">  1       -2 0.51410360E-02 0.64041398E+03</pdfrwt>
<totfact> 0.59551636E+02</totfact>
</mgrwt>
</event>
<event>
 4    1  0.5917727E-005  0.1575846E+04  0.7818608E-02  0.8835526E-01
          2   -1    0    0  501    0  0.00000000000E+00  0.00000000000E+00  0.97019480109E+03  0.97019480109E+03  0.25500000000E-02 0.  1.
         -2   -1    0    0    0  501 -0.00000000000E+00 -0.00000000000E+00 -0.63989460254E+03  0.63989460254E+03  0.25500000000E-02 0. -1.
    5000001    1    1    2    0    0  0.54074186968E+03  0.53389965458E+03  0.73605077751E+02  0.78626478890E+03  0.18800000000E+03 0.  0.
   -5000001    1    1    2    0    0 -0.54074186968E+03 -0.53389965458E+03  0.25669512080E+03  0.82382461473E+03  0.18800000000E+03 0.  0.
<mgrwt>
<rscale>  0 0.15758457E+04</rscale>
<asrwt>0</asrwt>
<pdfrwt beam="1">  1        2 0.13859926E+00 0.15758457E+04</pdfrwt>
<pdfrwt beam="2">  1       -2 0.91413516E-01 0.15758457E+04</pdfrwt>
<totfact> 0.28778027E+01</totfact>
</mgrwt>
</event>
<event>
 4    1  0.5917727E-005  0.5817445E+03  0.7818608E-02  0.9944021E-01
         -2   -1    0    0    0  501 -0.00000000000E+00  0.00000000000E+00  0.82829156901E+02  0.82829156940E+02  0.25500000000E-02 0. -1.
          2   -1    0    0  501    0  0.00000000000E+00 -0.00000000000E+00 -0.10214598885E+04  0.10214598885E+04  0.25500000000E-02 0.  1.
    5000001    1    1    2    0    0 -0.13166838915E+03  0.17241036826E+03 -0.55836599454E+03  0.62783635101E+03  0.18800000000E+03 0.  0.
   -5000001    1    1    2    0    0  0.13166838915E+03 -0.17241036826E+03 -0.38026473706E+03  0.47645269443E+03  0.18800000000E+03 0.  0.
<mgrwt>
<rscale>  0 0.58174448E+03</rscale>
<asrwt>0</asrwt>
<pdfrwt beam="1">  1        2 0.14592283E+00 0.58174448E+03</pdfrwt>
<pdfrwt beam="2">  1       -2 0.11832737E-01 0.58174448E+03</pdfrwt>
<totfact> 0.14258125E+03</totfact>
</mgrwt>
</event>
<event>
 4    1  0.5917727E-005  0.4348502E+03  0.7818608E-02  0.1032339E+00
          2   -1    0    0  501    0  0.00000000000E+00  0.00000000000E+00  0.45629325754E+03  0.45629325755E+03  0.25500000000E-02 0.  1.
         -2   -1    0    0    0  501 -0.00000000000E+00 -0.00000000000E+00 -0.10360372757E+03  0.10360372761E+03  0.25500000000E-02 0. -1.
    5000001    1    1    2    0    0  0.86840463142E+02 -0.51243623715E+02  0.23039951774E+03  0.31399858723E+03  0.18800000000E+03 0.  0.
   -5000001    1    1    2    0    0 -0.86840463142E+02  0.51243623715E+02  0.12229001223E+03  0.24589839792E+03  0.18800000000E+03 0.  0.
<mgrwt>
<rscale>  0 0.43485024E+03</rscale>
<asrwt>0</asrwt>
<pdfrwt beam="1">  1        2 0.65184750E-01 0.43485024E+03</pdfrwt>
<pdfrwt beam="2">  1       -2 0.14800533E-01 0.43485024E+03</pdfrwt>
<totfact> 0.26426330E+03</totfact>
</mgrwt>
</event>
<event>
 4    1  0.5917727E-005  0.5105122E+03  0.7818608E-02  0.1011071E+00
         -2   -1    0    0    0  501 -0.00000000000E+00  0.00000000000E+00  0.81445339199E+02  0.81445339239E+02  0.25500000000E-02 0.  1.
          2   -1    0    0  501    0  0.00000000000E+00 -0.00000000000E+00 -0.79999273720E+03  0.79999273720E+03  0.25500000000E-02 0. -1.
    5000001    1    1    2    0    0 -0.15521070256E+03 -0.67268389770E+02 -0.29955609872E+03  0.39203731294E+03  0.18800000000E+03 0.  0.
   -5000001    1    1    2    0    0  0.15521070256E+03  0.67268389770E+02 -0.41899129928E+03  0.48940076351E+03  0.18800000000E+03 0.  0.
<mgrwt>
<rscale>  0 0.51051221E+03</rscale>
<asrwt>0</asrwt>
<pdfrwt beam="1">  1        2 0.11428467E+00 0.51051221E+03</pdfrwt>
<pdfrwt beam="2">  1       -2 0.11635049E-01 0.51051221E+03</pdfrwt>
<totfact> 0.20340692E+03</totfact>
</mgrwt>
</event>
<event>
 4    1  0.5917727E-005  0.5155203E+03  0.7818608E-02  0.1009805E+00
          2   -1    0    0  501    0  0.00000000000E+00  0.00000000000E+00  0.43560435346E+02  0.43560435421E+02  0.25500000000E-02 0.  1.
         -2   -1    0    0    0  501 -0.00000000000E+00 -0.00000000000E+00 -0.15252440827E+04  0.15252440827E+04  0.25500000000E-02 0. -1.
    5000001    1    1    2    0    0  0.98267144074E+02 -0.10253946206E+03 -0.42275609693E+03  0.48398087811E+03  0.18800000000E+03 0.  0.
   -5000001    1    1    2    0    0 -0.98267144074E+02  0.10253946206E+03 -0.10589275504E+04  0.10848236400E+04  0.18800000000E+03 0.  0.
<mgrwt>
<rscale>  0 0.51552031E+03</rscale>
<asrwt>0</asrwt>
<pdfrwt beam="1">  1        2 0.62229203E-02 0.51552031E+03</pdfrwt>
<pdfrwt beam="2">  1       -2 0.21789198E+00 0.51552031E+03</pdfrwt>
<totfact> 0.12991944E+02</totfact>
</mgrwt>
</event>
<event>
 4    1  0.5917727E-005  0.5239068E+03  0.7818608E-02  0.1007721E+00
         -2   -1    0    0    0  501 -0.00000000000E+00  0.00000000000E+00  0.72512474036E+03  0.72512474036E+03  0.25500000000E-02 0. -1.
          2   -1    0    0  501    0  0.00000000000E+00 -0.00000000000E+00 -0.94631406349E+02  0.94631406383E+02  0.25500000000E-02 0.  1.
    5000001    1    1    2    0    0  0.13955759055E+03 -0.11607455263E+03  0.34349591689E+03  0.43160522213E+03  0.18800000000E+03 0.  0.
   -5000001    1    1    2    0    0 -0.13955759055E+03  0.11607455263E+03  0.28699741712E+03  0.38815092462E+03  0.18800000000E+03 0.  0.
<mgrwt>
<rscale>  0 0.52390676E+03</rscale>
<asrwt>0</asrwt>
<pdfrwt beam="1">  1        2 0.13518773E-01 0.52390676E+03</pdfrwt>
<pdfrwt beam="2">  1       -2 0.10358925E+00 0.52390676E+03</pdfrwt>
<totfact> 0.34979909E+02</totfact>
</mgrwt>
</event>
<event>
 4    1  0.5917727E-005  0.7400193E+03  0.7818608E-02  0.9651140E-01
         -2   -1    0    0    0  501 -0.00000000000E+00  0.00000000000E+00  0.69976282133E+03  0.69976282134E+03  0.25500000000E-02 0. -1.
          2   -1    0    0  501    0  0.00000000000E+00 -0.00000000000E+00 -0.19564790766E+03  0.19564790768E+03  0.25500000000E-02 0.  1.
    5000001    1    1    2    0    0  0.27447773815E+03  0.13714562544E+03  0.14785705132E+03  0.38904069060E+03  0.18800000000E+03 0.  0.
   -5000001    1    1    2    0    0 -0.27447773815E+03 -0.13714562544E+03  0.35625786235E+03  0.50637003842E+03  0.18800000000E+03 0.  0.
<mgrwt>
<rscale>  0 0.74001928E+03</rscale>
<asrwt>0</asrwt>
<pdfrwt beam="1">  1        2 0.27949701E-01 0.74001928E+03</pdfrwt>
<pdfrwt beam="2">  1       -2 0.99966118E-01 0.74001928E+03</pdfrwt>
<totfact> 0.16088803E+02</totfact>
</mgrwt>
</event>
<event>
 4    1  0.5917727E-005  0.5363811E+03  0.7818608E-02  0.1004696E+00
          2   -1    0    0  501    0  0.00000000000E+00  0.00000000000E+00  0.10681515663E+04  0.10681515663E+04  0.25500000000E-02 0.  1.
         -2   -1    0    0    0  501 -0.00000000000E+00 -0.00000000000E+00 -0.67337056514E+02  0.67337056562E+02  0.25500000000E-02 0. -1.
    5000001    1    1    2    0    0 -0.97030526614E+02  0.16447031279E+03  0.52328352493E+03  0.58790735184E+03  0.18800000000E+03 0.  0.
   -5000001    1    1    2    0    0  0.97030526614E+02 -0.16447031279E+03  0.47753098490E+03  0.54758127107E+03  0.18800000000E+03 0.  0.
<mgrwt>
<rscale>  0 0.53638114E+03</rscale>
<asrwt>0</asrwt>
<pdfrwt beam="1">  1        2 0.15259307E+00 0.53638114E+03</pdfrwt>
<pdfrwt beam="2">  1       -2 0.96195800E-02 0.53638114E+03</pdfrwt>
<totfact> 0.18746451E+03</totfact>
</mgrwt>
</event>
<event>
 4    1  0.5917727E-005  0.6463110E+03  0.7818608E-02  0.9813726E-01
         -2   -1    0    0    0  501 -0.00000000000E+00  0.00000000000E+00  0.11606773172E+03  0.11606773175E+03  0.25500000000E-02 0. -1.
          2   -1    0    0  501    0  0.00000000000E+00 -0.00000000000E+00 -0.89972881613E+03  0.89972881613E+03  0.25500000000E-02 0.  1.
    5000001    1    1    2    0    0  0.12488649230E+03  0.14350615177E+03 -0.67688576663E+03  0.72781109679E+03  0.18800000000E+03 0.  0.
   -5000001    1    1    2    0    0 -0.12488649230E+03 -0.14350615177E+03 -0.10677531778E+03  0.28798545109E+03  0.18800000000E+03 0.  0.
<mgrwt>
<rscale>  0 0.64631102E+03</rscale>
<asrwt>0</asrwt>
<pdfrwt beam="1">  1        2 0.12853268E+00 0.64631102E+03</pdfrwt>
<pdfrwt beam="2">  1       -2 0.16581105E-01 0.64631102E+03</pdfrwt>
<totfact> 0.96440088E+02</totfact>
</mgrwt>
</event>
<event>
 4    1  0.5917727E-005  0.1129246E+04  0.7818608E-02  0.9177146E-01
         -2   -1    0    0    0  501 -0.00000000000E+00  0.00000000000E+00  0.65494145844E+03  0.65494145845E+03  0.25500000000E-02 0. -1.
          2   -1    0    0  501    0  0.00000000000E+00 -0.00000000000E+00 -0.48675999122E+03  0.48675999122E+03  0.25500000000E-02 0.  1.
    5000001    1    1    2    0    0 -0.52228822064E+03 -0.93679897093E+02  0.40086082944E+02  0.56436849893E+03  0.18800000000E+03 0.  0.
   -5000001    1    1    2    0    0  0.52228822064E+03  0.93679897093E+02  0.12809538428E+03  0.57733295074E+03  0.18800000000E+03 0.  0.
<mgrwt>
<rscale>  0 0.11292463E+04</rscale>
<asrwt>0</asrwt>
<pdfrwt beam="1">  1        2 0.69537141E-01 0.11292463E+04</pdfrwt>
<pdfrwt beam="2">  1       -2 0.93563066E-01 0.11292463E+04</pdfrwt>
<totfact> 0.66354864E+01</totfact>
</mgrwt>
</event>
<event>
 4    1  0.5917727E-005  0.9635906E+03  0.7818608E-02  0.9349405E-01
          2   -1    0    0  501    0  0.00000000000E+00  0.00000000000E+00  0.59718937842E+03  0.59718937843E+03  0.25500000000E-02 0.  1.
         -2   -1    0    0    0  501 -0.00000000000E+00 -0.00000000000E+00 -0.38869866299E+03  0.38869866300E+03  0.25500000000E-02 0. -1.
    5000001    1    1    2    0    0  0.34870796242E+03 -0.13037792448E+03  0.35104713024E+03  0.54513643604E+03  0.18800000000E+03 0.  0.
   -5000001    1    1    2    0    0 -0.34870796242E+03  0.13037792448E+03 -0.14255641481E+03  0.44075160539E+03  0.18800000000E+03 0.  0.
<mgrwt>
<rscale>  0 0.96359060E+03</rscale>
<asrwt>0</asrwt>
<pdfrwt beam="1">  1        2 0.85312769E-01 0.96359060E+03</pdfrwt>
<pdfrwt beam="2">  1       -2 0.55528380E-01 0.96359060E+03</pdfrwt>
<totfact> 0.16636739E+02</totfact>
</mgrwt>
</event>
<event>
 4    1  0.5917727E-005  0.7220885E+03  0.7818608E-02  0.9680186E-01
          2   -1    0    0  501    0  0.00000000000E+00  0.00000000000E+00  0.76600815984E+03  0.76600815984E+03  0.25500000000E-02 0.  1.
         -2   -1    0    0    0  501 -0.00000000000E+00 -0.00000000000E+00 -0.17017174535E+03  0.17017174537E+03  0.25500000000E-02 0. -1.
    5000001    1    1    2    0    0  0.25874453424E+03 -0.15474335325E+03  0.21475364470E+03  0.41515944803E+03  0.18800000000E+03 0.  0.
   -5000001    1    1    2    0    0 -0.25874453424E+03  0.15474335325E+03  0.38108276979E+03  0.52102045718E+03  0.18800000000E+03 0.  0.
<mgrwt>
<rscale>  0 0.72208849E+03</rscale>
<asrwt>0</asrwt>
<pdfrwt beam="1">  1        2 0.10942973E+00 0.72208849E+03</pdfrwt>
<pdfrwt beam="2">  1       -2 0.24310250E-01 0.72208849E+03</pdfrwt>
<totfact> 0.60803775E+02</totfact>
</mgrwt>
</event>
<event>
 4    1  0.5917727E-005  0.5165412E+03  0.7818608E-02  0.1009549E+00
         -2   -1    0    0    0  501 -0.00000000000E+00  0.00000000000E+00  0.24870498344E+02  0.24870498474E+02  0.25500000000E-02 0. -1.
          2   -1    0    0  501    0  0.00000000000E+00 -0.00000000000E+00 -0.26820416788E+04  0.26820416788E+04  0.25500000000E-02 0.  1.
    5000001    1    1    2    0    0  0.75528426047E+02  0.15404218383E+03 -0.10985912641E+04  0.11276880345E+04  0.18800000000E+03 0.  0.
   -5000001    1    1    2    0    0 -0.75528426047E+02 -0.15404218383E+03 -0.15585799163E+04  0.15792241428E+04  0.18800000000E+03 0.  0.
<mgrwt>
<rscale>  0 0.51654124E+03</rscale>
<asrwt>0</asrwt>
<pdfrwt beam="1">  1        2 0.38314863E+00 0.51654124E+03</pdfrwt>
<pdfrwt beam="2">  1       -2 0.35529301E-02 0.51654124E+03</pdfrwt>
<totfact> 0.13013943E+03</totfact>
</mgrwt>
</event>
<event>
 4    1  0.5917727E-005  0.4840037E+03  0.7818608E-02  0.1018041E+00
         -2   -1    0    0    0  501 -0.00000000000E+00  0.00000000000E+00  0.80654891322E+02  0.80654891362E+02  0.25500000000E-02 0. -1.
          2   -1    0    0  501    0  0.00000000000E+00 -0.00000000000E+00 -0.72611717835E+03  0.72611717835E+03  0.25500000000E-02 0.  1.
    5000001    1    1    2    0    0  0.47880380862E+02 -0.13745325232E+03 -0.24753740928E+03  0.34322688770E+03  0.18800000000E+03 0.  0.
   -5000001    1    1    2    0    0 -0.47880380862E+02  0.13745325232E+03 -0.39792487775E+03  0.46354518202E+03  0.18800000000E+03 0.  0.
<mgrwt>
<rscale>  0 0.48400373E+03</rscale>
<asrwt>0</asrwt>
<pdfrwt beam="1">  1        2 0.10373102E+00 0.48400373E+03</pdfrwt>
<pdfrwt beam="2">  1       -2 0.11522128E-01 0.48400373E+03</pdfrwt>
<totfact> 0.23321455E+03</totfact>
</mgrwt>
</event>
<event>
 4    1  0.5917727E-005  0.7307527E+03  0.7818608E-02  0.9666040E-01
         -2   -1    0    0    0  501 -0.00000000000E+00  0.00000000000E+00  0.67191217703E+02  0.67191217752E+02  0.25500000000E-02 0. -1.
          2   -1    0    0  501    0  0.00000000000E+00 -0.00000000000E+00 -0.19868651717E+04  0.19868651717E+04  0.25500000000E-02 0.  1.
    5000001    1    1    2    0    0 -0.16088760367E+03 -0.18726563400E+03 -0.41767524540E+03  0.52033628483E+03  0.18800000000E+03 0.  0.
   -5000001    1    1    2    0    0  0.16088760367E+03  0.18726563400E+03 -0.15019987086E+04  0.15337201046E+04  0.18800000000E+03 0.  0.
<mgrwt>
<rscale>  0 0.73075274E+03</rscale>
<asrwt>0</asrwt>
<pdfrwt beam="1">  1        2 0.28383785E+00 0.73075274E+03</pdfrwt>
<pdfrwt beam="2">  1       -2 0.95987466E-02 0.73075274E+03</pdfrwt>
<totfact> 0.61025104E+02</totfact>
</mgrwt>
</event>
<event>
 4    1  0.5917727E-005  0.4299634E+03  0.7818608E-02  0.1033872E+00
          2   -1    0    0  501    0  0.00000000000E+00  0.00000000000E+00  0.10138688601E+04  0.10138688601E+04  0.25500000000E-02 0.  1.
         -2   -1    0    0    0  501 -0.00000000000E+00 -0.00000000000E+00 -0.45584928009E+02  0.45584928080E+02  0.25500000000E-02 0. -1.
    5000001    1    1    2    0    0  0.33711546134E+02  0.98432509244E+02  0.46712181208E+03  0.51417138635E+03  0.18800000000E+03 0.  0.
   -5000001    1    1    2    0    0 -0.33711546134E+02 -0.98432509244E+02  0.50116212003E+03  0.54528240186E+03  0.18800000000E+03 0.  0.
<mgrwt>
<rscale>  0 0.42996344E+03</rscale>
<asrwt>0</asrwt>
<pdfrwt beam="1">  1        2 0.14483838E+00 0.42996344E+03</pdfrwt>
<pdfrwt beam="2">  1       -2 0.65121338E-02 0.42996344E+03</pdfrwt>
<totfact> 0.37459109E+03</totfact>
</mgrwt>
</event>
<event>
 4    1  0.5917727E-005  0.5562024E+03  0.7818608E-02  0.1000068E+00
         -2   -1    0    0    0  501 -0.00000000000E+00  0.00000000000E+00  0.34942769704E+02  0.34942769797E+02  0.25500000000E-02 0. -1.
          2   -1    0    0  501    0  0.00000000000E+00 -0.00000000000E+00 -0.22133413400E+04  0.22133413400E+04  0.25500000000E-02 0.  1.
    5000001    1    1    2    0    0  0.80673480432E+02 -0.13541293834E+03 -0.16185800460E+04  0.16370675734E+04  0.18800000000E+03 0.  0.
   -5000001    1    1    2    0    0 -0.80673480432E+02  0.13541293834E+03 -0.55981852427E+03  0.61121653646E+03  0.18800000000E+03 0.  0.
<mgrwt>
<rscale>  0 0.55620240E+03</rscale>
<asrwt>0</asrwt>
<pdfrwt beam="1">  1        2 0.31619153E+00 0.55620240E+03</pdfrwt>
<pdfrwt beam="2">  1       -2 0.49918256E-02 0.55620240E+03</pdfrwt>
<totfact> 0.13347578E+03</totfact>
</mgrwt>
</event>
<event>
 4    1  0.5917727E-005  0.5284084E+03  0.7818608E-02  0.1006619E+00
          2   -1    0    0  501    0  0.00000000000E+00  0.00000000000E+00  0.20637355817E+04  0.20637355817E+04  0.25500000000E-02 0. -1.
         -2   -1    0    0    0  501 -0.00000000000E+00 -0.00000000000E+00 -0.33824028622E+02  0.33824028718E+02  0.25500000000E-02 0.  1.
    5000001    1    1    2    0    0  0.13571223179E+03  0.63622237489E+02  0.58021415857E+03  0.62805896918E+03  0.18800000000E+03 0.  0.
   -5000001    1    1    2    0    0 -0.13571223179E+03 -0.63622237489E+02  0.14496973945E+04  0.14695006413E+04  0.18800000000E+03 0.  0.
<mgrwt>
<rscale>  0 0.52840837E+03</rscale>
<asrwt>0</asrwt>
<pdfrwt beam="1">  1        2 0.29481939E+00 0.52840837E+03</pdfrwt>
<pdfrwt beam="2">  1       -2 0.48320037E-02 0.52840837E+03</pdfrwt>
<totfact> 0.16706669E+03</totfact>
</mgrwt>
</event>
<event>
 4    1  0.5917727E-005  0.8351092E+03  0.7818608E-02  0.9510544E-01
         -2   -1    0    0    0  501 -0.00000000000E+00  0.00000000000E+00  0.11272594340E+04  0.11272594340E+04  0.25500000000E-02 0. -1.
          2   -1    0    0  501    0  0.00000000000E+00 -0.00000000000E+00 -0.15466877997E+03  0.15466877999E+03  0.25500000000E-02 0.  1.
    5000001    1    1    2    0    0  0.29891697847E+03 -0.84472955095E+02  0.80282990633E+03  0.88111684733E+03  0.18800000000E+03 0.  0.
   -5000001    1    1    2    0    0 -0.29891697847E+03  0.84472955095E+02  0.16976074766E+03  0.40081136661E+03  0.18800000000E+03 0.  0.
<mgrwt>
<rscale>  0 0.83510919E+03</rscale>
<asrwt>0</asrwt>
<pdfrwt beam="1">  1        2 0.22095539E-01 0.83510919E+03</pdfrwt>
<pdfrwt beam="2">  1       -2 0.16103707E+00 0.83510919E+03</pdfrwt>
<totfact> 0.63068208E+01</totfact>
</mgrwt>
</event>
<event>
 4    1  0.5917727E-005  0.5967105E+03  0.7818608E-02  0.9912254E-01
          2   -1    0    0  501    0  0.00000000000E+00  0.00000000000E+00  0.17963034784E+04  0.17963034784E+04  0.25500000000E-02 0.  1.
         -2   -1    0    0    0  501 -0.00000000000E+00 -0.00000000000E+00 -0.49555025557E+02  0.49555025622E+02  0.25500000000E-02 0. -1.
    5000001    1    1    2    0    0 -0.20751071667E+03  0.95258473467E+02  0.99464895210E+03  0.10376923495E+04  0.18800000000E+03 0.  0.
   -5000001    1    1    2    0    0  0.20751071667E+03 -0.95258473467E+02  0.75209950079E+03  0.80816615457E+03  0.18800000000E+03 0.  0.
<mgrwt>
<rscale>  0 0.59671053E+03</rscale>
<asrwt>0</asrwt>
<pdfrwt beam="1">  1        2 0.25661477E+00 0.59671053E+03</pdfrwt>
<pdfrwt beam="2">  1       -2 0.70792897E-02 0.59671053E+03</pdfrwt>
<totfact> 0.12490954E+03</totfact>
</mgrwt>
</event>
<event>
 4    1  0.5917727E-005  0.9870979E+03  0.7818608E-02  0.9322810E-01
         -2   -1    0    0    0  501 -0.00000000000E+00  0.00000000000E+00  0.90339445026E+02  0.90339445062E+02  0.25500000000E-02 0. -1.
          2   -1    0    0  501    0  0.00000000000E+00 -0.00000000000E+00 -0.26963921468E+04  0.26963921468E+04  0.25500000000E-02 0.  1.
    5000001    1    1    2    0    0  0.39729340714E+03 -0.19630881053E+03 -0.99547889011E+03  0.11057583014E+04  0.18800000000E+03 0.  0.
   -5000001    1    1    2    0    0 -0.39729340714E+03  0.19630881053E+03 -0.16105738117E+04  0.16809732905E+04  0.18800000000E+03 0.  0.
<mgrwt>
<rscale>  0 0.98709791E+03</rscale>
<asrwt>0</asrwt>
<pdfrwt beam="1">  1        2 0.38519883E+00 0.98709791E+03</pdfrwt>
<pdfrwt beam="2">  1       -2 0.12905637E-01 0.98709791E+03</pdfrwt>
<totfact> 0.15863644E+02</totfact>
</mgrwt>
</event>
<event>
 4    1  0.5917727E-005  0.5498124E+03  0.7818608E-02  0.1001537E+00
         -2   -1    0    0    0  501 -0.00000000000E+00  0.00000000000E+00  0.50966740609E+02  0.50966740672E+02  0.25500000000E-02 0. -1.
          2   -1    0    0  501    0  0.00000000000E+00 -0.00000000000E+00 -0.14827990059E+04  0.14827990059E+04  0.25500000000E-02 0.  1.
    5000001    1    1    2    0    0 -0.22308178859E+02 -0.19929708397E+03 -0.72575910481E+03  0.77607168531E+03  0.18800000000E+03 0.  0.
   -5000001    1    1    2    0    0  0.22308178859E+02  0.19929708397E+03 -0.70607316047E+03  0.75769406125E+03  0.18800000000E+03 0.  0.
<mgrwt>
<rscale>  0 0.54981245E+03</rscale>
<asrwt>0</asrwt>
<pdfrwt beam="1">  1        2 0.21182840E+00 0.54981245E+03</pdfrwt>
<pdfrwt beam="2">  1       -2 0.72809638E-02 0.54981245E+03</pdfrwt>
<totfact> 0.17315889E+03</totfact>
</mgrwt>
</event>
<event>
 4    1  0.5917727E-005  0.7962298E+03  0.7818608E-02  0.9565490E-01
         -2   -1    0    0    0  501 -0.00000000000E+00  0.00000000000E+00  0.43803073946E+03  0.43803073946E+03  0.25500000000E-02 0.  1.
          2   -1    0    0  501    0  0.00000000000E+00 -0.00000000000E+00 -0.36183644898E+03  0.36183644898E+03  0.25500000000E-02 0. -1.
    5000001    1    1    2    0    0 -0.31435941273E+03 -0.14351297396E+03 -0.23285781194E+02  0.39408633784E+03  0.18800000000E+03 0.  0.
   -5000001    1    1    2    0    0  0.31435941273E+03  0.14351297396E+03  0.99480071676E+02  0.40578085061E+03  0.18800000000E+03 0.  0.
<mgrwt>
<rscale>  0 0.79622983E+03</rscale>
<asrwt>0</asrwt>
<pdfrwt beam="1">  1        2 0.51690921E-01 0.79622983E+03</pdfrwt>
<pdfrwt beam="2">  1       -2 0.62575820E-01 0.79622983E+03</pdfrwt>
<totfact> 0.23084091E+02</totfact>
</mgrwt>
</event>
<event>
 4    1  0.5917727E-005  0.4772499E+03  0.7818608E-02  0.1019894E+00
          2   -1    0    0  501    0  0.00000000000E+00  0.00000000000E+00  0.25693732081E+04  0.25693732081E+04  0.25500000000E-02 0.  1.
         -2   -1    0    0    0  501 -0.00000000000E+00 -0.00000000000E+00 -0.22161769372E+02  0.22161769519E+02  0.25500000000E-02 0. -1.
    5000001    1    1    2    0    0  0.60914405430E+02  0.12163027604E+03  0.97159173769E+03  0.99891891242E+03  0.18800000000E+03 0.  0.
   -5000001    1    1    2    0    0 -0.60914405430E+02 -0.12163027604E+03  0.15756197010E+04  0.15926160652E+04  0.18800000000E+03 0.  0.
<mgrwt>
<rscale>  0 0.47724986E+03</rscale>
<asrwt>0</asrwt>
<pdfrwt beam="1">  1        2 0.36705316E+00 0.47724986E+03</pdfrwt>
<pdfrwt beam="2">  1       -2 0.31659684E-02 0.47724986E+03</pdfrwt>
<totfact> 0.17776934E+03</totfact>
</mgrwt>
</event>
<event>
 4    1  0.5917727E-005  0.4774996E+03  0.7818608E-02  0.1019825E+00
          2   -1    0    0  501    0  0.00000000000E+00  0.00000000000E+00  0.37409345123E+03  0.37409345124E+03  0.25500000000E-02 0.  1.
         -2   -1    0    0    0  501 -0.00000000000E+00 -0.00000000000E+00 -0.15237229748E+03  0.15237229751E+03  0.25500000000E-02 0. -1.
    5000001    1    1    2    0    0  0.26355373103E+02 -0.14125256264E+03  0.14591023708E+03  0.27799404567E+03  0.18800000000E+03 0.  0.
   -5000001    1    1    2    0    0 -0.26355373103E+02  0.14125256264E+03  0.75810916661E+02  0.24847170307E+03  0.18800000000E+03 0.  0.
<mgrwt>
<rscale>  0 0.47749965E+03</rscale>
<asrwt>0</asrwt>
<pdfrwt beam="1">  1        2 0.53441921E-01 0.47749965E+03</pdfrwt>
<pdfrwt beam="2">  1       -2 0.21767471E-01 0.47749965E+03</pdfrwt>
<totfact> 0.17041581E+03</totfact>
</mgrwt>
</event>
<event>
 4    1  0.5917727E-005  0.5217720E+03  0.7818608E-02  0.1008247E+00
         -2   -1    0    0    0  501 -0.00000000000E+00  0.00000000000E+00  0.55454353811E+02  0.55454353870E+02  0.25500000000E-02 0. -1.
          2   -1    0    0  501    0  0.00000000000E+00 -0.00000000000E+00 -0.12273430494E+04  0.12273430494E+04  0.25500000000E-02 0.  1.
    5000001    1    1    2    0    0 -0.13962188782E+03  0.10308669428E+03 -0.46067027437E+03  0.52695563360E+03  0.18800000000E+03 0.  0.
   -5000001    1    1    2    0    0  0.13962188782E+03 -0.10308669428E+03 -0.71121842118E+03  0.75584176963E+03  0.18800000000E+03 0.  0.
<mgrwt>
<rscale>  0 0.52177204E+03</rscale>
<asrwt>0</asrwt>
<pdfrwt beam="1">  1        2 0.17533471E+00 0.52177204E+03</pdfrwt>
<pdfrwt beam="2">  1       -2 0.79220513E-02 0.52177204E+03</pdfrwt>
<totfact> 0.20764494E+03</totfact>
</mgrwt>
</event>
<event>
 4    1  0.5917727E-005  0.6570546E+03  0.7818608E-02  0.9793631E-01
          2   -1    0    0  501    0  0.00000000000E+00  0.00000000000E+00  0.12995106443E+04  0.12995106443E+04  0.25500000000E-02 0.  1.
         -2   -1    0    0    0  501 -0.00000000000E+00 -0.00000000000E+00 -0.83054478354E+02  0.83054478393E+02  0.25500000000E-02 0. -1.
    5000001    1    1    2    0    0  0.75905950537E+02  0.29019168284E+02  0.67725151822E+02  0.21571861682E+03  0.18800000000E+03 0.  0.
   -5000001    1    1    2    0    0 -0.75905950537E+02 -0.29019168284E+02  0.11487310141E+04  0.11668465059E+04  0.18800000000E+03 0.  0.
<mgrwt>
<rscale>  0 0.65705458E+03</rscale>
<asrwt>0</asrwt>
<pdfrwt beam="1">  1        2 0.18564439E+00 0.65705458E+03</pdfrwt>
<pdfrwt beam="2">  1       -2 0.11864925E-01 0.65705458E+03</pdfrwt>
<totfact> 0.98303512E+02</totfact>
</mgrwt>
</event>
<event>
 4    1  0.5917727E-005  0.4051921E+03  0.7818608E-02  0.1041997E+00
          2   -1    0    0  501    0  0.00000000000E+00  0.00000000000E+00  0.12690263753E+04  0.12690263753E+04  0.25500000000E-02 0.  1.
         -2   -1    0    0    0  501 -0.00000000000E+00 -0.00000000000E+00 -0.32343824958E+02  0.32343825059E+02  0.25500000000E-02 0. -1.
    5000001    1    1    2    0    0 -0.41584588697E+01  0.65081795850E+02  0.49611650452E+03  0.53453579767E+03  0.18800000000E+03 0.  0.
   -5000001    1    1    2    0    0  0.41584588697E+01 -0.65081795850E+02  0.74056604584E+03  0.76683440271E+03  0.18800000000E+03 0.  0.
<mgrwt>
<rscale>  0 0.40519214E+03</rscale>
<asrwt>0</asrwt>
<pdfrwt beam="1">  1        2 0.18128945E+00 0.40519214E+03</pdfrwt>
<pdfrwt beam="2">  1       -2 0.46205471E-02 0.40519214E+03</pdfrwt>
<totfact> 0.45631244E+03</totfact>
</mgrwt>
</event>
<event>
 4    1  0.5917727E-005  0.4625106E+03  0.7818608E-02  0.1024056E+00
          2   -1    0    0  501    0  0.00000000000E+00  0.00000000000E+00  0.21854930040E+04  0.21854930040E+04  0.25500000000E-02 0.  1.
         -2   -1    0    0    0  501 -0.00000000000E+00 -0.00000000000E+00 -0.24470002308E+02  0.24470002441E+02  0.25500000000E-02 0. -1.
    5000001    1    1    2    0    0  0.49611341818E+02 -0.12472171403E+03  0.11324659945E+04  0.11557854559E+04  0.18800000000E+03 0.  0.
   -5000001    1    1    2    0    0 -0.49611341818E+02  0.12472171403E+03  0.10285570071E+04  0.10541775506E+04  0.18800000000E+03 0.  0.
<mgrwt>
<rscale>  0 0.46251062E+03</rscale>
<asrwt>0</asrwt>
<pdfrwt beam="1">  1        2 0.31221315E+00 0.46251062E+03</pdfrwt>
<pdfrwt beam="2">  1       -2 0.34957161E-02 0.46251062E+03</pdfrwt>
<totfact> 0.23916318E+03</totfact>
</mgrwt>
</event>
<event>
 4    1  0.5917727E-005  0.6643057E+03  0.7818608E-02  0.9780300E-01
          2   -1    0    0  501    0  0.00000000000E+00  0.00000000000E+00  0.21227662599E+04  0.21227662599E+04  0.25500000000E-02 0.  1.
         -2   -1    0    0    0  501 -0.00000000000E+00 -0.00000000000E+00 -0.51972527123E+02  0.51972527185E+02  0.25500000000E-02 0. -1.
    5000001    1    1    2    0    0  0.16917878433E+03 -0.98497585067E+02  0.16621914153E+04  0.16842053130E+04  0.18800000000E+03 0.  0.
   -5000001    1    1    2    0    0 -0.16917878433E+03  0.98497585067E+02  0.40860231750E+03  0.49053347408E+03  0.18800000000E+03 0.  0.
<mgrwt>
<rscale>  0 0.66430573E+03</rscale>
<asrwt>0</asrwt>
<pdfrwt beam="1">  1        2 0.30325232E+00 0.66430573E+03</pdfrwt>
<pdfrwt beam="2">  1       -2 0.74246468E-02 0.66430573E+03</pdfrwt>
<totfact> 0.79022484E+02</totfact>
</mgrwt>
</event>
<event>
 4    1  0.5917727E-005  0.7905138E+03  0.7818608E-02  0.9573850E-01
         -2   -1    0    0    0  501 -0.00000000000E+00  0.00000000000E+00  0.14054667441E+03  0.14054667443E+03  0.25500000000E-02 0. -1.
          2   -1    0    0  501    0  0.00000000000E+00 -0.00000000000E+00 -0.11115739114E+04  0.11115739114E+04  0.25500000000E-02 0.  1.
    5000001    1    1    2    0    0 -0.15752767629E+03 -0.22566049641E+03 -0.82206254237E+03  0.88705605911E+03  0.18800000000E+03 0.  0.
   -5000001    1    1    2    0    0  0.15752767629E+03  0.22566049641E+03 -0.14896469463E+03  0.36506452674E+03  0.18800000000E+03 0.  0.
<mgrwt>
<rscale>  0 0.79051380E+03</rscale>
<asrwt>0</asrwt>
<pdfrwt beam="1">  1        2 0.15879627E+00 0.79051380E+03</pdfrwt>
<pdfrwt beam="2">  1       -2 0.20078097E-01 0.79051380E+03</pdfrwt>
<totfact> 0.51139043E+02</totfact>
</mgrwt>
</event>
<event>
 4    1  0.5917727E-005  0.1139513E+04  0.7818608E-02  0.9167513E-01
          2   -1    0    0  501    0  0.00000000000E+00  0.00000000000E+00  0.17910545918E+04  0.17910545918E+04  0.25500000000E-02 0.  1.
         -2   -1    0    0    0  501 -0.00000000000E+00 -0.00000000000E+00 -0.18124657372E+03  0.18124657373E+03  0.25500000000E-02 0. -1.
    5000001    1    1    2    0    0 -0.36877037872E+03 -0.38835244498E+03  0.71889571067E+03  0.91594992033E+03  0.18800000000E+03 0.  0.
   -5000001    1    1    2    0    0  0.36877037872E+03  0.38835244498E+03  0.89091230743E+03  0.10563512452E+04  0.18800000000E+03 0.  0.
<mgrwt>
<rscale>  0 0.11395131E+04</rscale>
<asrwt>0</asrwt>
<pdfrwt beam="1">  1        2 0.25586495E+00 0.11395131E+04</pdfrwt>
<pdfrwt beam="2">  1       -2 0.25892367E-01 0.11395131E+04</pdfrwt>
<totfact> 0.13704204E+02</totfact>
</mgrwt>
</event>
<event>
 4    1  0.5917727E-005  0.5469266E+03  0.7818608E-02  0.1002208E+00
         -2   -1    0    0    0  501 -0.00000000000E+00  0.00000000000E+00  0.40301770467E+03  0.40301770468E+03  0.25500000000E-02 0. -1.
          2   -1    0    0  501    0  0.00000000000E+00 -0.00000000000E+00 -0.18555553988E+03  0.18555553989E+03  0.25500000000E-02 0.  1.
    5000001    1    1    2    0    0 -0.17131048923E+03  0.52356661831E+02  0.20098933790E+03  0.32837359472E+03  0.18800000000E+03 0.  0.
   -5000001    1    1    2    0    0  0.17131048923E+03 -0.52356661831E+02  0.16472826894E+02  0.26019964986E+03  0.18800000000E+03 0.  0.
<mgrwt>
<rscale>  0 0.54692657E+03</rscale>
<asrwt>0</asrwt>
<pdfrwt beam="1">  1        2 0.26507934E-01 0.54692657E+03</pdfrwt>
<pdfrwt beam="2">  1       -2 0.57573958E-01 0.54692657E+03</pdfrwt>
<totfact> 0.58313741E+02</totfact>
</mgrwt>
</event>
<event>
 4    1  0.5917727E-005  0.4820421E+03  0.7818608E-02  0.1018575E+00
         -2   -1    0    0    0  501 -0.00000000000E+00  0.00000000000E+00  0.18809345056E+03  0.18809345058E+03  0.25500000000E-02 0. -1.
          2   -1    0    0  501    0  0.00000000000E+00 -0.00000000000E+00 -0.30884190879E+03  0.30884190880E+03  0.25500000000E-02 0.  1.
    5000001    1    1    2    0    0 -0.13090096075E+03 -0.28837733748E+02 -0.13165132145E+03  0.26578703289E+03  0.18800000000E+03 0.  0.
   -5000001    1    1    2    0    0  0.13090096075E+03  0.28837733748E+02  0.10902863213E+02  0.23114832649E+03  0.18800000000E+03 0.  0.
<mgrwt>
<rscale>  0 0.48204207E+03</rscale>
<asrwt>0</asrwt>
<pdfrwt beam="1">  1        2 0.44120273E-01 0.48204207E+03</pdfrwt>
<pdfrwt beam="2">  1       -2 0.26870493E-01 0.48204207E+03</pdfrwt>
<totfact> 0.14460562E+03</totfact>
</mgrwt>
</event>
<event>
 4    1  0.5917727E-005  0.7288852E+03  0.7818608E-02  0.9669071E-01
          2   -1    0    0  501    0  0.00000000000E+00  0.00000000000E+00  0.11651196200E+04  0.11651196200E+04  0.25500000000E-02 0.  1.
         -2   -1    0    0    0  501 -0.00000000000E+00 -0.00000000000E+00 -0.11399552391E+03  0.11399552394E+03  0.25500000000E-02 0. -1.
    5000001    1    1    2    0    0  0.18432704908E+03  0.66078890570E+02  0.98825258741E+02  0.28888286997E+03  0.18800000000E+03 0.  0.
   -5000001    1    1    2    0    0 -0.18432704908E+03 -0.66078890570E+02  0.95229883733E+03  0.99023227395E+03  0.18800000000E+03 0.  0.
<mgrwt>
<rscale>  0 0.72888524E+03</rscale>
<asrwt>0</asrwt>
<pdfrwt beam="1">  1        2 0.16644565E+00 0.72888524E+03</pdfrwt>
<pdfrwt beam="2">  1       -2 0.16285076E-01 0.72888524E+03</pdfrwt>
<totfact> 0.68543723E+02</totfact>
</mgrwt>
</event>
<event>
 4    1  0.5917727E-005  0.1454774E+04  0.7818608E-02  0.8915097E-01
          2   -1    0    0  501    0  0.00000000000E+00  0.00000000000E+00  0.91800127841E+03  0.91800127841E+03  0.25500000000E-02 0.  1.
         -2   -1    0    0    0  501 -0.00000000000E+00 -0.00000000000E+00 -0.57635209020E+03  0.57635209021E+03  0.25500000000E-02 0. -1.
    5000001    1    1    2    0    0 -0.36641620598E+03 -0.54109952137E+03 -0.94462137891E+02  0.68652503489E+03  0.18800000000E+03 0.  0.
   -5000001    1    1    2    0    0  0.36641620598E+03  0.54109952137E+03  0.43611132609E+03  0.80782833373E+03  0.18800000000E+03 0.  0.
<mgrwt>
<rscale>  0 0.14547741E+04</rscale>
<asrwt>0</asrwt>
<pdfrwt beam="1">  1        2 0.13114304E+00 0.14547741E+04</pdfrwt>
<pdfrwt beam="2">  1       -2 0.82336013E-01 0.14547741E+04</pdfrwt>
<totfact> 0.39824210E+01</totfact>
</mgrwt>
</event>
<event>
 4    1  0.5917727E-005  0.7301708E+03  0.7818608E-02  0.9666983E-01
         -2   -1    0    0    0  501 -0.00000000000E+00  0.00000000000E+00  0.25209227345E+03  0.25209227347E+03  0.25500000000E-02 0. -1.
          2   -1    0    0  501    0  0.00000000000E+00 -0.00000000000E+00 -0.52872445798E+03  0.52872445799E+03  0.25500000000E-02 0.  1.
    5000001    1    1    2    0    0  0.23231870204E+03 -0.19361062016E+03 -0.22443988218E+03  0.42092079097E+03  0.18800000000E+03 0.  0.
   -5000001    1    1    2    0    0 -0.23231870204E+03  0.19361062016E+03 -0.52192302345E+02  0.35989594049E+03  0.18800000000E+03 0.  0.
<mgrwt>
<rscale>  0 0.73017080E+03</rscale>
<asrwt>0</asrwt>
<pdfrwt beam="1">  1        2 0.75532065E-01 0.73017080E+03</pdfrwt>
<pdfrwt beam="2">  1       -2 0.36013182E-01 0.73017080E+03</pdfrwt>
<totfact> 0.45898330E+02</totfact>
</mgrwt>
</event>
<event>
 4    1  0.5917727E-005  0.5002672E+03  0.7818608E-02  0.1013709E+00
         -2   -1    0    0    0  501 -0.00000000000E+00  0.00000000000E+00  0.74987057500E+02  0.74987057543E+02  0.25500000000E-02 0. -1.
          2   -1    0    0  501    0  0.00000000000E+00 -0.00000000000E+00 -0.83436830473E+03  0.83436830474E+03  0.25500000000E-02 0.  1.
    5000001    1    1    2    0    0 -0.89685031051E+02 -0.12976958930E+03 -0.46760745593E+03  0.52809495731E+03  0.18800000000E+03 0.  0.
   -5000001    1    1    2    0    0  0.89685031051E+02  0.12976958930E+03 -0.29177379131E+03  0.38126040497E+03  0.18800000000E+03 0.  0.
<mgrwt>
<rscale>  0 0.50026722E+03</rscale>
<asrwt>0</asrwt>
<pdfrwt beam="1">  1        2 0.11919547E+00 0.50026722E+03</pdfrwt>
<pdfrwt beam="2">  1       -2 0.10712437E-01 0.50026722E+03</pdfrwt>
<totfact> 0.22052052E+03</totfact>
</mgrwt>
</event>
<event>
 4    1  0.5917727E-005  0.4808589E+03  0.7818608E-02  0.1018899E+00
          2   -1    0    0  501    0  0.00000000000E+00  0.00000000000E+00  0.96203680932E+03  0.96203680932E+03  0.25500000000E-02 0.  1.
         -2   -1    0    0    0  501 -0.00000000000E+00 -0.00000000000E+00 -0.60087428049E+02  0.60087428103E+02  0.25500000000E-02 0. -1.
    5000001    1    1    2    0    0 -0.10593645301E+03 -0.10186701388E+03  0.38853431352E+03  0.45596308335E+03  0.18800000000E+03 0.  0.
   -5000001    1    1    2    0    0  0.10593645301E+03  0.10186701388E+03  0.51341506775E+03  0.56616115407E+03  0.18800000000E+03 0.  0.
<mgrwt>
<rscale>  0 0.48085889E+03</rscale>
<asrwt>0</asrwt>
<pdfrwt beam="1">  1        2 0.13743381E+00 0.48085889E+03</pdfrwt>
<pdfrwt beam="2">  1       -2 0.85839193E-02 0.48085889E+03</pdfrwt>
<totfact> 0.26069261E+03</totfact>
</mgrwt>
</event>
<event>
 4    1  0.5917727E-005  0.5898455E+03  0.7818608E-02  0.9926700E-01
         -2   -1    0    0    0  501 -0.00000000000E+00  0.00000000000E+00  0.98798280819E+03  0.98798280819E+03  0.25500000000E-02 0. -1.
          2   -1    0    0  501    0  0.00000000000E+00 -0.00000000000E+00 -0.88037381423E+02  0.88037381460E+02  0.25500000000E-02 0.  1.
    5000001    1    1    2    0    0  0.17179594169E+03  0.56022163653E+02  0.70131504332E+03  0.74822397609E+03  0.18800000000E+03 0.  0.
   -5000001    1    1    2    0    0 -0.17179594169E+03 -0.56022163653E+02  0.19863038344E+03  0.32779621356E+03  0.18800000000E+03 0.  0.
<mgrwt>
<rscale>  0 0.58984547E+03</rscale>
<asrwt>0</asrwt>
<pdfrwt beam="1">  1        2 0.12576770E-01 0.58984547E+03</pdfrwt>
<pdfrwt beam="2">  1       -2 0.14114039E+00 0.58984547E+03</pdfrwt>
<totfact> 0.17783547E+02</totfact>
</mgrwt>
</event>
<event>
 4    1  0.5917727E-005  0.5345393E+03  0.7818608E-02  0.1005137E+00
          2   -1    0    0  501    0  0.00000000000E+00  0.00000000000E+00  0.13704389948E+04  0.13704389948E+04  0.25500000000E-02 0.  1.
         -2   -1    0    0    0  501 -0.00000000000E+00 -0.00000000000E+00 -0.52124223721E+02  0.52124223783E+02  0.25500000000E-02 0. -1.
    5000001    1    1    2    0    0  0.42876579812E+01 -0.18986681272E+03  0.67143346320E+03  0.72265806996E+03  0.18800000000E+03 0.  0.
   -5000001    1    1    2    0    0 -0.42876579812E+01  0.18986681272E+03  0.64688130789E+03  0.69990514863E+03  0.18800000000E+03 0.  0.
<mgrwt>
<rscale>  0 0.53453931E+03</rscale>
<asrwt>0</asrwt>
<pdfrwt beam="1">  1        2 0.19577699E+00 0.53453931E+03</pdfrwt>
<pdfrwt beam="2">  1       -2 0.74463182E-02 0.53453931E+03</pdfrwt>
<totfact> 0.19156996E+03</totfact>
</mgrwt>
</event>
<event>
 4    1  0.5917727E-005  0.1043540E+04  0.7818608E-02  0.9262039E-01
         -2   -1    0    0    0  501 -0.00000000000E+00  0.00000000000E+00  0.67638250016E+03  0.67638250017E+03  0.25500000000E-02 0. -1.
          2   -1    0    0  501    0  0.00000000000E+00 -0.00000000000E+00 -0.40249970906E+03  0.40249970906E+03  0.25500000000E-02 0.  1.
    5000001    1    1    2    0    0  0.15087723618E+03  0.39518968963E+03 -0.11196309714E+03  0.47625472839E+03  0.18800000000E+03 0.  0.
   -5000001    1    1    2    0    0 -0.15087723618E+03 -0.39518968963E+03  0.38584588825E+03  0.60262748084E+03  0.18800000000E+03 0.  0.
<mgrwt>
<rscale>  0 0.10435397E+04</rscale>
<asrwt>0</asrwt>
<pdfrwt beam="1">  1        2 0.57499959E-01 0.10435397E+04</pdfrwt>
<pdfrwt beam="2">  1       -2 0.96626071E-01 0.10435397E+04</pdfrwt>
<totfact> 0.76679534E+01</totfact>
</mgrwt>
</event>
<event>
 4    1  0.5917727E-005  0.8098845E+03  0.7818608E-02  0.9545819E-01
          2   -1    0    0  501    0  0.00000000000E+00  0.00000000000E+00  0.10729781079E+04  0.10729781079E+04  0.25500000000E-02 0.  1.
         -2   -1    0    0    0  501 -0.00000000000E+00 -0.00000000000E+00 -0.15282531616E+03  0.15282531618E+03  0.25500000000E-02 0. -1.
    5000001    1    1    2    0    0  0.14621440668E+03 -0.24442875542E+02  0.95438104791E+03  0.98395289090E+03  0.18800000000E+03 0.  0.
   -5000001    1    1    2    0    0 -0.14621440668E+03  0.24442875542E+02 -0.34228256171E+02  0.24185053319E+03  0.18800000000E+03 0.  0.
<mgrwt>
<rscale>  0 0.80988448E+03</rscale>
<asrwt>0</asrwt>
<pdfrwt beam="1">  1        2 0.15328258E+00 0.80988448E+03</pdfrwt>
<pdfrwt beam="2">  1       -2 0.21832189E-01 0.80988448E+03</pdfrwt>
<totfact> 0.46460836E+02</totfact>
</mgrwt>
</event>
<event>
 4    1  0.5917727E-005  0.6116037E+03  0.7818608E-02  0.9881620E-01
          2   -1    0    0  501    0  0.00000000000E+00  0.00000000000E+00  0.23748096833E+04  0.23748096833E+04  0.25500000000E-02 0.  1.
         -2   -1    0    0    0  501 -0.00000000000E+00 -0.00000000000E+00 -0.39377801342E+02  0.39377801425E+02  0.25500000000E-02 0. -1.
    5000001    1    1    2    0    0 -0.22687765398E+03  0.15720574456E+02  0.14847359694E+04  0.15137719462E+04  0.18800000000E+03 0.  0.
   -5000001    1    1    2    0    0  0.22687765398E+03 -0.15720574456E+02  0.85069591255E+03  0.90041553850E+03  0.18800000000E+03 0.  0.
<mgrwt>
<rscale>  0 0.61160374E+03</rscale>
<asrwt>0</asrwt>
<pdfrwt beam="1">  1        2 0.33925851E+00 0.61160374E+03</pdfrwt>
<pdfrwt beam="2">  1       -2 0.56254004E-02 0.61160374E+03</pdfrwt>
<totfact> 0.91523132E+02</totfact>
</mgrwt>
</event>
<event>
 4    1  0.5917727E-005  0.1015335E+04  0.7818608E-02  0.9291883E-01
          2   -1    0    0  501    0  0.00000000000E+00  0.00000000000E+00  0.24122380500E+04  0.24122380500E+04  0.25500000000E-02 0.  1.
         -2   -1    0    0    0  501 -0.00000000000E+00 -0.00000000000E+00 -0.10684125328E+03  0.10684125331E+03  0.25500000000E-02 0. -1.
    5000001    1    1    2    0    0  0.14841677859E+03  0.43684761442E+03  0.91063365120E+03  0.10380082009E+04  0.18800000000E+03 0.  0.
   -5000001    1    1    2    0    0 -0.14841677859E+03 -0.43684761442E+03  0.13947631455E+04  0.14810711025E+04  0.18800000000E+03 0.  0.
<mgrwt>
<rscale>  0 0.10153355E+04</rscale>
<asrwt>0</asrwt>
<pdfrwt beam="1">  1        2 0.34460539E+00 0.10153355E+04</pdfrwt>
<pdfrwt beam="2">  1       -2 0.15263038E-01 0.10153355E+04</pdfrwt>
<totfact> 0.16801635E+02</totfact>
</mgrwt>
</event>
<event>
 4    1  0.5917727E-005  0.7532800E+03  0.7818608E-02  0.9630219E-01
          2   -1    0    0  501    0  0.00000000000E+00  0.00000000000E+00  0.20082418896E+03  0.20082418897E+03  0.25500000000E-02 0.  1.
         -2   -1    0    0    0  501 -0.00000000000E+00 -0.00000000000E+00 -0.70637747536E+03  0.70637747536E+03  0.25500000000E-02 0. -1.
    5000001    1    1    2    0    0 -0.21738304944E+03  0.17386558204E+03 -0.47583027954E+02  0.33925326137E+03  0.18800000000E+03 0.  0.
   -5000001    1    1    2    0    0  0.21738304944E+03 -0.17386558204E+03 -0.45797025845E+03  0.56794840296E+03  0.18800000000E+03 0.  0.
<mgrwt>
<rscale>  0 0.75327998E+03</rscale>
<asrwt>0</asrwt>
<pdfrwt beam="1">  1        2 0.28689170E-01 0.75327998E+03</pdfrwt>
<pdfrwt beam="2">  1       -2 0.10091107E+00 0.75327998E+03</pdfrwt>
<totfact> 0.15266521E+02</totfact>
</mgrwt>
</event>
<event>
 4    1  0.5917727E-005  0.5186615E+03  0.7818608E-02  0.1009020E+00
          2   -1    0    0  501    0  0.00000000000E+00  0.00000000000E+00  0.86693595273E+03  0.86693595274E+03  0.25500000000E-02 0.  1.
         -2   -1    0    0    0  501 -0.00000000000E+00 -0.00000000000E+00 -0.77574852002E+02  0.77574852044E+02  0.25500000000E-02 0. -1.
    5000001    1    1    2    0    0 -0.10186333239E+03 -0.14455051066E+03  0.34870335452E+03  0.43383063294E+03  0.18800000000E+03 0.  0.
   -5000001    1    1    2    0    0  0.10186333239E+03  0.14455051066E+03  0.44065774621E+03  0.51068017185E+03  0.18800000000E+03 0.  0.
<mgrwt>
<rscale>  0 0.51866146E+03</rscale>
<asrwt>0</asrwt>
<pdfrwt beam="1">  1        2 0.12384799E+00 0.51866146E+03</pdfrwt>
<pdfrwt beam="2">  1       -2 0.11082122E-01 0.51866146E+03</pdfrwt>
<totfact> 0.19854845E+03</totfact>
</mgrwt>
</event>
<event>
 4    1  0.5917727E-005  0.9246930E+03  0.7818608E-02  0.9395230E-01
          2   -1    0    0  501    0  0.00000000000E+00  0.00000000000E+00  0.25985775317E+04  0.25985775317E+04  0.25500000000E-02 0.  1.
         -2   -1    0    0    0  501 -0.00000000000E+00 -0.00000000000E+00 -0.82262032129E+02  0.82262032169E+02  0.25500000000E-02 0. -1.
    5000001    1    1    2    0    0 -0.14894265650E+03 -0.35121401145E+03  0.17838997445E+04  0.18338968061E+04  0.18800000000E+03 0.  0.
   -5000001    1    1    2    0    0  0.14894265650E+03  0.35121401145E+03  0.73241575504E+03  0.84694275780E+03  0.18800000000E+03 0.  0.
<mgrwt>
<rscale>  0 0.92469296E+03</rscale>
<asrwt>0</asrwt>
<pdfrwt beam="1">  1        2 0.37122546E+00 0.92469296E+03</pdfrwt>
<pdfrwt beam="2">  1       -2 0.11751716E-01 0.92469296E+03</pdfrwt>
<totfact> 0.20986227E+02</totfact>
</mgrwt>
</event>
<event>
 4    1  0.5917727E-005  0.9986727E+03  0.7818608E-02  0.9310002E-01
          2   -1    0    0  501    0  0.00000000000E+00  0.00000000000E+00  0.11092251177E+04  0.11092251177E+04  0.25500000000E-02 0.  1.
         -2   -1    0    0    0  501 -0.00000000000E+00 -0.00000000000E+00 -0.22478466855E+03  0.22478466857E+03  0.25500000000E-02 0. -1.
    5000001    1    1    2    0    0  0.11133549707E+03 -0.40163057636E+03  0.17409669055E+03  0.48924060587E+03  0.18800000000E+03 0.  0.
   -5000001    1    1    2    0    0 -0.11133549707E+03  0.40163057636E+03  0.71034375861E+03  0.84476918041E+03  0.18800000000E+03 0.  0.
<mgrwt>
<rscale>  0 0.99867272E+03</rscale>
<asrwt>0</asrwt>
<pdfrwt beam="1">  1        2 0.15846073E+00 0.99867272E+03</pdfrwt>
<pdfrwt beam="2">  1       -2 0.32112095E-01 0.99867272E+03</pdfrwt>
<totfact> 0.21681885E+02</totfact>
</mgrwt>
</event>
<event>
 4    1  0.5917727E-005  0.5395457E+03  0.7818608E-02  0.1003943E+00
          2   -1    0    0  501    0  0.00000000000E+00  0.00000000000E+00  0.20579240737E+04  0.20579240737E+04  0.25500000000E-02 0.  1.
         -2   -1    0    0    0  501 -0.00000000000E+00 -0.00000000000E+00 -0.35364472130E+02  0.35364472222E+02  0.25500000000E-02 0. -1.
    5000001    1    1    2    0    0 -0.18436493917E+03 -0.82582189572E+01  0.12366637093E+04  0.12644128119E+04  0.18800000000E+03 0.  0.
   -5000001    1    1    2    0    0  0.18436493917E+03  0.82582189572E+01  0.78589589224E+03  0.82887573400E+03  0.18800000000E+03 0.  0.
<mgrwt>
<rscale>  0 0.53954573E+03</rscale>
<asrwt>0</asrwt>
<pdfrwt beam="1">  1        2 0.29398912E+00 0.53954573E+03</pdfrwt>
<pdfrwt beam="2">  1       -2 0.50520681E-02 0.53954573E+03</pdfrwt>
<totfact> 0.15690843E+03</totfact>
</mgrwt>
</event>
<event>
 4    1  0.5917727E-005  0.5961180E+03  0.7818608E-02  0.9913493E-01
          2   -1    0    0  501    0  0.00000000000E+00  0.00000000000E+00  0.43427869181E+03  0.43427869182E+03  0.25500000000E-02 0.  1.
         -2   -1    0    0    0  501 -0.00000000000E+00 -0.00000000000E+00 -0.20456715281E+03  0.20456715282E+03  0.25500000000E-02 0. -1.
    5000001    1    1    2    0    0  0.21317694047E+03 -0.53975709915E+02  0.38042844444E+02  0.29180308981E+03  0.18800000000E+03 0.  0.
   -5000001    1    1    2    0    0 -0.21317694047E+03  0.53975709915E+02  0.19166869456E+03  0.34704275483E+03  0.18800000000E+03 0.  0.
<mgrwt>
<rscale>  0 0.59611796E+03</rscale>
<asrwt>0</asrwt>
<pdfrwt beam="1">  1        2 0.62039812E-01 0.59611796E+03</pdfrwt>
<pdfrwt beam="2">  1       -2 0.29223880E-01 0.59611796E+03</pdfrwt>
<totfact> 0.85134009E+02</totfact>
</mgrwt>
</event>
<event>
 4    1  0.5917727E-005  0.4555415E+03  0.7818608E-02  0.1026082E+00
          2   -1    0    0  501    0  0.00000000000E+00  0.00000000000E+00  0.20289694609E+03  0.20289694610E+03  0.25500000000E-02 0. -1.
         -2   -1    0    0    0  501 -0.00000000000E+00 -0.00000000000E+00 -0.25569388323E+03  0.25569388324E+03  0.25500000000E-02 0.  1.
    5000001    1    1    2    0    0  0.12619166959E+03  0.14354006562E+02 -0.46661120845E+02  0.23162822621E+03  0.18800000000E+03 0.  0.
   -5000001    1    1    2    0    0 -0.12619166959E+03 -0.14354006562E+02 -0.61358162986E+01  0.22696260313E+03  0.18800000000E+03 0.  0.
<mgrwt>
<rscale>  0 0.45554147E+03</rscale>
<asrwt>0</asrwt>
<pdfrwt beam="1">  1        2 0.28985278E-01 0.45554147E+03</pdfrwt>
<pdfrwt beam="2">  1       -2 0.36527697E-01 0.45554147E+03</pdfrwt>
<totfact> 0.13022073E+03</totfact>
</mgrwt>
</event>
<event>
 4    1  0.5917727E-005  0.9927940E+03  0.7818608E-02  0.9316484E-01
          2   -1    0    0  501    0  0.00000000000E+00  0.00000000000E+00  0.30498259971E+04  0.30498259971E+04  0.25500000000E-02 0.  1.
         -2   -1    0    0    0  501 -0.00000000000E+00 -0.00000000000E+00 -0.80794762705E+02  0.80794762745E+02  0.25500000000E-02 0. -1.
    5000001    1    1    2    0    0 -0.20846237565E+02  0.37997558540E+03  0.22961568997E+04  0.23350581404E+04  0.18800000000E+03 0.  0.
   -5000001    1    1    2    0    0  0.20846237565E+02 -0.37997558540E+03  0.67287433465E+03  0.79556261938E+03  0.18800000000E+03 0.  0.
<mgrwt>
<rscale>  0 0.99279397E+03</rscale>
<asrwt>0</asrwt>
<pdfrwt beam="1">  1        2 0.43568945E+00 0.99279397E+03</pdfrwt>
<pdfrwt beam="2">  1       -2 0.11542108E-01 0.99279397E+03</pdfrwt>
<totfact> 0.12276094E+02</totfact>
</mgrwt>
</event>
<event>
 4    1  0.5917727E-005  0.4613706E+03  0.7818608E-02  0.1024384E+00
          2   -1    0    0  501    0  0.00000000000E+00  0.00000000000E+00  0.21569700121E+04  0.21569700121E+04  0.25500000000E-02 0.  1.
         -2   -1    0    0    0  501 -0.00000000000E+00 -0.00000000000E+00 -0.24671514546E+02  0.24671514678E+02  0.25500000000E-02 0. -1.
    5000001    1    1    2    0    0 -0.11878883226E+03 -0.43738074742E+02  0.86287891532E+03  0.89214787359E+03  0.18800000000E+03 0.  0.
   -5000001    1    1    2    0    0  0.11878883226E+03  0.43738074742E+02  0.12694195822E+04  0.12894936531E+04  0.18800000000E+03 0.  0.
<mgrwt>
<rscale>  0 0.46137064E+03</rscale>
<asrwt>0</asrwt>
<pdfrwt beam="1">  1        2 0.30813865E+00 0.46137064E+03</pdfrwt>
<pdfrwt beam="2">  1       -2 0.35245012E-02 0.46137064E+03</pdfrwt>
<totfact> 0.24407859E+03</totfact>
</mgrwt>
</event>
<event>
 4    1  0.5917727E-005  0.4503553E+03  0.7818608E-02  0.1027616E+00
         -2   -1    0    0    0  501 -0.00000000000E+00  0.00000000000E+00  0.27876976193E+02  0.27876976309E+02  0.25500000000E-02 0. -1.
          2   -1    0    0  501    0  0.00000000000E+00 -0.00000000000E+00 -0.18188838458E+04  0.18188838458E+04  0.25500000000E-02 0.  1.
    5000001    1    1    2    0    0 -0.11170576466E+03  0.13975588754E+02 -0.11080864265E+04  0.11295454942E+04  0.18800000000E+03 0.  0.
   -5000001    1    1    2    0    0  0.11170576466E+03 -0.13975588754E+02 -0.68292044316E+03  0.71721532793E+03  0.18800000000E+03 0.  0.
<mgrwt>
<rscale>  0 0.45035533E+03</rscale>
<asrwt>0</asrwt>
<pdfrwt beam="1">  1        2 0.25984047E+00 0.45035533E+03</pdfrwt>
<pdfrwt beam="2">  1       -2 0.39824263E-02 0.45035533E+03</pdfrwt>
<totfact> 0.29869196E+03</totfact>
</mgrwt>
</event>
<event>
 4    1  0.5917727E-005  0.5631482E+03  0.7818608E-02  0.9984956E-01
          2   -1    0    0  501    0  0.00000000000E+00  0.00000000000E+00  0.34117560082E+04  0.34117560082E+04  0.25500000000E-02 0.  1.
         -2   -1    0    0    0  501 -0.00000000000E+00 -0.00000000000E+00 -0.23238467298E+02  0.23238467438E+02  0.25500000000E-02 0. -1.
    5000001    1    1    2    0    0  0.19365550784E+03  0.80124617574E+02  0.17198267681E+04  0.17427192896E+04  0.18800000000E+03 0.  0.
   -5000001    1    1    2    0    0 -0.19365550784E+03 -0.80124617574E+02  0.16686907727E+04  0.16922751860E+04  0.18800000000E+03 0.  0.
<mgrwt>
<rscale>  0 0.56314822E+03</rscale>
<asrwt>0</asrwt>
<pdfrwt beam="1">  1        2 0.48739332E+00 0.56314822E+03</pdfrwt>
<pdfrwt beam="2">  1       -2 0.33197837E-02 0.56314822E+03</pdfrwt>
<totfact> 0.57236363E+02</totfact>
</mgrwt>
</event>
<event>
 4    1  0.5917727E-005  0.6018417E+03  0.7818608E-02  0.9901592E-01
         -2   -1    0    0    0  501 -0.00000000000E+00  0.00000000000E+00  0.63170189407E+02  0.63170189458E+02  0.25500000000E-02 0. -1.
          2   -1    0    0  501    0  0.00000000000E+00 -0.00000000000E+00 -0.14334826391E+04  0.14334826391E+04  0.25500000000E-02 0.  1.
    5000001    1    1    2    0    0 -0.14390229079E+03  0.11284356259E+03 -0.31825737971E+03  0.41239944065E+03  0.18800000000E+03 0.  0.
   -5000001    1    1    2    0    0  0.14390229079E+03 -0.11284356259E+03 -0.10520550700E+04  0.10842533879E+04  0.18800000000E+03 0.  0.
<mgrwt>
<rscale>  0 0.60184174E+03</rscale>
<asrwt>0</asrwt>
<pdfrwt beam="1">  1        2 0.20478321E+00 0.60184174E+03</pdfrwt>
<pdfrwt beam="2">  1       -2 0.90243136E-02 0.60184174E+03</pdfrwt>
<totfact> 0.13031244E+03</totfact>
</mgrwt>
</event>
<event>
 4    1  0.5917727E-005  0.7751616E+03  0.7818608E-02  0.9596682E-01
          2   -1    0    0  501    0  0.00000000000E+00  0.00000000000E+00  0.20449614222E+03  0.20449614224E+03  0.25500000000E-02 0.  1.
         -2   -1    0    0    0  501 -0.00000000000E+00 -0.00000000000E+00 -0.73458055053E+03  0.73458055054E+03  0.25500000000E-02 0. -1.
    5000001    1    1    2    0    0  0.10569003591E+03  0.28872716182E+03 -0.92261061065E+02  0.37200787768E+03  0.18800000000E+03 0.  0.
   -5000001    1    1    2    0    0 -0.10569003591E+03 -0.28872716182E+03 -0.43782334725E+03  0.56706881510E+03  0.18800000000E+03 0.  0.
<mgrwt>
<rscale>  0 0.77516163E+03</rscale>
<asrwt>0</asrwt>
<pdfrwt beam="1">  1        2 0.29213735E-01 0.77516163E+03</pdfrwt>
<pdfrwt beam="2">  1       -2 0.10494008E+00 0.77516163E+03</pdfrwt>
<totfact> 0.13609966E+02</totfact>
</mgrwt>
</event>
<event>
 4    1  0.5917727E-005  0.6098829E+03  0.7818608E-02  0.9885112E-01
         -2   -1    0    0    0  501 -0.00000000000E+00  0.00000000000E+00  0.26849114397E+02  0.26849114518E+02  0.25500000000E-02 0. -1.
          2   -1    0    0  501    0  0.00000000000E+00 -0.00000000000E+00 -0.34634025737E+04  0.34634025737E+04  0.25500000000E-02 0.  1.
    5000001    1    1    2    0    0 -0.98574222754E+02  0.20035843728E+03 -0.12133398235E+04  0.12479574945E+04  0.18800000000E+03 0.  0.
   -5000001    1    1    2    0    0  0.98574222754E+02 -0.20035843728E+03 -0.22232136359E+04  0.22422941938E+04  0.18800000000E+03 0.  0.
<mgrwt>
<rscale>  0 0.60988291E+03</rscale>
<asrwt>0</asrwt>
<pdfrwt beam="1">  1        2 0.49477151E+00 0.60988291E+03</pdfrwt>
<pdfrwt beam="2">  1       -2 0.38355900E-02 0.60988291E+03</pdfrwt>
<totfact> 0.42574567E+02</totfact>
</mgrwt>
</event>
<event>
 4    1  0.5917727E-005  0.4877929E+03  0.7818608E-02  0.1017015E+00
         -2   -1    0    0    0  501 -0.00000000000E+00  0.00000000000E+00  0.90640773710E+02  0.90640773746E+02  0.25500000000E-02 0. -1.
          2   -1    0    0  501    0  0.00000000000E+00 -0.00000000000E+00 -0.65627717482E+03  0.65627717482E+03  0.25500000000E-02 0.  1.
    5000001    1    1    2    0    0 -0.40461482211E+02 -0.13332758726E+03 -0.38810659228E+03  0.45319323035E+03  0.18800000000E+03 0.  0.
   -5000001    1    1    2    0    0  0.40461482211E+02  0.13332758726E+03 -0.17752980883E+03  0.29372471821E+03  0.18800000000E+03 0.  0.
<mgrwt>
<rscale>  0 0.48779287E+03</rscale>
<asrwt>0</asrwt>
<pdfrwt beam="1">  1        2 0.93753880E-01 0.48779287E+03</pdfrwt>
<pdfrwt beam="2">  1       -2 0.12948682E-01 0.48779287E+03</pdfrwt>
<totfact> 0.21763469E+03</totfact>
</mgrwt>
</event>
<event>
 4    1  0.5917727E-005  0.6849147E+03  0.7818608E-02  0.9743384E-01
         -2   -1    0    0    0  501 -0.00000000000E+00  0.00000000000E+00  0.53653026130E+02  0.53653026191E+02  0.25500000000E-02 0. -1.
          2   -1    0    0  501    0  0.00000000000E+00 -0.00000000000E+00 -0.21858419201E+04  0.21858419201E+04  0.25500000000E-02 0.  1.
    5000001    1    1    2    0    0  0.78694784688E+02  0.27473473646E+03 -0.11189176637E+04  0.11700396501E+04  0.18800000000E+03 0.  0.
   -5000001    1    1    2    0    0 -0.78694784688E+02 -0.27473473646E+03 -0.10132712302E+04  0.10694552962E+04  0.18800000000E+03 0.  0.
<mgrwt>
<rscale>  0 0.68491469E+03</rscale>
<asrwt>0</asrwt>
<pdfrwt beam="1">  1        2 0.31226308E+00 0.68491469E+03</pdfrwt>
<pdfrwt beam="2">  1       -2 0.76647194E-02 0.68491469E+03</pdfrwt>
<totfact> 0.69713491E+02</totfact>
</mgrwt>
</event>
<event>
 4    1  0.5917727E-005  0.5611484E+03  0.7818608E-02  0.9989459E-01
          2   -1    0    0  501    0  0.00000000000E+00  0.00000000000E+00  0.24912373326E+03  0.24912373327E+03  0.25500000000E-02 0.  1.
         -2   -1    0    0    0  501 -0.00000000000E+00 -0.00000000000E+00 -0.31599513869E+03  0.31599513870E+03  0.25500000000E-02 0. -1.
    5000001    1    1    2    0    0  0.36751215349E+02 -0.20464272327E+03 -0.21159594668E+02  0.28110678480E+03  0.18800000000E+03 0.  0.
   -5000001    1    1    2    0    0 -0.36751215349E+02  0.20464272327E+03 -0.45711810764E+02  0.28401208717E+03  0.18800000000E+03 0.  0.
<mgrwt>
<rscale>  0 0.56114842E+03</rscale>
<asrwt>0</asrwt>
<pdfrwt beam="1">  1        2 0.35589105E-01 0.56114842E+03</pdfrwt>
<pdfrwt beam="2">  1       -2 0.45142163E-01 0.56114842E+03</pdfrwt>
<totfact> 0.68708085E+02</totfact>
</mgrwt>
</event>
<event>
 4    1  0.5917727E-005  0.7947851E+03  0.7818608E-02  0.9567596E-01
         -2   -1    0    0    0  501 -0.00000000000E+00  0.00000000000E+00  0.27211239566E+03  0.27211239567E+03  0.25500000000E-02 0. -1.
          2   -1    0    0  501    0  0.00000000000E+00 -0.00000000000E+00 -0.58035148632E+03  0.58035148632E+03  0.25500000000E-02 0.  1.
    5000001    1    1    2    0    0 -0.23971358782E+03 -0.21331474539E+03 -0.30432188064E+03  0.48054301767E+03  0.18800000000E+03 0.  0.
   -5000001    1    1    2    0    0  0.23971358782E+03  0.21331474539E+03 -0.39172100116E+01  0.37192086433E+03  0.18800000000E+03 0.  0.
<mgrwt>
<rscale>  0 0.79478509E+03</rscale>
<asrwt>0</asrwt>
<pdfrwt beam="1">  1        2 0.82907355E-01 0.79478509E+03</pdfrwt>
<pdfrwt beam="2">  1       -2 0.38873200E-01 0.79478509E+03</pdfrwt>
<totfact> 0.35467603E+02</totfact>
</mgrwt>
</event>
<event>
 4    1  0.5917727E-005  0.8768994E+03  0.7818608E-02  0.9454928E-01
         -2   -1    0    0    0  501 -0.00000000000E+00  0.00000000000E+00  0.56174100658E+03  0.56174100659E+03  0.25500000000E-02 0. -1.
          2   -1    0    0  501    0  0.00000000000E+00 -0.00000000000E+00 -0.34221843425E+03  0.34221843426E+03  0.25500000000E-02 0.  1.
    5000001    1    1    2    0    0 -0.21112641567E+03 -0.27255739298E+03 -0.91275295543E+02  0.40315887122E+03  0.18800000000E+03 0.  0.
   -5000001    1    1    2    0    0  0.21112641567E+03  0.27255739298E+03  0.31079786788E+03  0.50080056963E+03  0.18800000000E+03 0.  0.
<mgrwt>
<rscale>  0 0.87689937E+03</rscale>
<asrwt>0</asrwt>
<pdfrwt beam="1">  1        2 0.48888348E-01 0.87689937E+03</pdfrwt>
<pdfrwt beam="2">  1       -2 0.80248715E-01 0.87689937E+03</pdfrwt>
<totfact> 0.14203178E+02</totfact>
</mgrwt>
</event>
<event>
 4    1  0.5917727E-005  0.6366069E+03  0.7818608E-02  0.9832240E-01
         -2   -1    0    0    0  501 -0.00000000000E+00  0.00000000000E+00  0.12003099220E+03  0.12003099222E+03  0.25500000000E-02 0. -1.
          2   -1    0    0  501    0  0.00000000000E+00 -0.00000000000E+00 -0.84409112082E+03  0.84409112082E+03  0.25500000000E-02 0.  1.
    5000001    1    1    2    0    0 -0.21920009720E+03 -0.33023365492E+02 -0.55852558831E+03  0.62963009623E+03  0.18800000000E+03 0.  0.
   -5000001    1    1    2    0    0  0.21920009720E+03  0.33023365492E+02 -0.16553454031E+03  0.33449201682E+03  0.18800000000E+03 0.  0.
<mgrwt>
<rscale>  0 0.63660693E+03</rscale>
<asrwt>0</asrwt>
<pdfrwt beam="1">  1        2 0.12058444E+00 0.63660693E+03</pdfrwt>
<pdfrwt beam="2">  1       -2 0.17147285E-01 0.63660693E+03</pdfrwt>
<totfact> 0.99116310E+02</totfact>
</mgrwt>
</event>
<event>
 4    1  0.5917727E-005  0.5346028E+03  0.7818608E-02  0.1005122E+00
         -2   -1    0    0    0  501 -0.00000000000E+00  0.00000000000E+00  0.47322199265E+02  0.47322199334E+02  0.25500000000E-02 0. -1.
          2   -1    0    0  501    0  0.00000000000E+00 -0.00000000000E+00 -0.15098630349E+04  0.15098630349E+04  0.25500000000E-02 0.  1.
    5000001    1    1    2    0    0  0.18890339460E+02  0.12713280400E+03 -0.11389198576E+04  0.11614654695E+04  0.18800000000E+03 0.  0.
   -5000001    1    1    2    0    0 -0.18890339460E+02 -0.12713280400E+03 -0.32362097798E+03  0.39571976469E+03  0.18800000000E+03 0.  0.
<mgrwt>
<rscale>  0 0.53460280E+03</rscale>
<asrwt>0</asrwt>
<pdfrwt beam="1">  1        2 0.21569469E+00 0.53460280E+03</pdfrwt>
<pdfrwt beam="2">  1       -2 0.67603151E-02 0.53460280E+03</pdfrwt>
<totfact> 0.18852885E+03</totfact>
</mgrwt>
</event>
<event>
 4    1  0.5917727E-005  0.9147770E+03  0.7818608E-02  0.9407296E-01
         -2   -1    0    0    0  501 -0.00000000000E+00  0.00000000000E+00  0.43833913875E+03  0.43833913876E+03  0.25500000000E-02 0. -1.
          2   -1    0    0  501    0  0.00000000000E+00 -0.00000000000E+00 -0.47726565815E+03  0.47726565816E+03  0.25500000000E-02 0.  1.
    5000001    1    1    2    0    0 -0.37605654033E+03 -0.17999798931E+03 -0.25982208496E+02  0.45807954859E+03  0.18800000000E+03 0.  0.
   -5000001    1    1    2    0    0  0.37605654033E+03  0.17999798931E+03 -0.12944310903E+02  0.45752524833E+03  0.18800000000E+03 0.  0.
<mgrwt>
<rscale>  0 0.91477695E+03</rscale>
<asrwt>0</asrwt>
<pdfrwt beam="1">  1        2 0.68180808E-01 0.91477695E+03</pdfrwt>
<pdfrwt beam="2">  1       -2 0.62619877E-01 0.91477695E+03</pdfrwt>
<totfact> 0.16799917E+02</totfact>
</mgrwt>
</event>
<event>
 4    1  0.5917727E-005  0.5758473E+03  0.7818608E-02  0.9956822E-01
         -2   -1    0    0    0  501 -0.00000000000E+00  0.00000000000E+00  0.46110625112E+02  0.46110625182E+02  0.25500000000E-02 0. -1.
          2   -1    0    0  501    0  0.00000000000E+00 -0.00000000000E+00 -0.17978510387E+04  0.17978510387E+04  0.25500000000E-02 0.  1.
    5000001    1    1    2    0    0 -0.18545394701E+03 -0.11269133101E+03 -0.94481234626E+03  0.98747499826E+03  0.18800000000E+03 0.  0.
   -5000001    1    1    2    0    0  0.18545394701E+03  0.11269133101E+03 -0.80692806736E+03  0.85648666565E+03  0.18800000000E+03 0.  0.
<mgrwt>
<rscale>  0 0.57584732E+03</rscale>
<asrwt>0</asrwt>
<pdfrwt beam="1">  1        2 0.25683582E+00 0.57584732E+03</pdfrwt>
<pdfrwt beam="2">  1       -2 0.65872333E-02 0.57584732E+03</pdfrwt>
<totfact> 0.13982028E+03</totfact>
</mgrwt>
</event>
<event>
 4    1  0.5917727E-005  0.4842863E+03  0.7818608E-02  0.1017964E+00
          2   -1    0    0  501    0  0.00000000000E+00  0.00000000000E+00  0.17691436557E+04  0.17691436557E+04  0.25500000000E-02 0.  1.
         -2   -1    0    0    0  501 -0.00000000000E+00 -0.00000000000E+00 -0.33142189735E+02  0.33142189834E+02  0.25500000000E-02 0. -1.
    5000001    1    1    2    0    0  0.93738576662E+01 -0.10746311563E+03  0.46626325883E+03  0.51418052955E+03  0.18800000000E+03 0.  0.
   -5000001    1    1    2    0    0 -0.93738576662E+01  0.10746311563E+03  0.12697382072E+04  0.12881053160E+04  0.18800000000E+03 0.  0.
<mgrwt>
<rscale>  0 0.48428626E+03</rscale>
<asrwt>0</asrwt>
<pdfrwt beam="1">  1        2 0.25273477E+00 0.48428626E+03</pdfrwt>
<pdfrwt beam="2">  1       -2 0.47345992E-02 0.48428626E+03</pdfrwt>
<totfact> 0.24244162E+03</totfact>
</mgrwt>
</event>
<event>
 4    1  0.5917727E-005  0.4055674E+03  0.7818608E-02  0.1041869E+00
         -2   -1    0    0    0  501 -0.00000000000E+00  0.00000000000E+00  0.25088895691E+02  0.25088895820E+02  0.25500000000E-02 0. -1.
          2   -1    0    0  501    0  0.00000000000E+00 -0.00000000000E+00 -0.16390210764E+04  0.16390210764E+04  0.25500000000E-02 0.  1.
    5000001    1    1    2    0    0  0.69386990911E+02  0.39077055517E+01 -0.93326123402E+03  0.95454196115E+03  0.18800000000E+03 0.  0.
   -5000001    1    1    2    0    0 -0.69386990911E+02 -0.39077055517E+01 -0.68067094667E+03  0.70956801106E+03  0.18800000000E+03 0.  0.
<mgrwt>
<rscale>  0 0.40556740E+03</rscale>
<asrwt>0</asrwt>
<pdfrwt beam="1">  1        2 0.23414580E+00 0.40556740E+03</pdfrwt>
<pdfrwt beam="2">  1       -2 0.35841290E-02 0.40556740E+03</pdfrwt>
<totfact> 0.43167897E+03</totfact>
</mgrwt>
</event>
<event>
 4    1  0.5917727E-005  0.8231822E+03  0.7818608E-02  0.9527055E-01
         -2   -1    0    0    0  501 -0.00000000000E+00  0.00000000000E+00  0.94528872000E+02  0.94528872034E+02  0.25500000000E-02 0. -1.
          2   -1    0    0  501    0  0.00000000000E+00 -0.00000000000E+00 -0.17921214106E+04  0.17921214106E+04  0.25500000000E-02 0.  1.
    5000001    1    1    2    0    0 -0.14514222515E+03 -0.30130001752E+03 -0.50719375880E+03  0.63595398815E+03  0.18800000000E+03 0.  0.
   -5000001    1    1    2    0    0  0.14514222515E+03  0.30130001752E+03 -0.11903987798E+04  0.12506962945E+04  0.18800000000E+03 0.  0.
<mgrwt>
<rscale>  0 0.82318216E+03</rscale>
<asrwt>0</asrwt>
<pdfrwt beam="1">  1        2 0.25601732E+00 0.82318216E+03</pdfrwt>
<pdfrwt beam="2">  1       -2 0.13504126E-01 0.82318216E+03</pdfrwt>
<totfact> 0.43424716E+02</totfact>
</mgrwt>
</event>
<event>
 4    1  0.5917727E-005  0.6817095E+03  0.7818608E-02  0.9749033E-01
         -2   -1    0    0    0  501 -0.00000000000E+00  0.00000000000E+00  0.15557463873E+03  0.15557463875E+03  0.25500000000E-02 0. -1.
          2   -1    0    0  501    0  0.00000000000E+00 -0.00000000000E+00 -0.74679248778E+03  0.74679248779E+03  0.25500000000E-02 0.  1.
    5000001    1    1    2    0    0 -0.14165178166E+03 -0.98735936776E+02 -0.59460877805E+03  0.64708392917E+03  0.18800000000E+03 0.  0.
   -5000001    1    1    2    0    0  0.14165178166E+03  0.98735936776E+02  0.33909290030E+01  0.25528319737E+03  0.18800000000E+03 0.  0.
<mgrwt>
<rscale>  0 0.68170953E+03</rscale>
<asrwt>0</asrwt>
<pdfrwt beam="1">  1        2 0.10668464E+00 0.68170953E+03</pdfrwt>
<pdfrwt beam="2">  1       -2 0.22224949E-01 0.68170953E+03</pdfrwt>
<totfact> 0.73744091E+02</totfact>
</mgrwt>
</event>
<event>
 4    1  0.5917727E-005  0.6229178E+03  0.7818608E-02  0.9858968E-01
          2   -1    0    0  501    0  0.00000000000E+00  0.00000000000E+00  0.22885374737E+04  0.22885374737E+04  0.25500000000E-02 0.  1.
         -2   -1    0    0    0  501 -0.00000000000E+00 -0.00000000000E+00 -0.42388047581E+02  0.42388047658E+02  0.25500000000E-02 0. -1.
    5000001    1    1    2    0    0 -0.15734551770E+03  0.15385559687E+03  0.15535365882E+04  0.15802686757E+04  0.18800000000E+03 0.  0.
   -5000001    1    1    2    0    0  0.15734551770E+03 -0.15385559687E+03  0.69261283788E+03  0.75065684558E+03  0.18800000000E+03 0.  0.
<mgrwt>
<rscale>  0 0.62291776E+03</rscale>
<asrwt>0</asrwt>
<pdfrwt beam="1">  1        2 0.32693392E+00 0.62291776E+03</pdfrwt>
<pdfrwt beam="2">  1       -2 0.60554354E-02 0.62291776E+03</pdfrwt>
<totfact> 0.90142731E+02</totfact>
</mgrwt>
</event>
<event>
 4    1  0.5917727E-005  0.4919545E+03  0.7818608E-02  0.1015901E+00
         -2   -1    0    0    0  501 -0.00000000000E+00  0.00000000000E+00  0.29762957910E+02  0.29762958020E+02  0.25500000000E-02 0. -1.
          2   -1    0    0  501    0  0.00000000000E+00 -0.00000000000E+00 -0.20328895401E+04  0.20328895401E+04  0.25500000000E-02 0.  1.
    5000001    1    1    2    0    0 -0.67599502386E+02 -0.14291748485E+03 -0.10555354641E+04  0.10837408436E+04  0.18800000000E+03 0.  0.
   -5000001    1    1    2    0    0  0.67599502386E+02  0.14291748485E+03 -0.94759111809E+03  0.97891165448E+03  0.18800000000E+03 0.  0.
<mgrwt>
<rscale>  0 0.49195449E+03</rscale>
<asrwt>0</asrwt>
<pdfrwt beam="1">  1        2 0.29041270E+00 0.49195449E+03</pdfrwt>
<pdfrwt beam="2">  1       -2 0.42518524E-02 0.49195449E+03</pdfrwt>
<totfact> 0.21109683E+03</totfact>
</mgrwt>
</event>
<event>
 4    1  0.5917727E-005  0.7092321E+03  0.7818608E-02  0.9701573E-01
         -2   -1    0    0    0  501 -0.00000000000E+00  0.00000000000E+00  0.49566333723E+03  0.49566333723E+03  0.25500000000E-02 0. -1.
          2   -1    0    0  501    0  0.00000000000E+00 -0.00000000000E+00 -0.25370557200E+03  0.25370557201E+03  0.25500000000E-02 0.  1.
    5000001    1    1    2    0    0 -0.27720637841E+03  0.84695400350E+01  0.24371394103E+03  0.41431340117E+03  0.18800000000E+03 0.  0.
   -5000001    1    1    2    0    0  0.27720637841E+03 -0.84695400350E+01 -0.17561757986E+01  0.33505550807E+03  0.18800000000E+03 0.  0.
<mgrwt>
<rscale>  0 0.70923212E+03</rscale>
<asrwt>0</asrwt>
<pdfrwt beam="1">  1        2 0.36243654E-01 0.70923212E+03</pdfrwt>
<pdfrwt beam="2">  1       -2 0.70809047E-01 0.70923212E+03</pdfrwt>
<totfact> 0.26310780E+02</totfact>
</mgrwt>
</event>
<event>
 4    1  0.5917727E-005  0.8316949E+03  0.7818608E-02  0.9515240E-01
          2   -1    0    0  501    0  0.00000000000E+00  0.00000000000E+00  0.36856870015E+03  0.36856870016E+03  0.25500000000E-02 0.  1.
         -2   -1    0    0    0  501 -0.00000000000E+00 -0.00000000000E+00 -0.46919095685E+03  0.46919095686E+03  0.25500000000E-02 0. -1.
    5000001    1    1    2    0    0 -0.35196072511E+03  0.68392094499E+02 -0.14603711026E+03  0.43037735557E+03  0.18800000000E+03 0.  0.
   -5000001    1    1    2    0    0  0.35196072511E+03 -0.68392094499E+02  0.45414853556E+02  0.40738230145E+03  0.18800000000E+03 0.  0.
<mgrwt>
<rscale>  0 0.83169490E+03</rscale>
<asrwt>0</asrwt>
<pdfrwt beam="1">  1        2 0.52652671E-01 0.83169490E+03</pdfrwt>
<pdfrwt beam="2">  1       -2 0.67027280E-01 0.83169490E+03</pdfrwt>
<totfact> 0.19488219E+02</totfact>
</mgrwt>
</event>
<event>
 4    1  0.5917727E-005  0.6304813E+03  0.7818608E-02  0.9844110E-01
         -2   -1    0    0    0  501 -0.00000000000E+00  0.00000000000E+00  0.60601104108E+02  0.60601104162E+02  0.25500000000E-02 0. -1.
          2   -1    0    0  501    0  0.00000000000E+00 -0.00000000000E+00 -0.16398488760E+04  0.16398488760E+04  0.25500000000E-02 0.  1.
    5000001    1    1    2    0    0  0.23083154072E+03 -0.91712485799E+02 -0.92004239256E+03  0.97134771547E+03  0.18800000000E+03 0.  0.
   -5000001    1    1    2    0    0 -0.23083154072E+03  0.91712485799E+02 -0.65920537934E+03  0.72910226470E+03  0.18800000000E+03 0.  0.
<mgrwt>
<rscale>  0 0.63048125E+03</rscale>
<asrwt>0</asrwt>
<pdfrwt beam="1">  1        2 0.23426410E+00 0.63048125E+03</pdfrwt>
<pdfrwt beam="2">  1       -2 0.86573016E-02 0.63048125E+03</pdfrwt>
<totfact> 0.10872077E+03</totfact>
</mgrwt>
</event>
<event>
 4    1  0.5917727E-005  0.5938237E+03  0.7818608E-02  0.9918303E-01
          2   -1    0    0  501    0  0.00000000000E+00  0.00000000000E+00  0.43302923661E+03  0.43302923662E+03  0.25500000000E-02 0.  1.
         -2   -1    0    0    0  501 -0.00000000000E+00 -0.00000000000E+00 -0.20358127952E+03  0.20358127954E+03  0.25500000000E-02 0. -1.
    5000001    1    1    2    0    0 -0.12386362562E+03 -0.17027927516E+03  0.16028600493E+02  0.28273334669E+03  0.18800000000E+03 0.  0.
   -5000001    1    1    2    0    0  0.12386362562E+03  0.17027927516E+03  0.21341935659E+03  0.35387716946E+03  0.18800000000E+03 0.  0.
<mgrwt>
<rscale>  0 0.59382370E+03</rscale>
<asrwt>0</asrwt>
<pdfrwt beam="1">  1        2 0.61861319E-01 0.59382370E+03</pdfrwt>
<pdfrwt beam="2">  1       -2 0.29083040E-01 0.59382370E+03</pdfrwt>
<totfact> 0.86172798E+02</totfact>
</mgrwt>
</event>
<event>
 4    1  0.5917727E-005  0.6059445E+03  0.7818608E-02  0.9893149E-01
          2   -1    0    0  501    0  0.00000000000E+00  0.00000000000E+00  0.27265586858E+03  0.27265586860E+03  0.25500000000E-02 0.  1.
         -2   -1    0    0    0  501 -0.00000000000E+00 -0.00000000000E+00 -0.33665952888E+03  0.33665952889E+03  0.25500000000E-02 0. -1.
    5000001    1    1    2    0    0  0.58665151980E+01  0.15359904999E+03  0.15017197218E+03  0.28552181246E+03  0.18800000000E+03 0.  0.
   -5000001    1    1    2    0    0 -0.58665151980E+01 -0.15359904999E+03 -0.21417563247E+03  0.32379358503E+03  0.18800000000E+03 0.  0.
<mgrwt>
<rscale>  0 0.60594454E+03</rscale>
<asrwt>0</asrwt>
<pdfrwt beam="1">  1        2 0.38950839E-01 0.60594454E+03</pdfrwt>
<pdfrwt beam="2">  1       -2 0.48094218E-01 0.60594454E+03</pdfrwt>
<totfact> 0.54746367E+02</totfact>
</mgrwt>
</event>
<event>
 4    1  0.5917727E-005  0.4709707E+03  0.7818608E-02  0.1021647E+00
          2   -1    0    0  501    0  0.00000000000E+00  0.00000000000E+00  0.52836549215E+02  0.52836549277E+02  0.25500000000E-02 0.  1.
         -2   -1    0    0    0  501 -0.00000000000E+00 -0.00000000000E+00 -0.10495263775E+04  0.10495263775E+04  0.25500000000E-02 0. -1.
    5000001    1    1    2    0    0  0.12869711564E+02 -0.12849674960E+03 -0.63547218338E+03  0.67516363941E+03  0.18800000000E+03 0.  0.
   -5000001    1    1    2    0    0 -0.12869711564E+02  0.12849674960E+03 -0.36121764488E+03  0.42719928734E+03  0.18800000000E+03 0.  0.
<mgrwt>
<rscale>  0 0.47097071E+03</rscale>
<asrwt>0</asrwt>
<pdfrwt beam="1">  1        2 0.75480791E-02 0.47097071E+03</pdfrwt>
<pdfrwt beam="2">  1       -2 0.14993233E+00 0.47097071E+03</pdfrwt>
<totfact> 0.29142219E+02</totfact>
</mgrwt>
</event>
<event>
 4    1  0.5917727E-005  0.1159679E+04  0.7818608E-02  0.9148901E-01
          2   -1    0    0  501    0  0.00000000000E+00  0.00000000000E+00  0.19620611203E+04  0.19620611203E+04  0.25500000000E-02 0.  1.
         -2   -1    0    0    0  501 -0.00000000000E+00 -0.00000000000E+00 -0.17135744374E+03  0.17135744376E+03  0.25500000000E-02 0. -1.
    5000001    1    1    2    0    0 -0.86034711534E+02 -0.53514447973E+03  0.74046801304E+03  0.93670617811E+03  0.18800000000E+03 0.  0.
   -5000001    1    1    2    0    0  0.86034711534E+02  0.53514447973E+03  0.10502356635E+04  0.11967123860E+04  0.18800000000E+03 0.  0.
<mgrwt>
<rscale>  0 0.11596789E+04</rscale>
<asrwt>0</asrwt>
<pdfrwt beam="1">  1        2 0.28029445E+00 0.11596789E+04</pdfrwt>
<pdfrwt beam="2">  1       -2 0.24479634E-01 0.11596789E+04</pdfrwt>
<totfact> 0.12378076E+02</totfact>
</mgrwt>
</event>
<event>
 4    1  0.5917727E-005  0.5146252E+03  0.7818608E-02  0.1010030E+00
          2   -1    0    0  501    0  0.00000000000E+00  0.00000000000E+00  0.13572745162E+04  0.13572745162E+04  0.25500000000E-02 0.  1.
         -2   -1    0    0    0  501 -0.00000000000E+00 -0.00000000000E+00 -0.48781415503E+02  0.48781415569E+02  0.25500000000E-02 0. -1.
    5000001    1    1    2    0    0  0.11990168207E+03 -0.12235678745E+03  0.54778996634E+03  0.60395814758E+03  0.18800000000E+03 0.  0.
   -5000001    1    1    2    0    0 -0.11990168207E+03  0.12235678745E+03  0.76070313440E+03  0.80209778424E+03  0.18800000000E+03 0.  0.
<mgrwt>
<rscale>  0 0.51462519E+03</rscale>
<asrwt>0</asrwt>
<pdfrwt beam="1">  1        2 0.19389633E+00 0.51462519E+03</pdfrwt>
<pdfrwt beam="2">  1       -2 0.69687745E-02 0.51462519E+03</pdfrwt>
<totfact> 0.21624308E+03</totfact>
</mgrwt>
</event>
<event>
 4    1  0.5917727E-005  0.5243412E+03  0.7818608E-02  0.1007614E+00
         -2   -1    0    0    0  501 -0.00000000000E+00  0.00000000000E+00  0.33215668919E+02  0.33215669017E+02  0.25500000000E-02 0.  1.
          2   -1    0    0  501    0  0.00000000000E+00 -0.00000000000E+00 -0.20693075138E+04  0.20693075138E+04  0.25500000000E-02 0. -1.
    5000001    1    1    2    0    0 -0.14875741396E+03  0.56677247163E+02 -0.13777789688E+04  0.13996285098E+04  0.18800000000E+03 0.  0.
   -5000001    1    1    2    0    0  0.14875741396E+03 -0.56677247163E+02 -0.65831287606E+03  0.70289467301E+03  0.18800000000E+03 0.  0.
<mgrwt>
<rscale>  0 0.52434124E+03</rscale>
<asrwt>0</asrwt>
<pdfrwt beam="1">  1        2 0.29561528E+00 0.52434124E+03</pdfrwt>
<pdfrwt beam="2">  1       -2 0.47450969E-02 0.52434124E+03</pdfrwt>
<totfact> 0.17074892E+03</totfact>
</mgrwt>
</event>
<event>
 4    1  0.5917727E-005  0.5151102E+03  0.7818608E-02  0.1009908E+00
          2   -1    0    0  501    0  0.00000000000E+00  0.00000000000E+00  0.10262247989E+04  0.10262247989E+04  0.25500000000E-02 0.  1.
         -2   -1    0    0    0  501 -0.00000000000E+00 -0.00000000000E+00 -0.64639463857E+02  0.64639463907E+02  0.25500000000E-02 0. -1.
    5000001    1    1    2    0    0  0.93790031222E+02  0.33031406742E+02  0.17315291287E+03  0.27425093440E+03  0.18800000000E+03 0.  0.
   -5000001    1    1    2    0    0 -0.93790031222E+02 -0.33031406742E+02  0.78843242217E+03  0.81661332840E+03  0.18800000000E+03 0.  0.
<mgrwt>
<rscale>  0 0.51511017E+03</rscale>
<asrwt>0</asrwt>
<pdfrwt beam="1">  1        2 0.14660353E+00 0.51511017E+03</pdfrwt>
<pdfrwt beam="2">  1       -2 0.92342098E-02 0.51511017E+03</pdfrwt>
<totfact> 0.21203883E+03</totfact>
</mgrwt>
</event>
<event>
 4    1  0.5917727E-005  0.6094703E+03  0.7818608E-02  0.9885951E-01
         -2   -1    0    0    0  501 -0.00000000000E+00  0.00000000000E+00  0.35170058458E+02  0.35170058550E+02  0.25500000000E-02 0. -1.
          2   -1    0    0  501    0  0.00000000000E+00 -0.00000000000E+00 -0.26404142982E+04  0.26404142982E+04  0.25500000000E-02 0.  1.
    5000001    1    1    2    0    0  0.16920406201E+03 -0.14919458113E+03 -0.94515277344E+03  0.98972056803E+03  0.18800000000E+03 0.  0.
   -5000001    1    1    2    0    0 -0.16920406201E+03  0.14919458113E+03 -0.16600914663E+04  0.16858637887E+04  0.18800000000E+03 0.  0.
<mgrwt>
<rscale>  0 0.60947034E+03</rscale>
<asrwt>0</asrwt>
<pdfrwt beam="1">  1        2 0.37720192E+00 0.60947034E+03</pdfrwt>
<pdfrwt beam="2">  1       -2 0.50242957E-02 0.60947034E+03</pdfrwt>
<totfact> 0.79703437E+02</totfact>
</mgrwt>
</event>
<event>
 4    1  0.5917727E-005  0.4751251E+03  0.7818608E-02  0.1020484E+00
          2   -1    0    0  501    0  0.00000000000E+00  0.00000000000E+00  0.48613431294E+03  0.48613431295E+03  0.25500000000E-02 0.  1.
         -2   -1    0    0    0  501 -0.00000000000E+00 -0.00000000000E+00 -0.11609128350E+03  0.11609128352E+03  0.25500000000E-02 0. -1.
    5000001    1    1    2    0    0 -0.11225603928E+03  0.90469547236E+02  0.20718659527E+03  0.31473233484E+03  0.18800000000E+03 0.  0.
   -5000001    1    1    2    0    0  0.11225603928E+03 -0.90469547236E+02  0.16285643418E+03  0.28749326163E+03  0.18800000000E+03 0.  0.
<mgrwt>
<rscale>  0 0.47512506E+03</rscale>
<asrwt>0</asrwt>
<pdfrwt beam="1">  1        2 0.69447762E-01 0.47512506E+03</pdfrwt>
<pdfrwt beam="2">  1       -2 0.16584468E-01 0.47512506E+03</pdfrwt>
<totfact> 0.20350572E+03</totfact>
</mgrwt>
</event>
<event>
 4    1  0.5917727E-005  0.6487451E+03  0.7818608E-02  0.9809137E-01
          2   -1    0    0  501    0  0.00000000000E+00  0.00000000000E+00  0.14268243330E+03  0.14268243333E+03  0.25500000000E-02 0.  1.
         -2   -1    0    0    0  501 -0.00000000000E+00 -0.00000000000E+00 -0.73742467843E+03  0.73742467844E+03  0.25500000000E-02 0. -1.
    5000001    1    1    2    0    0  0.91090977015E+02 -0.12733936185E+03 -0.58630679893E+03  0.63530507762E+03  0.18800000000E+03 0.  0.
   -5000001    1    1    2    0    0 -0.91090977015E+02  0.12733936185E+03 -0.84354461960E+01  0.24480203415E+03  0.18800000000E+03 0.  0.
<mgrwt>
<rscale>  0 0.64874509E+03</rscale>
<asrwt>0</asrwt>
<pdfrwt beam="1">  1        2 0.20383205E-01 0.64874509E+03</pdfrwt>
<pdfrwt beam="2">  1       -2 0.10534638E+00 0.64874509E+03</pdfrwt>
<totfact> 0.20495929E+02</totfact>
</mgrwt>
</event>
<event>
 4    1  0.5917727E-005  0.7475354E+03  0.7818608E-02  0.9639225E-01
          2   -1    0    0  501    0  0.00000000000E+00  0.00000000000E+00  0.24509804335E+04  0.24509804335E+04  0.25500000000E-02 0.  1.
         -2   -1    0    0    0  501 -0.00000000000E+00 -0.00000000000E+00 -0.56998528573E+02  0.56998528630E+02  0.25500000000E-02 0. -1.
    5000001    1    1    2    0    0  0.29483807066E+03 -0.11422742013E+03  0.97492950273E+03  0.10420215577E+04  0.18800000000E+03 0.  0.
   -5000001    1    1    2    0    0 -0.29483807066E+03  0.11422742013E+03  0.14190524021E+04  0.14659574044E+04  0.18800000000E+03 0.  0.
<mgrwt>
<rscale>  0 0.74753536E+03</rscale>
<asrwt>0</asrwt>
<pdfrwt beam="1">  1        2 0.35014005E+00 0.74753536E+03</pdfrwt>
<pdfrwt beam="2">  1       -2 0.81426472E-02 0.74753536E+03</pdfrwt>
<totfact> 0.46155634E+02</totfact>
</mgrwt>
</event>
<event>
 4    1  0.5917727E-005  0.1688489E+04  0.7818608E-02  0.8767957E-01
          2   -1    0    0  501    0  0.00000000000E+00  0.00000000000E+00  0.27708180886E+04  0.27708180886E+04  0.25500000000E-02 0.  1.
         -2   -1    0    0    0  501 -0.00000000000E+00 -0.00000000000E+00 -0.25723411249E+03  0.25723411251E+03  0.25500000000E-02 0. -1.
    5000001    1    1    2    0    0 -0.76226450618E+03  0.29139672952E+03  0.14486527940E+04  0.16732896190E+04  0.18800000000E+03 0.  0.
   -5000001    1    1    2    0    0  0.76226450618E+03 -0.29139672952E+03  0.10649311821E+04  0.13547625821E+04  0.18800000000E+03 0.  0.
<mgrwt>
<rscale>  0 0.16884892E+04</rscale>
<asrwt>0</asrwt>
<pdfrwt beam="1">  1        2 0.39583115E+00 0.16884892E+04</pdfrwt>
<pdfrwt beam="2">  1       -2 0.36747731E-01 0.16884892E+04</pdfrwt>
<totfact> 0.21054804E+01</totfact>
</mgrwt>
</event>
<event>
 4    1  0.5917727E-005  0.1350790E+04  0.7818608E-02  0.8990230E-01
          2   -1    0    0  501    0  0.00000000000E+00  0.00000000000E+00  0.14691451382E+04  0.14691451382E+04  0.25500000000E-02 0.  1.
         -2   -1    0    0    0  501 -0.00000000000E+00 -0.00000000000E+00 -0.31049262608E+03  0.31049262609E+03  0.25500000000E-02 0. -1.
    5000001    1    1    2    0    0 -0.49139609865E+03 -0.33572030792E+03  0.23923172470E+03  0.66839664049E+03  0.18800000000E+03 0.  0.
   -5000001    1    1    2    0    0  0.49139609865E+03  0.33572030792E+03  0.91942078745E+03  0.11112411238E+04  0.18800000000E+03 0.  0.
<mgrwt>
<rscale>  0 0.13507905E+04</rscale>
<asrwt>0</asrwt>
<pdfrwt beam="1">  1        2 0.20987787E+00 0.13507905E+04</pdfrwt>
<pdfrwt beam="2">  1       -2 0.44356090E-01 0.13507905E+04</pdfrwt>
<totfact> 0.71511078E+01</totfact>
</mgrwt>
</event>
<event>
 4    1  0.5917727E-005  0.4265204E+03  0.7818608E-02  0.1034965E+00
          2   -1    0    0  501    0  0.00000000000E+00  0.00000000000E+00  0.75826118848E+03  0.75826118849E+03  0.25500000000E-02 0.  1.
         -2   -1    0    0    0  501 -0.00000000000E+00 -0.00000000000E+00 -0.59979207405E+02  0.59979207459E+02  0.25500000000E-02 0. -1.
    5000001    1    1    2    0    0 -0.10053773691E+02  0.81742538170E+02  0.46022636915E+03  0.50391986642E+03  0.18800000000E+03 0.  0.
   -5000001    1    1    2    0    0  0.10053773691E+02 -0.81742538170E+02  0.23805561193E+03  0.31432052953E+03  0.18800000000E+03 0.  0.
<mgrwt>
<rscale>  0 0.42652036E+03</rscale>
<asrwt>0</asrwt>
<pdfrwt beam="1">  1        2 0.10832302E+00 0.42652036E+03</pdfrwt>
<pdfrwt beam="2">  1       -2 0.85684588E-02 0.42652036E+03</pdfrwt>
<totfact> 0.35576758E+03</totfact>
</mgrwt>
</event>
<event>
 4    1  0.5917727E-005  0.4559198E+03  0.7818608E-02  0.1025971E+00
         -2   -1    0    0    0  501 -0.00000000000E+00  0.00000000000E+00  0.16732885236E+03  0.16732885238E+03  0.25500000000E-02 0. -1.
          2   -1    0    0  501    0  0.00000000000E+00 -0.00000000000E+00 -0.31056034970E+03  0.31056034971E+03  0.25500000000E-02 0.  1.
    5000001    1    1    2    0    0 -0.11863615429E+03  0.49927736396E+02 -0.79346151010E+02  0.24126153371E+03  0.18800000000E+03 0.  0.
   -5000001    1    1    2    0    0  0.11863615429E+03 -0.49927736396E+02 -0.63885346329E+02  0.23662766838E+03  0.18800000000E+03 0.  0.
<mgrwt>
<rscale>  0 0.45591976E+03</rscale>
<asrwt>0</asrwt>
<pdfrwt beam="1">  1        2 0.44365764E-01 0.45591976E+03</pdfrwt>
<pdfrwt beam="2">  1       -2 0.23904122E-01 0.45591976E+03</pdfrwt>
<totfact> 0.17713319E+03</totfact>
</mgrwt>
</event>
<event>
 4    1  0.5917727E-005  0.5281509E+03  0.7818608E-02  0.1006682E+00
          2   -1    0    0  501    0  0.00000000000E+00  0.00000000000E+00  0.22592172494E+04  0.22592172494E+04  0.25500000000E-02 0.  1.
         -2   -1    0    0    0  501 -0.00000000000E+00 -0.00000000000E+00 -0.30867255910E+02  0.30867256016E+02  0.25500000000E-02 0. -1.
    5000001    1    1    2    0    0 -0.51163477043E+02 -0.17659428655E+03  0.12193715003E+04  0.12474029418E+04  0.18800000000E+03 0.  0.
   -5000001    1    1    2    0    0  0.51163477043E+02  0.17659428655E+03  0.10089784932E+04  0.10426815636E+04  0.18800000000E+03 0.  0.
<mgrwt>
<rscale>  0 0.52815088E+03</rscale>
<asrwt>0</asrwt>
<pdfrwt beam="1">  1        2 0.32274532E+00 0.52815088E+03</pdfrwt>
<pdfrwt beam="2">  1       -2 0.44096081E-02 0.52815088E+03</pdfrwt>
<totfact> 0.15352175E+03</totfact>
</mgrwt>
</event>
<event>
 4    1  0.5917727E-005  0.1064659E+04  0.7818608E-02  0.9240339E-01
         -2   -1    0    0    0  501 -0.00000000000E+00  0.00000000000E+00  0.20607458157E+03  0.20607458159E+03  0.25500000000E-02 0. -1.
          2   -1    0    0  501    0  0.00000000000E+00 -0.00000000000E+00 -0.13751085863E+04  0.13751085863E+04  0.25500000000E-02 0.  1.
    5000001    1    1    2    0    0 -0.30278714353E+03 -0.28166116162E+03 -0.99667829813E+03  0.10953194485E+04  0.18800000000E+03 0.  0.
   -5000001    1    1    2    0    0  0.30278714353E+03  0.28166116162E+03 -0.17235570660E+03  0.48586371942E+03  0.18800000000E+03 0.  0.
<mgrwt>
<rscale>  0 0.10646594E+04</rscale>
<asrwt>0</asrwt>
<pdfrwt beam="1">  1        2 0.19644408E+00 0.10646594E+04</pdfrwt>
<pdfrwt beam="2">  1       -2 0.29439227E-01 0.10646594E+04</pdfrwt>
<totfact> 0.17998743E+02</totfact>
</mgrwt>
</event>
<event>
 4    1  0.5917727E-005  0.5143723E+03  0.7818608E-02  0.1010094E+00
         -2   -1    0    0    0  501 -0.00000000000E+00  0.00000000000E+00  0.10828762370E+03  0.10828762373E+03  0.25500000000E-02 0. -1.
          2   -1    0    0  501    0  0.00000000000E+00 -0.00000000000E+00 -0.61082424101E+03  0.61082424101E+03  0.25500000000E-02 0.  1.
    5000001    1    1    2    0    0  0.66226902148E+02 -0.15919449817E+03 -0.20549853335E+03  0.32757066112E+03  0.18800000000E+03 0.  0.
   -5000001    1    1    2    0    0 -0.66226902148E+02  0.15919449817E+03 -0.29703808395E+03  0.39154120363E+03  0.18800000000E+03 0.  0.
<mgrwt>
<rscale>  0 0.51437226E+03</rscale>
<asrwt>0</asrwt>
<pdfrwt beam="1">  1        2 0.87260604E-01 0.51437226E+03</pdfrwt>
<pdfrwt beam="2">  1       -2 0.15469661E-01 0.51437226E+03</pdfrwt>
<totfact> 0.17617122E+03</totfact>
</mgrwt>
</event>
<event>
 4    1  0.5917727E-005  0.5588175E+03  0.7818608E-02  0.9994734E-01
         -2   -1    0    0    0  501 -0.00000000000E+00  0.00000000000E+00  0.44498018590E+02  0.44498018663E+02  0.25500000000E-02 0. -1.
          2   -1    0    0  501    0  0.00000000000E+00 -0.00000000000E+00 -0.17544434119E+04  0.17544434119E+04  0.25500000000E-02 0.  1.
    5000001    1    1    2    0    0 -0.19942326527E+03  0.50902397996E+02 -0.91643844434E+03  0.95789567027E+03  0.18800000000E+03 0.  0.
   -5000001    1    1    2    0    0  0.19942326527E+03 -0.50902397996E+02 -0.79350694897E+03  0.84104576030E+03  0.18800000000E+03 0.  0.
<mgrwt>
<rscale>  0 0.55881752E+03</rscale>
<asrwt>0</asrwt>
<pdfrwt beam="1">  1        2 0.25063473E+00 0.55881752E+03</pdfrwt>
<pdfrwt beam="2">  1       -2 0.63568609E-02 0.55881752E+03</pdfrwt>
<totfact> 0.15562573E+03</totfact>
</mgrwt>
</event>
<event>
 4    1  0.5917727E-005  0.4186808E+03  0.7818608E-02  0.1037496E+00
         -2   -1    0    0    0  501 -0.00000000000E+00  0.00000000000E+00  0.91863268205E+03  0.91863268206E+03  0.25500000000E-02 0. -1.
          2   -1    0    0  501    0  0.00000000000E+00 -0.00000000000E+00 -0.47705043375E+02  0.47705043444E+02  0.25500000000E-02 0.  1.
    5000001    1    1    2    0    0 -0.75446702701E+02  0.93816798318E+01  0.31555181486E+03  0.37509621263E+03  0.18800000000E+03 0.  0.
   -5000001    1    1    2    0    0  0.75446702701E+02 -0.93816798318E+01  0.55537582381E+03  0.59124151287E+03  0.18800000000E+03 0.  0.
<mgrwt>
<rscale>  0 0.41868084E+03</rscale>
<asrwt>0</asrwt>
<pdfrwt beam="1">  1        2 0.68150067E-02 0.41868084E+03</pdfrwt>
<pdfrwt beam="2">  1       -2 0.13123323E+00 0.41868084E+03</pdfrwt>
<totfact> 0.46845150E+02</totfact>
</mgrwt>
</event>
<event>
 4    1  0.5917727E-005  0.4627792E+03  0.7818608E-02  0.1023978E+00
          2   -1    0    0  501    0  0.00000000000E+00  0.00000000000E+00  0.15120896094E+03  0.15120896097E+03  0.25500000000E-02 0.  1.
         -2   -1    0    0    0  501 -0.00000000000E+00 -0.00000000000E+00 -0.35408718240E+03  0.35408718240E+03  0.25500000000E-02 0. -1.
    5000001    1    1    2    0    0  0.98748556081E+02 -0.69060547913E+02 -0.16764406476E+03  0.27922959918E+03  0.18800000000E+03 0.  0.
   -5000001    1    1    2    0    0 -0.98748556081E+02  0.69060547913E+02 -0.35234156691E+02  0.22606654419E+03  0.18800000000E+03 0.  0.
<mgrwt>
<rscale>  0 0.46277923E+03</rscale>
<asrwt>0</asrwt>
<pdfrwt beam="1">  1        2 0.21601280E-01 0.46277923E+03</pdfrwt>
<pdfrwt beam="2">  1       -2 0.50583883E-01 0.46277923E+03</pdfrwt>
<totfact> 0.96120105E+02</totfact>
</mgrwt>
</event>
<event>
 4    1  0.5917727E-005  0.5544856E+03  0.7818608E-02  0.1000461E+00
         -2   -1    0    0    0  501 -0.00000000000E+00  0.00000000000E+00  0.11607560544E+03  0.11607560547E+03  0.25500000000E-02 0. -1.
          2   -1    0    0  501    0  0.00000000000E+00 -0.00000000000E+00 -0.66218531723E+03  0.66218531724E+03  0.25500000000E-02 0.  1.
    5000001    1    1    2    0    0 -0.20068495612E+03  0.29222624881E+02 -0.24529573875E+03  0.36965174538E+03  0.18800000000E+03 0.  0.
   -5000001    1    1    2    0    0  0.20068495612E+03 -0.29222624881E+02 -0.30081397304E+03  0.40860917732E+03  0.18800000000E+03 0.  0.
<mgrwt>
<rscale>  0 0.55448557E+03</rscale>
<asrwt>0</asrwt>
<pdfrwt beam="1">  1        2 0.94597900E-01 0.55448557E+03</pdfrwt>
<pdfrwt beam="2">  1       -2 0.16582230E-01 0.55448557E+03</pdfrwt>
<totfact> 0.14231167E+03</totfact>
</mgrwt>
</event>
<event>
 4    1  0.5917727E-005  0.9106057E+03  0.7818608E-02  0.9412420E-01
          2   -1    0    0  501    0  0.00000000000E+00  0.00000000000E+00  0.18633526537E+04  0.18633526537E+04  0.25500000000E-02 0.  1.
         -2   -1    0    0    0  501 -0.00000000000E+00 -0.00000000000E+00 -0.11125144705E+03  0.11125144708E+03  0.25500000000E-02 0. -1.
    5000001    1    1    2    0    0  0.74981108798E+02 -0.35309064290E+03  0.13186564858E+04  0.13800340924E+04  0.18800000000E+03 0.  0.
   -5000001    1    1    2    0    0 -0.74981108798E+02  0.35309064290E+03  0.43344472087E+03  0.59457000835E+03  0.18800000000E+03 0.  0.
<mgrwt>
<rscale>  0 0.91060569E+03</rscale>
<asrwt>0</asrwt>
<pdfrwt beam="1">  1        2 0.26619325E+00 0.91060569E+03</pdfrwt>
<pdfrwt beam="2">  1       -2 0.15893063E-01 0.91060569E+03</pdfrwt>
<totfact> 0.30160789E+02</totfact>
</mgrwt>
</event>
<event>
 4    1  0.5917727E-005  0.4382472E+03  0.7818608E-02  0.1031286E+00
         -2   -1    0    0    0  501 -0.00000000000E+00  0.00000000000E+00  0.74280402720E+03  0.74280402720E+03  0.25500000000E-02 0. -1.
          2   -1    0    0  501    0  0.00000000000E+00 -0.00000000000E+00 -0.64640417837E+02  0.64640417887E+02  0.25500000000E-02 0.  1.
    5000001    1    1    2    0    0  0.19006850010E+02  0.10125235353E+03  0.42266167840E+03  0.47392002894E+03  0.18800000000E+03 0.  0.
   -5000001    1    1    2    0    0 -0.19006850010E+02 -0.10125235353E+03  0.25550193096E+03  0.33352441615E+03  0.18800000000E+03 0.  0.
<mgrwt>
<rscale>  0 0.43824725E+03</rscale>
<asrwt>0</asrwt>
<pdfrwt beam="1">  1        2 0.92343462E-02 0.43824725E+03</pdfrwt>
<pdfrwt beam="2">  1       -2 0.10611485E+00 0.43824725E+03</pdfrwt>
<totfact> 0.53170558E+02</totfact>
</mgrwt>
</event>
<event>
 4    1  0.5917727E-005  0.4542883E+03  0.7818608E-02  0.1026451E+00
          2   -1    0    0  501    0  0.00000000000E+00  0.00000000000E+00  0.16475596942E+04  0.16475596942E+04  0.25500000000E-02 0.  1.
         -2   -1    0    0    0  501 -0.00000000000E+00 -0.00000000000E+00 -0.31315682600E+02  0.31315682703E+02  0.25500000000E-02 0. -1.
    5000001    1    1    2    0    0  0.12422661406E+03  0.26494084029E+02  0.76827297113E+03  0.80107524385E+03  0.18800000000E+03 0.  0.
   -5000001    1    1    2    0    0 -0.12422661406E+03 -0.26494084029E+02  0.84797104050E+03  0.87780013309E+03  0.18800000000E+03 0.  0.
<mgrwt>
<rscale>  0 0.45428826E+03</rscale>
<asrwt>0</asrwt>
<pdfrwt beam="1">  1        2 0.23536569E+00 0.45428826E+03</pdfrwt>
<pdfrwt beam="2">  1       -2 0.44736686E-02 0.45428826E+03</pdfrwt>
<totfact> 0.30477045E+03</totfact>
</mgrwt>
</event>
<event>
 4    1  0.5917727E-005  0.6516184E+03  0.7818608E-02  0.9803747E-01
         -2   -1    0    0    0  501 -0.00000000000E+00  0.00000000000E+00  0.60737325707E+02  0.60737325761E+02  0.25500000000E-02 0. -1.
          2   -1    0    0  501    0  0.00000000000E+00 -0.00000000000E+00 -0.17477167112E+04  0.17477167112E+04  0.25500000000E-02 0.  1.
    5000001    1    1    2    0    0  0.19506963717E+03  0.94213628382E+02 -0.41462071497E+03  0.50416535819E+03  0.18800000000E+03 0.  0.
   -5000001    1    1    2    0    0 -0.19506963717E+03 -0.94213628382E+02 -0.12723586705E+04  0.13042886787E+04  0.18800000000E+03 0.  0.
<mgrwt>
<rscale>  0 0.65161841E+03</rscale>
<asrwt>0</asrwt>
<pdfrwt beam="1">  1        2 0.24967379E+00 0.65161841E+03</pdfrwt>
<pdfrwt beam="2">  1       -2 0.86767619E-02 0.65161841E+03</pdfrwt>
<totfact> 0.95342449E+02</totfact>
</mgrwt>
</event>
<event>
 4    1  0.5917727E-005  0.4953812E+03  0.7818608E-02  0.1014992E+00
         -2   -1    0    0    0  501 -0.00000000000E+00  0.00000000000E+00  0.36445324157E+02  0.36445324246E+02  0.25500000000E-02 0. -1.
          2   -1    0    0  501    0  0.00000000000E+00 -0.00000000000E+00 -0.16833607565E+04  0.16833607565E+04  0.25500000000E-02 0.  1.
    5000001    1    1    2    0    0  0.13303685735E+03  0.91139172822E+02 -0.81924239260E+03  0.85586637512E+03  0.18800000000E+03 0.  0.
   -5000001    1    1    2    0    0 -0.13303685735E+03 -0.91139172822E+02 -0.82767303978E+03  0.86393970565E+03  0.18800000000E+03 0.  0.
<mgrwt>
<rscale>  0 0.49538118E+03</rscale>
<asrwt>0</asrwt>
<pdfrwt beam="1">  1        2 0.24048006E+00 0.49538118E+03</pdfrwt>
<pdfrwt beam="2">  1       -2 0.52064760E-02 0.49538118E+03</pdfrwt>
<totfact> 0.23120877E+03</totfact>
</mgrwt>
</event>
<event>
 4    1  0.5917727E-005  0.7110967E+03  0.7818608E-02  0.9698441E-01
          2   -1    0    0  501    0  0.00000000000E+00  0.00000000000E+00  0.86477808705E+03  0.86477808706E+03  0.25500000000E-02 0.  1.
         -2   -1    0    0    0  501 -0.00000000000E+00 -0.00000000000E+00 -0.14618159536E+03  0.14618159538E+03  0.25500000000E-02 0. -1.
    5000001    1    1    2    0    0  0.93096955281E+02 -0.76382201833E+02 -0.34100211349E+02  0.22584974707E+03  0.18800000000E+03 0.  0.
   -5000001    1    1    2    0    0 -0.93096955281E+02  0.76382201833E+02  0.75269670304E+03  0.78510993537E+03  0.18800000000E+03 0.  0.
<mgrwt>
<rscale>  0 0.71109673E+03</rscale>
<asrwt>0</asrwt>
<pdfrwt beam="1">  1        2 0.12353972E+00 0.71109673E+03</pdfrwt>
<pdfrwt beam="2">  1       -2 0.20883086E-01 0.71109673E+03</pdfrwt>
<totfact> 0.68091671E+02</totfact>
</mgrwt>
</event>
<event>
 4    1  0.5917727E-005  0.5396804E+03  0.7818608E-02  0.1003911E+00
         -2   -1    0    0    0  501 -0.00000000000E+00  0.00000000000E+00  0.13408357502E+03  0.13408357504E+03  0.25500000000E-02 0. -1.
          2   -1    0    0  501    0  0.00000000000E+00 -0.00000000000E+00 -0.54304743291E+03  0.54304743292E+03  0.25500000000E-02 0.  1.
    5000001    1    1    2    0    0  0.88320602411E+02 -0.11462920017E+03 -0.43170908780E+02  0.24113919156E+03  0.18800000000E+03 0.  0.
   -5000001    1    1    2    0    0 -0.88320602411E+02  0.11462920017E+03 -0.36579294911E+03  0.43599181640E+03  0.18800000000E+03 0.  0.
<mgrwt>
<rscale>  0 0.53968043E+03</rscale>
<asrwt>0</asrwt>
<pdfrwt beam="1">  1        2 0.77578204E-01 0.53968043E+03</pdfrwt>
<pdfrwt beam="2">  1       -2 0.19154797E-01 0.53968043E+03</pdfrwt>
<totfact> 0.14030509E+03</totfact>
</mgrwt>
</event>
<event>
 4    1  0.5917727E-005  0.1311920E+04  0.7818608E-02  0.9020165E-01
          2   -1    0    0  501    0  0.00000000000E+00  0.00000000000E+00  0.30821793328E+03  0.30821793329E+03  0.25500000000E-02 0.  1.
         -2   -1    0    0    0  501 -0.00000000000E+00 -0.00000000000E+00 -0.13960374030E+04  0.13960374030E+04  0.25500000000E-02 0. -1.
    5000001    1    1    2    0    0 -0.47894503302E+02  0.62189073418E+03 -0.64367330999E+03  0.91580636529E+03  0.18800000000E+03 0.  0.
   -5000001    1    1    2    0    0  0.47894503302E+02 -0.62189073418E+03 -0.44414615977E+03  0.78844897105E+03  0.18800000000E+03 0.  0.
<mgrwt>
<rscale>  0 0.13119204E+04</rscale>
<asrwt>0</asrwt>
<pdfrwt beam="1">  1        2 0.44031134E-01 0.13119204E+04</pdfrwt>
<pdfrwt beam="2">  1       -2 0.19943391E+00 0.13119204E+04</pdfrwt>
<totfact> 0.15213541E+01</totfact>
</mgrwt>
</event>
<event>
 4    1  0.5917727E-005  0.4455111E+03  0.7818608E-02  0.1029069E+00
         -2   -1    0    0    0  501 -0.00000000000E+00  0.00000000000E+00  0.58092127633E+02  0.58092127689E+02  0.25500000000E-02 0. -1.
          2   -1    0    0  501    0  0.00000000000E+00 -0.00000000000E+00 -0.85416098558E+03  0.85416098558E+03  0.25500000000E-02 0.  1.
    5000001    1    1    2    0    0 -0.25761647267E+02 -0.70083837232E+02 -0.58903383198E+03  0.62280033873E+03  0.18800000000E+03 0.  0.
   -5000001    1    1    2    0    0  0.25761647267E+02  0.70083837232E+02 -0.20703502597E+03  0.28945277454E+03  0.18800000000E+03 0.  0.
<mgrwt>
<rscale>  0 0.44551107E+03</rscale>
<asrwt>0</asrwt>
<pdfrwt beam="1">  1        2 0.12202299E+00 0.44551107E+03</pdfrwt>
<pdfrwt beam="2">  1       -2 0.82988759E-02 0.44551107E+03</pdfrwt>
<totfact> 0.32206008E+03</totfact>
</mgrwt>
</event>
<event>
 4    1  0.5917727E-005  0.4687970E+03  0.7818608E-02  0.1022260E+00
          2   -1    0    0  501    0  0.00000000000E+00  0.00000000000E+00  0.37820339349E+03  0.37820339350E+03  0.25500000000E-02 0.  1.
         -2   -1    0    0    0  501 -0.00000000000E+00 -0.00000000000E+00 -0.14527277056E+03  0.14527277059E+03  0.25500000000E-02 0. -1.
    5000001    1    1    2    0    0  0.90101398617E+02  0.48701715308E+01  0.23598552961E+03  0.31492086433E+03  0.18800000000E+03 0.  0.
   -5000001    1    1    2    0    0 -0.90101398617E+02 -0.48701715308E+01 -0.30549066795E+01  0.20855529976E+03  0.18800000000E+03 0.  0.
<mgrwt>
<rscale>  0 0.46879699E+03</rscale>
<asrwt>0</asrwt>
<pdfrwt beam="1">  1        2 0.54029056E-01 0.46879699E+03</pdfrwt>
<pdfrwt beam="2">  1       -2 0.20753253E-01 0.46879699E+03</pdfrwt>
<totfact> 0.18298735E+03</totfact>
</mgrwt>
</event>
<event>
 4    1  0.5917727E-005  0.5973895E+03  0.7818608E-02  0.9910837E-01
          2   -1    0    0  501    0  0.00000000000E+00  0.00000000000E+00  0.13136098350E+04  0.13136098350E+04  0.25500000000E-02 0.  1.
         -2   -1    0    0    0  501 -0.00000000000E+00 -0.00000000000E+00 -0.67918612188E+02  0.67918612236E+02  0.25500000000E-02 0. -1.
    5000001    1    1    2    0    0  0.15878950514E+03 -0.12210089821E+03  0.35165019843E+03  0.44623379336E+03  0.18800000000E+03 0.  0.
   -5000001    1    1    2    0    0 -0.15878950514E+03  0.12210089821E+03  0.89404102441E+03  0.93529465390E+03  0.18800000000E+03 0.  0.
<mgrwt>
<rscale>  0 0.59738951E+03</rscale>
<asrwt>0</asrwt>
<pdfrwt beam="1">  1        2 0.18765855E+00 0.59738951E+03</pdfrwt>
<pdfrwt beam="2">  1       -2 0.97026589E-02 0.59738951E+03</pdfrwt>
<totfact> 0.13438208E+03</totfact>
</mgrwt>
</event>
<event>
 4    1  0.5917727E-005  0.9550658E+03  0.7818608E-02  0.9359249E-01
          2   -1    0    0  501    0  0.00000000000E+00  0.00000000000E+00  0.24741026269E+04  0.24741026269E+04  0.25500000000E-02 0.  1.
         -2   -1    0    0    0  501 -0.00000000000E+00 -0.00000000000E+00 -0.92169856552E+02  0.92169856588E+02  0.25500000000E-02 0. -1.
    5000001    1    1    2    0    0 -0.12907173571E+03  0.28020336278E+03  0.20300724430E+04  0.20619678856E+04  0.18800000000E+03 0.  0.
   -5000001    1    1    2    0    0  0.12907173571E+03 -0.28020336278E+03  0.35186032734E+03  0.50430459786E+03  0.18800000000E+03 0.  0.
<mgrwt>
<rscale>  0 0.95506583E+03</rscale>
<asrwt>0</asrwt>
<pdfrwt beam="1">  1        2 0.35344325E+00 0.95506583E+03</pdfrwt>
<pdfrwt beam="2">  1       -2 0.13167122E-01 0.95506583E+03</pdfrwt>
<totfact> 0.20118797E+02</totfact>
</mgrwt>
</event>
<event>
 4    1  0.5917727E-005  0.6961730E+03  0.7818608E-02  0.9723799E-01
          2   -1    0    0  501    0  0.00000000000E+00  0.00000000000E+00  0.88866012158E+03  0.88866012158E+03  0.25500000000E-02 0.  1.
         -2   -1    0    0    0  501 -0.00000000000E+00 -0.00000000000E+00 -0.13634483726E+03  0.13634483728E+03  0.25500000000E-02 0. -1.
    5000001    1    1    2    0    0 -0.14669373065E+03  0.22076764643E+03  0.55983383045E+03  0.64731392851E+03  0.18800000000E+03 0.  0.
   -5000001    1    1    2    0    0  0.14669373065E+03 -0.22076764643E+03  0.19248145387E+03  0.37769103035E+03  0.18800000000E+03 0.  0.
<mgrwt>
<rscale>  0 0.69617302E+03</rscale>
<asrwt>0</asrwt>
<pdfrwt beam="1">  1        2 0.12695144E+00 0.69617302E+03</pdfrwt>
<pdfrwt beam="2">  1       -2 0.19477835E-01 0.69617302E+03</pdfrwt>
<totfact> 0.74208937E+02</totfact>
</mgrwt>
</event>
<event>
 4    1  0.5917727E-005  0.4611665E+03  0.7818608E-02  0.1024443E+00
         -2   -1    0    0    0  501 -0.00000000000E+00  0.00000000000E+00  0.46491388821E+02  0.46491388891E+02  0.25500000000E-02 0. -1.
          2   -1    0    0  501    0  0.00000000000E+00 -0.00000000000E+00 -0.11436234233E+04  0.11436234233E+04  0.25500000000E-02 0.  1.
    5000001    1    1    2    0    0  0.86848232192E+02 -0.10126408507E+03 -0.56212638676E+03  0.60755831412E+03  0.18800000000E+03 0.  0.
   -5000001    1    1    2    0    0 -0.86848232192E+02  0.10126408507E+03 -0.53500564769E+03  0.58255649805E+03  0.18800000000E+03 0.  0.
<mgrwt>
<rscale>  0 0.46116653E+03</rscale>
<asrwt>0</asrwt>
<pdfrwt beam="1">  1        2 0.16337476E+00 0.46116653E+03</pdfrwt>
<pdfrwt beam="2">  1       -2 0.66416277E-02 0.46116653E+03</pdfrwt>
<totfact> 0.30547593E+03</totfact>
</mgrwt>
</event>
<event>
 4    1  0.5917727E-005  0.4734845E+03  0.7818608E-02  0.1020941E+00
          2   -1    0    0  501    0  0.00000000000E+00  0.00000000000E+00  0.19771117122E+04  0.19771117122E+04  0.25500000000E-02 0.  1.
         -2   -1    0    0    0  501 -0.00000000000E+00 -0.00000000000E+00 -0.28347861841E+02  0.28347861956E+02  0.25500000000E-02 0. -1.
    5000001    1    1    2    0    0 -0.40401478666E+02  0.13735992897E+03  0.10347082122E+04  0.10613506084E+04  0.18800000000E+03 0.  0.
   -5000001    1    1    2    0    0  0.40401478666E+02 -0.13735992897E+03  0.91405563812E+03  0.94410896572E+03  0.18800000000E+03 0.  0.
<mgrwt>
<rscale>  0 0.47348449E+03</rscale>
<asrwt>0</asrwt>
<pdfrwt beam="1">  1        2 0.28244460E+00 0.47348449E+03</pdfrwt>
<pdfrwt beam="2">  1       -2 0.40496935E-02 0.47348449E+03</pdfrwt>
<totfact> 0.24264352E+03</totfact>
</mgrwt>
</event>
<event>
 4    1  0.5917727E-005  0.8629643E+03  0.7818608E-02  0.9473100E-01
          2   -1    0    0  501    0  0.00000000000E+00  0.00000000000E+00  0.28374929508E+04  0.28374929508E+04  0.25500000000E-02 0.  1.
         -2   -1    0    0    0  501 -0.00000000000E+00 -0.00000000000E+00 -0.65613141949E+02  0.65613141998E+02  0.25500000000E-02 0. -1.
    5000001    1    1    2    0    0  0.19670773204E+02  0.34084580707E+03  0.76317044780E+03  0.85693403241E+03  0.18800000000E+03 0.  0.
   -5000001    1    1    2    0    0 -0.19670773204E+02 -0.34084580707E+03  0.20087093610E+04  0.20461720603E+04  0.18800000000E+03 0.  0.
<mgrwt>
<rscale>  0 0.86296426E+03</rscale>
<asrwt>0</asrwt>
<pdfrwt beam="1">  1        2 0.40535620E+00 0.86296426E+03</pdfrwt>
<pdfrwt beam="2">  1       -2 0.93733045E-02 0.86296426E+03</pdfrwt>
<totfact> 0.22823767E+02</totfact>
</mgrwt>
</event>
<event>
 4    1  0.5917727E-005  0.8763158E+03  0.7818608E-02  0.9455682E-01
          2   -1    0    0  501    0  0.00000000000E+00  0.00000000000E+00  0.77335634588E+03  0.77335634589E+03  0.25500000000E-02 0.  1.
         -2   -1    0    0    0  501 -0.00000000000E+00 -0.00000000000E+00 -0.24824563482E+03  0.24824563483E+03  0.25500000000E-02 0. -1.
    5000001    1    1    2    0    0 -0.35165030943E+03  0.10319067487E+03  0.43677041597E+03  0.60034877511E+03  0.18800000000E+03 0.  0.
   -5000001    1    1    2    0    0  0.35165030943E+03 -0.10319067487E+03  0.88340295095E+02  0.42125320561E+03  0.18800000000E+03 0.  0.
<mgrwt>
<rscale>  0 0.87631578E+03</rscale>
<asrwt>0</asrwt>
<pdfrwt beam="1">  1        2 0.11047948E+00 0.87631578E+03</pdfrwt>
<pdfrwt beam="2">  1       -2 0.35463662E-01 0.87631578E+03</pdfrwt>
<totfact> 0.29700562E+02</totfact>
</mgrwt>
</event>
<event>
 4    1  0.5917727E-005  0.5711818E+03  0.7818608E-02  0.9967067E-01
          2   -1    0    0  501    0  0.00000000000E+00  0.00000000000E+00  0.23142040331E+03  0.23142040332E+03  0.25500000000E-02 0.  1.
         -2   -1    0    0    0  501 -0.00000000000E+00 -0.00000000000E+00 -0.35244158200E+03  0.35244158201E+03  0.25500000000E-02 0. -1.
    5000001    1    1    2    0    0  0.79919199039E+01  0.21199836491E+03 -0.24938687687E+02  0.28455775451E+03  0.18800000000E+03 0.  0.
   -5000001    1    1    2    0    0 -0.79919199039E+01 -0.21199836491E+03 -0.96082491006E+02  0.29930423082E+03  0.18800000000E+03 0.  0.
<mgrwt>
<rscale>  0 0.57118184E+03</rscale>
<asrwt>0</asrwt>
<pdfrwt beam="1">  1        2 0.33060058E-01 0.57118184E+03</pdfrwt>
<pdfrwt beam="2">  1       -2 0.50348797E-01 0.57118184E+03</pdfrwt>
<totfact> 0.59911874E+02</totfact>
</mgrwt>
</event>
<event>
 4    1  0.5917727E-005  0.5674877E+03  0.7818608E-02  0.9975253E-01
          2   -1    0    0  501    0  0.00000000000E+00  0.00000000000E+00  0.59532837282E+03  0.59532837282E+03  0.25500000000E-02 0.  1.
         -2   -1    0    0    0  501 -0.00000000000E+00 -0.00000000000E+00 -0.13523725417E+03  0.13523725419E+03  0.25500000000E-02 0. -1.
    5000001    1    1    2    0    0 -0.74218523727E+02 -0.19886771690E+03  0.24353631758E+03  0.37377894011E+03  0.18800000000E+03 0.  0.
   -5000001    1    1    2    0    0  0.74218523727E+02  0.19886771690E+03  0.21655480107E+03  0.35678668691E+03  0.18800000000E+03 0.  0.
<mgrwt>
<rscale>  0 0.56748771E+03</rscale>
<asrwt>0</asrwt>
<pdfrwt beam="1">  1        2 0.85046911E-01 0.56748771E+03</pdfrwt>
<pdfrwt beam="2">  1       -2 0.19319608E-01 0.56748771E+03</pdfrwt>
<totfact> 0.12423683E+03</totfact>
</mgrwt>
</event>
<event>
 4    1  0.5917727E-005  0.4681540E+03  0.7818608E-02  0.1022443E+00
         -2   -1    0    0    0  501 -0.00000000000E+00  0.00000000000E+00  0.52612128378E+03  0.52612128379E+03  0.25500000000E-02 0. -1.
          2   -1    0    0  501    0  0.00000000000E+00 -0.00000000000E+00 -0.10414338001E+03  0.10414338004E+03  0.25500000000E-02 0.  1.
    5000001    1    1    2    0    0  0.79128029497E+02 -0.81228242168E+02  0.32026791825E+03  0.38829732402E+03  0.18800000000E+03 0.  0.
   -5000001    1    1    2    0    0 -0.79128029497E+02  0.81228242168E+02  0.10170998552E+03  0.24196733981E+03  0.18800000000E+03 0.  0.
<mgrwt>
<rscale>  0 0.46815403E+03</rscale>
<asrwt>0</asrwt>
<pdfrwt beam="1">  1        2 0.14877626E-01 0.46815403E+03</pdfrwt>
<pdfrwt beam="2">  1       -2 0.75160182E-01 0.46815403E+03</pdfrwt>
<totfact> 0.64779198E+02</totfact>
</mgrwt>
</event>
<event>
 4    1  0.5917727E-005  0.5310806E+03  0.7818608E-02  0.1005970E+00
          2   -1    0    0  501    0  0.00000000000E+00  0.00000000000E+00  0.29774590228E+03  0.29774590229E+03  0.25500000000E-02 0.  1.
         -2   -1    0    0    0  501 -0.00000000000E+00 -0.00000000000E+00 -0.23681817995E+03  0.23681817996E+03  0.25500000000E-02 0. -1.
    5000001    1    1    2    0    0  0.16012864640E+03 -0.93722816393E+02  0.57891317615E+02  0.27040812555E+03  0.18800000000E+03 0.  0.
   -5000001    1    1    2    0    0 -0.16012864640E+03  0.93722816393E+02  0.30364047176E+01  0.26415595671E+03  0.18800000000E+03 0.  0.
<mgrwt>
<rscale>  0 0.53108057E+03</rscale>
<asrwt>0</asrwt>
<pdfrwt beam="1">  1        2 0.42535129E-01 0.53108057E+03</pdfrwt>
<pdfrwt beam="2">  1       -2 0.33831168E-01 0.53108057E+03</pdfrwt>
<totfact> 0.98480979E+02</totfact>
</mgrwt>
</event>
<event>
 4    1  0.5917727E-005  0.4979429E+03  0.7818608E-02  0.1014317E+00
         -2   -1    0    0    0  501 -0.00000000000E+00  0.00000000000E+00  0.18524448455E+03  0.18524448457E+03  0.25500000000E-02 0. -1.
          2   -1    0    0  501    0  0.00000000000E+00 -0.00000000000E+00 -0.33462143535E+03  0.33462143536E+03  0.25500000000E-02 0.  1.
    5000001    1    1    2    0    0  0.14873376356E+03 -0.16604646608E+02 -0.14271330871E+03  0.27947904250E+03  0.18800000000E+03 0.  0.
   -5000001    1    1    2    0    0 -0.14873376356E+03  0.16604646608E+02 -0.66636420914E+01  0.24038687743E+03  0.18800000000E+03 0.  0.
<mgrwt>
<rscale>  0 0.49794287E+03</rscale>
<asrwt>0</asrwt>
<pdfrwt beam="1">  1        2 0.47803062E-01 0.49794287E+03</pdfrwt>
<pdfrwt beam="2">  1       -2 0.26463498E-01 0.49794287E+03</pdfrwt>
<totfact> 0.13615107E+03</totfact>
</mgrwt>
</event>
<event>
 4    1  0.5917727E-005  0.6058704E+03  0.7818608E-02  0.9893301E-01
         -2   -1    0    0    0  501 -0.00000000000E+00  0.00000000000E+00  0.34601153680E+02  0.34601153774E+02  0.25500000000E-02 0. -1.
          2   -1    0    0  501    0  0.00000000000E+00 -0.00000000000E+00 -0.26522162548E+04  0.26522162548E+04  0.25500000000E-02 0.  1.
    5000001    1    1    2    0    0  0.18546158908E+03 -0.84939062727E+02 -0.76903517976E+03  0.81753883890E+03  0.18800000000E+03 0.  0.
   -5000001    1    1    2    0    0 -0.18546158908E+03  0.84939062727E+02 -0.18485799214E+04  0.18692785697E+04  0.18800000000E+03 0.  0.
<mgrwt>
<rscale>  0 0.60587042E+03</rscale>
<asrwt>0</asrwt>
<pdfrwt beam="1">  1        2 0.37888791E+00 0.60587042E+03</pdfrwt>
<pdfrwt beam="2">  1       -2 0.49430236E-02 0.60587042E+03</pdfrwt>
<totfact> 0.80620812E+02</totfact>
</mgrwt>
</event>
<event>
 4    1  0.5917727E-005  0.5566547E+03  0.7818608E-02  0.9999653E-01
         -2   -1    0    0    0  501 -0.00000000000E+00  0.00000000000E+00  0.30122659382E+02  0.30122659490E+02  0.25500000000E-02 0. -1.
          2   -1    0    0  501    0  0.00000000000E+00 -0.00000000000E+00 -0.25716892300E+04  0.25716892300E+04  0.25500000000E-02 0.  1.
    5000001    1    1    2    0    0  0.18906931011E+03 -0.77543924921E+02 -0.13596945956E+04  0.13877585012E+04  0.18800000000E+03 0.  0.
   -5000001    1    1    2    0    0 -0.18906931011E+03  0.77543924921E+02 -0.11818719750E+04  0.12140533883E+04  0.18800000000E+03 0.  0.
<mgrwt>
<rscale>  0 0.55665472E+03</rscale>
<asrwt>0</asrwt>
<pdfrwt beam="1">  1        2 0.36738404E+00 0.55665472E+03</pdfrwt>
<pdfrwt beam="2">  1       -2 0.43032387E-02 0.55665472E+03</pdfrwt>
<totfact> 0.11036057E+03</totfact>
</mgrwt>
</event>
