<event>
 4    1  0.5080671E-005  0.6736057E+03  0.7818608E-02  0.9763466E-01
         -2   -1    0    0    0  501 -0.00000000000E+00  0.00000000000E+00  0.21173006684E+03  0.21173006685E+03  0.25500000000E-02 0. -1.
          2   -1    0    0  501    0  0.00000000000E+00 -0.00000000000E+00 -0.53575839921E+03  0.53575839921E+03  0.25500000000E-02 0.  1.
    5000001    1    1    2    0    0  0.52349362500E+02 -0.23439681232E+03 -0.20980372469E+02  0.31260757734E+03  0.19900000000E+03 0.  0.
   -5000001    1    1    2    0    0 -0.52349362500E+02  0.23439681232E+03 -0.30304795990E+03  0.43488088873E+03  0.19900000000E+03 0.  0.
<mgrwt>
<rscale>  0 0.67360571E+03</rscale>
<asrwt>0</asrwt>
<pdfrwt beam="1">  1        2 0.76536914E-01 0.67360571E+03</pdfrwt>
<pdfrwt beam="2">  1       -2 0.30247153E-01 0.67360571E+03</pdfrwt>
<totfact> 0.62862330E+02</totfact>
</mgrwt>
</event>
<event>
 4    1  0.5080671E-005  0.8712102E+03  0.7818608E-02  0.9462303E-01
          2   -1    0    0  501    0  0.00000000000E+00  0.00000000000E+00  0.18256618710E+04  0.18256618710E+04  0.25500000000E-02 0.  1.
         -2   -1    0    0    0  501 -0.00000000000E+00 -0.00000000000E+00 -0.10393588948E+03  0.10393588952E+03  0.25500000000E-02 0. -1.
    5000001    1    1    2    0    0  0.39291709025E+01  0.38416054027E+03  0.74888647693E+03  0.86488537646E+03  0.19900000000E+03 0.  0.
   -5000001    1    1    2    0    0 -0.39291709025E+01 -0.38416054027E+03  0.97283950462E+03  0.10647123841E+04  0.19900000000E+03 0.  0.
<mgrwt>
<rscale>  0 0.87121017E+03</rscale>
<asrwt>0</asrwt>
<pdfrwt beam="1">  1        2 0.26080880E+00 0.87121017E+03</pdfrwt>
<pdfrwt beam="2">  1       -2 0.14847986E-01 0.87121017E+03</pdfrwt>
<totfact> 0.35477776E+02</totfact>
</mgrwt>
</event>
<event>
 4    1  0.5080671E-005  0.4823003E+03  0.7818608E-02  0.1018505E+00
         -2   -1    0    0    0  501 -0.00000000000E+00  0.00000000000E+00  0.44480069091E+02  0.44480069164E+02  0.25500000000E-02 0. -1.
          2   -1    0    0  501    0  0.00000000000E+00 -0.00000000000E+00 -0.13074032316E+04  0.13074032316E+04  0.25500000000E-02 0.  1.
    5000001    1    1    2    0    0 -0.93746242021E+02 -0.83668363072E+02 -0.48410758837E+03  0.53828422788E+03  0.19900000000E+03 0.  0.
   -5000001    1    1    2    0    0  0.93746242021E+02  0.83668363072E+02 -0.77881557415E+03  0.81359907289E+03  0.19900000000E+03 0.  0.
<mgrwt>
<rscale>  0 0.48230026E+03</rscale>
<asrwt>0</asrwt>
<pdfrwt beam="1">  1        2 0.18677187E+00 0.48230026E+03</pdfrwt>
<pdfrwt beam="2">  1       -2 0.63542964E-02 0.48230026E+03</pdfrwt>
<totfact> 0.26590692E+03</totfact>
</mgrwt>
</event>
<event>
 4    1  0.5080671E-005  0.5128861E+03  0.7818608E-02  0.1010469E+00
         -2   -1    0    0    0  501 -0.00000000000E+00  0.00000000000E+00  0.37165678900E+02  0.37165678988E+02  0.25500000000E-02 0. -1.
          2   -1    0    0  501    0  0.00000000000E+00 -0.00000000000E+00 -0.17694559951E+04  0.17694559951E+04  0.25500000000E-02 0.  1.
    5000001    1    1    2    0    0 -0.16111536309E+03 -0.81453072585E+01 -0.90745376540E+03  0.94291984950E+03  0.19900000000E+03 0.  0.
   -5000001    1    1    2    0    0  0.16111536309E+03  0.81453072585E+01 -0.82483655081E+03  0.86370182459E+03  0.19900000000E+03 0.  0.
<mgrwt>
<rscale>  0 0.51288608E+03</rscale>
<asrwt>0</asrwt>
<pdfrwt beam="1">  1        2 0.25277938E+00 0.51288608E+03</pdfrwt>
<pdfrwt beam="2">  1       -2 0.53093838E-02 0.51288608E+03</pdfrwt>
<totfact> 0.20285461E+03</totfact>
</mgrwt>
</event>
<event>
 4    1  0.5080671E-005  0.1149019E+04  0.7818608E-02  0.9158689E-01
         -2   -1    0    0    0  501 -0.00000000000E+00  0.00000000000E+00  0.93529132444E+03  0.93529132444E+03  0.25500000000E-02 0. -1.
          2   -1    0    0  501    0  0.00000000000E+00 -0.00000000000E+00 -0.35289666157E+03  0.35289666158E+03  0.25500000000E-02 0.  1.
    5000001    1    1    2    0    0  0.16241540125E+02 -0.44626860764E+03 -0.47077652679E+02  0.49115859269E+03  0.19900000000E+03 0.  0.
   -5000001    1    1    2    0    0 -0.16241540125E+02  0.44626860764E+03  0.62947231555E+03  0.79702939333E+03  0.19900000000E+03 0.  0.
<mgrwt>
<rscale>  0 0.11490190E+04</rscale>
<asrwt>0</asrwt>
<pdfrwt beam="1">  1        2 0.50413809E-01 0.11490190E+04</pdfrwt>
<pdfrwt beam="2">  1       -2 0.13361304E+00 0.11490190E+04</pdfrwt>
<totfact> 0.39907910E+01</totfact>
</mgrwt>
</event>
<event>
 4    1  0.5080671E-005  0.4683868E+03  0.7818608E-02  0.1022377E+00
         -2   -1    0    0    0  501 -0.00000000000E+00  0.00000000000E+00  0.14651034135E+02  0.14651034357E+02  0.25500000000E-02 0. -1.
          2   -1    0    0  501    0  0.00000000000E+00 -0.00000000000E+00 -0.37435269636E+04  0.37435269636E+04  0.25500000000E-02 0.  1.
    5000001    1    1    2    0    0 -0.11928800358E+03  0.85459857899E+01 -0.21108154142E+04  0.21235454727E+04  0.19900000000E+03 0.  0.
   -5000001    1    1    2    0    0  0.11928800358E+03 -0.85459857899E+01 -0.16180605153E+04  0.16346325253E+04  0.19900000000E+03 0.  0.
<mgrwt>
<rscale>  0 0.46838677E+03</rscale>
<asrwt>0</asrwt>
<pdfrwt beam="1">  1        2 0.53478895E+00 0.46838677E+03</pdfrwt>
<pdfrwt beam="2">  1       -2 0.20930073E-02 0.46838677E+03</pdfrwt>
<totfact> 0.73393765E+02</totfact>
</mgrwt>
</event>
<event>
 4    1  0.5080671E-005  0.4904875E+03  0.7818608E-02  0.1016292E+00
          2   -1    0    0  501    0  0.00000000000E+00  0.00000000000E+00  0.56032513063E+02  0.56032513121E+02  0.25500000000E-02 0.  1.
         -2   -1    0    0    0  501 -0.00000000000E+00 -0.00000000000E+00 -0.10733854566E+04  0.10733854566E+04  0.25500000000E-02 0. -1.
    5000001    1    1    2    0    0 -0.11591967824E+03 -0.57594647926E+02 -0.65041481156E+03  0.69238352260E+03  0.19900000000E+03 0.  0.
   -5000001    1    1    2    0    0  0.11591967824E+03  0.57594647926E+02 -0.36693813196E+03  0.43703444711E+03  0.19900000000E+03 0.  0.
<mgrwt>
<rscale>  0 0.49048745E+03</rscale>
<asrwt>0</asrwt>
<pdfrwt beam="1">  1        2 0.80046454E-02 0.49048745E+03</pdfrwt>
<pdfrwt beam="2">  1       -2 0.15334077E+00 0.49048745E+03</pdfrwt>
<totfact> 0.25449439E+02</totfact>
</mgrwt>
</event>
<event>
 4    1  0.5080671E-005  0.2789053E+04  0.7818608E-02  0.8306675E-01
          2   -1    0    0  501    0  0.00000000000E+00  0.00000000000E+00  0.10127648185E+04  0.10127648185E+04  0.25500000000E-02 0.  1.
         -2   -1    0    0    0  501 -0.00000000000E+00 -0.00000000000E+00 -0.19201934713E+04  0.19201934713E+04  0.25500000000E-02 0. -1.
    5000001    1    1    2    0    0 -0.76162829348E+02  0.12876717623E+04  0.62751261966E+02  0.13066897355E+04  0.19900000000E+03 0.  0.
   -5000001    1    1    2    0    0  0.76162829348E+02 -0.12876717623E+04 -0.97017991470E+03  0.16262685543E+04  0.19900000000E+03 0.  0.
<mgrwt>
<rscale>  0 0.27890532E+04</rscale>
<asrwt>0</asrwt>
<pdfrwt beam="1">  1        2 0.14468069E+00 0.27890532E+04</pdfrwt>
<pdfrwt beam="2">  1       -2 0.27431335E+00 0.27890532E+04</pdfrwt>
<totfact> 0.11022474E+00</totfact>
</mgrwt>
</event>
<event>
 4    1  0.5080671E-005  0.5294464E+03  0.7818608E-02  0.1006366E+00
         -2   -1    0    0    0  501 -0.00000000000E+00  0.00000000000E+00  0.51275485041E+02  0.51275485105E+02  0.25500000000E-02 0. -1.
          2   -1    0    0  501    0  0.00000000000E+00 -0.00000000000E+00 -0.13667033866E+04  0.13667033866E+04  0.25500000000E-02 0.  1.
    5000001    1    1    2    0    0 -0.70690440995E+02  0.14853464285E+03 -0.50114171870E+03  0.56374080994E+03  0.19900000000E+03 0.  0.
   -5000001    1    1    2    0    0  0.70690440995E+02 -0.14853464285E+03 -0.81428618288E+03  0.85423806178E+03  0.19900000000E+03 0.  0.
<mgrwt>
<rscale>  0 0.52944642E+03</rscale>
<asrwt>0</asrwt>
<pdfrwt beam="1">  1        2 0.19524332E+00 0.52944642E+03</pdfrwt>
<pdfrwt beam="2">  1       -2 0.73250702E-02 0.52944642E+03</pdfrwt>
<totfact> 0.19753204E+03</totfact>
</mgrwt>
</event>
<event>
 4    1  0.5080671E-005  0.4975901E+03  0.7818608E-02  0.1014410E+00
          2   -1    0    0  501    0  0.00000000000E+00  0.00000000000E+00  0.41084660148E+03  0.41084660149E+03  0.25500000000E-02 0.  1.
         -2   -1    0    0    0  501 -0.00000000000E+00 -0.00000000000E+00 -0.15066204438E+03  0.15066204441E+03  0.25500000000E-02 0. -1.
    5000001    1    1    2    0    0  0.13539418978E+03  0.30725856687E+02  0.19212990678E+03  0.30950051046E+03  0.19900000000E+03 0.  0.
   -5000001    1    1    2    0    0 -0.13539418978E+03 -0.30725856687E+02  0.68054650315E+02  0.25200813543E+03  0.19900000000E+03 0.  0.
<mgrwt>
<rscale>  0 0.49759015E+03</rscale>
<asrwt>0</asrwt>
<pdfrwt beam="1">  1        2 0.58692371E-01 0.49759015E+03</pdfrwt>
<pdfrwt beam="2">  1       -2 0.21523149E-01 0.49759015E+03</pdfrwt>
<totfact> 0.15677662E+03</totfact>
</mgrwt>
</event>
<event>
 4    1  0.5080671E-005  0.6450186E+03  0.7818608E-02  0.9816172E-01
          2   -1    0    0  501    0  0.00000000000E+00  0.00000000000E+00  0.18269475722E+04  0.18269475722E+04  0.25500000000E-02 0. -1.
         -2   -1    0    0    0  501 -0.00000000000E+00 -0.00000000000E+00 -0.56932257514E+02  0.56932257571E+02  0.25500000000E-02 0.  1.
    5000001    1    1    2    0    0 -0.55054560256E+02  0.16637801574E+03  0.34885694023E+03  0.43819494916E+03  0.19900000000E+03 0.  0.
   -5000001    1    1    2    0    0  0.55054560256E+02 -0.16637801574E+03  0.14211583744E+04  0.14456848806E+04  0.19900000000E+03 0.  0.
<mgrwt>
<rscale>  0 0.64501860E+03</rscale>
<asrwt>0</asrwt>
<pdfrwt beam="1">  1        2 0.26099252E+00 0.64501860E+03</pdfrwt>
<pdfrwt beam="2">  1       -2 0.81331794E-02 0.64501860E+03</pdfrwt>
<totfact> 0.96445611E+02</totfact>
</mgrwt>
</event>
<event>
 4    1  0.5080671E-005  0.8062298E+03  0.7818608E-02  0.9551043E-01
          2   -1    0    0  501    0  0.00000000000E+00  0.00000000000E+00  0.21335643154E+03  0.21335643156E+03  0.25500000000E-02 0.  1.
         -2   -1    0    0    0  501 -0.00000000000E+00 -0.00000000000E+00 -0.76164398434E+03  0.76164398435E+03  0.25500000000E-02 0. -1.
    5000001    1    1    2    0    0 -0.29495907724E+03  0.12908036486E+03 -0.10640773352E+03  0.39317452053E+03  0.19900000000E+03 0.  0.
   -5000001    1    1    2    0    0  0.29495907724E+03 -0.12908036486E+03 -0.44187981928E+03  0.58182589538E+03  0.19900000000E+03 0.  0.
<mgrwt>
<rscale>  0 0.80622985E+03</rscale>
<asrwt>0</asrwt>
<pdfrwt beam="1">  1        2 0.30479491E-01 0.80622985E+03</pdfrwt>
<pdfrwt beam="2">  1       -2 0.10880628E+00 0.80622985E+03</pdfrwt>
<totfact> 0.11875583E+02</totfact>
</mgrwt>
</event>
<event>
 4    1  0.5080671E-005  0.1260166E+04  0.7818608E-02  0.9061765E-01
          2   -1    0    0  501    0  0.00000000000E+00  0.00000000000E+00  0.80210068501E+03  0.80210068502E+03  0.25500000000E-02 0. -1.
         -2   -1    0    0    0  501 -0.00000000000E+00 -0.00000000000E+00 -0.49495584175E+03  0.49495584176E+03  0.25500000000E-02 0.  1.
    5000001    1    1    2    0    0  0.20992178591E+03 -0.41784963091E+03 -0.22980706598E+03  0.55774345162E+03  0.19900000000E+03 0.  0.
   -5000001    1    1    2    0    0 -0.20992178591E+03  0.41784963091E+03  0.53695190925E+03  0.73931307515E+03  0.19900000000E+03 0.  0.
<mgrwt>
<rscale>  0 0.12601657E+04</rscale>
<asrwt>0</asrwt>
<pdfrwt beam="1">  1        2 0.11458581E+00 0.12601657E+04</pdfrwt>
<pdfrwt beam="2">  1       -2 0.70707977E-01 0.12601657E+04</pdfrwt>
<totfact> 0.67790915E+01</totfact>
</mgrwt>
</event>
<event>
 4    1  0.5080671E-005  0.4935937E+03  0.7818608E-02  0.1015465E+00
          2   -1    0    0  501    0  0.00000000000E+00  0.00000000000E+00  0.32875865782E+03  0.32875865783E+03  0.25500000000E-02 0.  1.
         -2   -1    0    0    0  501 -0.00000000000E+00 -0.00000000000E+00 -0.18526866272E+03  0.18526866274E+03  0.25500000000E-02 0. -1.
    5000001    1    1    2    0    0  0.24091075424E+02 -0.12987969222E+03  0.70561527927E+01  0.23895586132E+03  0.19900000000E+03 0.  0.
   -5000001    1    1    2    0    0 -0.24091075424E+02  0.12987969222E+03  0.13643384230E+03  0.27507145925E+03  0.19900000000E+03 0.  0.
<mgrwt>
<rscale>  0 0.49359367E+03</rscale>
<asrwt>0</asrwt>
<pdfrwt beam="1">  1        2 0.46965522E-01 0.49359367E+03</pdfrwt>
<pdfrwt beam="2">  1       -2 0.26466952E-01 0.49359367E+03</pdfrwt>
<totfact> 0.13878231E+03</totfact>
</mgrwt>
</event>
<event>
 4    1  0.5080671E-005  0.5678197E+03  0.7818608E-02  0.9974515E-01
          2   -1    0    0  501    0  0.00000000000E+00  0.00000000000E+00  0.11352804233E+03  0.11352804236E+03  0.25500000000E-02 0.  1.
         -2   -1    0    0    0  501 -0.00000000000E+00 -0.00000000000E+00 -0.70999904717E+03  0.70999904717E+03  0.25500000000E-02 0. -1.
    5000001    1    1    2    0    0 -0.46261414051E+02  0.71492332462E+02 -0.31782510224E+02  0.21877477000E+03  0.19900000000E+03 0.  0.
   -5000001    1    1    2    0    0  0.46261414051E+02 -0.71492332462E+02 -0.56468849461E+03  0.60475231953E+03  0.19900000000E+03 0.  0.
<mgrwt>
<rscale>  0 0.56781970E+03</rscale>
<asrwt>0</asrwt>
<pdfrwt beam="1">  1        2 0.16218292E-01 0.56781970E+03</pdfrwt>
<pdfrwt beam="2">  1       -2 0.10142843E+00 0.56781970E+03</pdfrwt>
<totfact> 0.29473282E+02</totfact>
</mgrwt>
</event>
<event>
 4    1  0.5080671E-005  0.5554398E+03  0.7818608E-02  0.1000243E+00
         -2   -1    0    0    0  501 -0.00000000000E+00  0.00000000000E+00  0.17760837475E+03  0.17760837476E+03  0.25500000000E-02 0. -1.
          2   -1    0    0  501    0  0.00000000000E+00 -0.00000000000E+00 -0.43426067585E+03  0.43426067586E+03  0.25500000000E-02 0.  1.
    5000001    1    1    2    0    0 -0.11736351758E+03 -0.14048766539E+03 -0.58512960606E+02  0.27665094604E+03  0.19900000000E+03 0.  0.
   -5000001    1    1    2    0    0  0.11736351758E+03  0.14048766539E+03 -0.19813934050E+03  0.33521810458E+03  0.19900000000E+03 0.  0.
<mgrwt>
<rscale>  0 0.55543976E+03</rscale>
<asrwt>0</asrwt>
<pdfrwt beam="1">  1        2 0.62037239E-01 0.55543976E+03</pdfrwt>
<pdfrwt beam="2">  1       -2 0.25372625E-01 0.55543976E+03</pdfrwt>
<totfact> 0.11010590E+03</totfact>
</mgrwt>
</event>
<event>
 4    1  0.5080671E-005  0.5658601E+03  0.7818608E-02  0.9978882E-01
         -2   -1    0    0    0  501 -0.00000000000E+00  0.00000000000E+00  0.37561516314E+02  0.37561516400E+02  0.25500000000E-02 0. -1.
          2   -1    0    0  501    0  0.00000000000E+00 -0.00000000000E+00 -0.21311551231E+04  0.21311551231E+04  0.25500000000E-02 0.  1.
    5000001    1    1    2    0    0  0.16682831056E+03  0.70755941016E+02 -0.13811422864E+04  0.14071222775E+04  0.19900000000E+03 0.  0.
   -5000001    1    1    2    0    0 -0.16682831056E+03 -0.70755941016E+02 -0.71245132032E+03  0.76159436199E+03  0.19900000000E+03 0.  0.
<mgrwt>
<rscale>  0 0.56586012E+03</rscale>
<asrwt>0</asrwt>
<pdfrwt beam="1">  1        2 0.30445066E+00 0.56586012E+03</pdfrwt>
<pdfrwt beam="2">  1       -2 0.53659323E-02 0.56586012E+03</pdfrwt>
<totfact> 0.13113931E+03</totfact>
</mgrwt>
</event>
<event>
 4    1  0.5080671E-005  0.5578031E+03  0.7818608E-02  0.9997038E-01
          2   -1    0    0  501    0  0.00000000000E+00  0.00000000000E+00  0.10228943777E+04  0.10228943777E+04  0.25500000000E-02 0.  1.
         -2   -1    0    0    0  501 -0.00000000000E+00 -0.00000000000E+00 -0.76045067521E+02  0.76045067564E+02  0.25500000000E-02 0. -1.
    5000001    1    1    2    0    0 -0.14710840014E+03 -0.88304232422E+02  0.28917303446E+03  0.39071800920E+03  0.19900000000E+03 0.  0.
   -5000001    1    1    2    0    0  0.14710840014E+03  0.88304232422E+02  0.65767627567E+03  0.70822143602E+03  0.19900000000E+03 0.  0.
<mgrwt>
<rscale>  0 0.55780309E+03</rscale>
<asrwt>0</asrwt>
<pdfrwt beam="1">  1        2 0.14612777E+00 0.55780309E+03</pdfrwt>
<pdfrwt beam="2">  1       -2 0.10863581E-01 0.55780309E+03</pdfrwt>
<totfact> 0.16371444E+03</totfact>
</mgrwt>
</event>
<event>
 4    1  0.5080671E-005  0.6339354E+03  0.7818608E-02  0.9837399E-01
          2   -1    0    0  501    0  0.00000000000E+00  0.00000000000E+00  0.39107163708E+04  0.39107163708E+04  0.25500000000E-02 0.  1.
         -2   -1    0    0    0  501 -0.00000000000E+00 -0.00000000000E+00 -0.25690563622E+02  0.25690563749E+02  0.25500000000E-02 0. -1.
    5000001    1    1    2    0    0  0.14006049098E+03 -0.17481468133E+03  0.13004880022E+04  0.13345587877E+04  0.19900000000E+03 0.  0.
   -5000001    1    1    2    0    0 -0.14006049098E+03  0.17481468133E+03  0.25845378050E+04  0.26018481469E+04  0.19900000000E+03 0.  0.
<mgrwt>
<rscale>  0 0.63393535E+03</rscale>
<asrwt>0</asrwt>
<pdfrwt beam="1">  1        2 0.55867304E+00 0.63393535E+03</pdfrwt>
<pdfrwt beam="2">  1       -2 0.36700853E-02 0.63393535E+03</pdfrwt>
<totfact> 0.23994088E+02</totfact>
</mgrwt>
</event>
<event>
 4    1  0.5080671E-005  0.1130692E+04  0.7818608E-02  0.9175783E-01
          2   -1    0    0  501    0  0.00000000000E+00  0.00000000000E+00  0.66366790736E+03  0.66366790737E+03  0.25500000000E-02 0.  1.
         -2   -1    0    0    0  501 -0.00000000000E+00 -0.00000000000E+00 -0.48159072805E+03  0.48159072806E+03  0.25500000000E-02 0. -1.
    5000001    1    1    2    0    0  0.40325955036E+03  0.14153666139E+03  0.40709110507E+03  0.62287643984E+03  0.19900000000E+03 0.  0.
   -5000001    1    1    2    0    0 -0.40325955036E+03 -0.14153666139E+03 -0.22501392577E+03  0.52238219559E+03  0.19900000000E+03 0.  0.
<mgrwt>
<rscale>  0 0.11306924E+04</rscale>
<asrwt>0</asrwt>
<pdfrwt beam="1">  1        2 0.94809701E-01 0.11306924E+04</pdfrwt>
<pdfrwt beam="2">  1       -2 0.68798676E-01 0.11306924E+04</pdfrwt>
<totfact> 0.92036723E+01</totfact>
</mgrwt>
</event>
<event>
 4    1  0.5080671E-005  0.7770631E+03  0.7818608E-02  0.9593824E-01
         -2   -1    0    0    0  501 -0.00000000000E+00  0.00000000000E+00  0.28312702379E+03  0.28312702380E+03  0.25500000000E-02 0. -1.
          2   -1    0    0  501    0  0.00000000000E+00 -0.00000000000E+00 -0.53317680457E+03  0.53317680457E+03  0.25500000000E-02 0.  1.
    5000001    1    1    2    0    0  0.93442040534E+02 -0.30565011074E+03 -0.22579809832E+03  0.43902071288E+03  0.19900000000E+03 0.  0.
   -5000001    1    1    2    0    0 -0.93442040534E+02  0.30565011074E+03 -0.24251682456E+02  0.37728311549E+03  0.19900000000E+03 0.  0.
<mgrwt>
<rscale>  0 0.77706309E+03</rscale>
<asrwt>0</asrwt>
<pdfrwt beam="1">  1        2 0.76168115E-01 0.77706309E+03</pdfrwt>
<pdfrwt beam="2">  1       -2 0.40446718E-01 0.77706309E+03</pdfrwt>
<totfact> 0.36270018E+02</totfact>
</mgrwt>
</event>
<event>
 4    1  0.5080671E-005  0.8324764E+03  0.7818608E-02  0.9514163E-01
          2   -1    0    0  501    0  0.00000000000E+00  0.00000000000E+00  0.30987685884E+04  0.30987685884E+04  0.25500000000E-02 0.  1.
         -2   -1    0    0    0  501 -0.00000000000E+00 -0.00000000000E+00 -0.55910667705E+02  0.55910667763E+02  0.25500000000E-02 0. -1.
    5000001    1    1    2    0    0 -0.15010612065E+03  0.22705966305E+03  0.59656063359E+03  0.68525435248E+03  0.19900000000E+03 0.  0.
   -5000001    1    1    2    0    0  0.15010612065E+03 -0.22705966305E+03  0.24462972871E+04  0.24694249037E+04  0.19900000000E+03 0.  0.
<mgrwt>
<rscale>  0 0.83247636E+03</rscale>
<asrwt>0</asrwt>
<pdfrwt beam="1">  1        2 0.44268136E+00 0.83247636E+03</pdfrwt>
<pdfrwt beam="2">  1       -2 0.79872358E-02 0.83247636E+03</pdfrwt>
<totfact> 0.21320245E+02</totfact>
</mgrwt>
</event>
<event>
 4    1  0.5080671E-005  0.6005803E+03  0.7818608E-02  0.9904203E-01
         -2   -1    0    0    0  501 -0.00000000000E+00  0.00000000000E+00  0.27623845847E+03  0.27623845848E+03  0.25500000000E-02 0. -1.
          2   -1    0    0  501    0  0.00000000000E+00 -0.00000000000E+00 -0.32643603881E+03  0.32643603882E+03  0.25500000000E-02 0.  1.
    5000001    1    1    2    0    0  0.14792495549E+03 -0.12094459267E+03 -0.14410320072E+03  0.31124928821E+03  0.19900000000E+03 0.  0.
   -5000001    1    1    2    0    0 -0.14792495549E+03  0.12094459267E+03  0.93905620379E+02  0.29142520909E+03  0.19900000000E+03 0.  0.
<mgrwt>
<rscale>  0 0.60058035E+03</rscale>
<asrwt>0</asrwt>
<pdfrwt beam="1">  1        2 0.46633720E-01 0.60058035E+03</pdfrwt>
<pdfrwt beam="2">  1       -2 0.39462637E-01 0.60058035E+03</pdfrwt>
<totfact> 0.66303354E+02</totfact>
</mgrwt>
</event>
<event>
 4    1  0.5080671E-005  0.4352277E+03  0.7818608E-02  0.1032221E+00
          2   -1    0    0  501    0  0.00000000000E+00  0.00000000000E+00  0.52230047051E+03  0.52230047052E+03  0.25500000000E-02 0.  1.
         -2   -1    0    0    0  501 -0.00000000000E+00 -0.00000000000E+00 -0.90667718019E+02  0.90667718055E+02  0.25500000000E-02 0. -1.
    5000001    1    1    2    0    0 -0.83509630223E+02 -0.13356296849E+02  0.18124510608E+03  0.28214010258E+03  0.19900000000E+03 0.  0.
   -5000001    1    1    2    0    0  0.83509630223E+02  0.13356296849E+02  0.25038764642E+03  0.33082808600E+03  0.19900000000E+03 0.  0.
<mgrwt>
<rscale>  0 0.43522772E+03</rscale>
<asrwt>0</asrwt>
<pdfrwt beam="1">  1        2 0.74614350E-01 0.43522772E+03</pdfrwt>
<pdfrwt beam="2">  1       -2 0.12952532E-01 0.43522772E+03</pdfrwt>
<totfact> 0.28326734E+03</totfact>
</mgrwt>
</event>
<event>
 4    1  0.5080671E-005  0.4814406E+03  0.7818608E-02  0.1018740E+00
          2   -1    0    0  501    0  0.00000000000E+00  0.00000000000E+00  0.15004731877E+04  0.15004731877E+04  0.25500000000E-02 0.  1.
         -2   -1    0    0    0  501 -0.00000000000E+00 -0.00000000000E+00 -0.38618665999E+02  0.38618666083E+02  0.25500000000E-02 0. -1.
    5000001    1    1    2    0    0  0.32350925462E+02 -0.49351746189E+02  0.11206685588E+04  0.11397285624E+04  0.19900000000E+03 0.  0.
   -5000001    1    1    2    0    0 -0.32350925462E+02  0.49351746189E+02  0.34118596283E+03  0.39936329133E+03  0.19900000000E+03 0.  0.
<mgrwt>
<rscale>  0 0.48144064E+03</rscale>
<asrwt>0</asrwt>
<pdfrwt beam="1">  1        2 0.21435324E+00 0.48144064E+03</pdfrwt>
<pdfrwt beam="2">  1       -2 0.55169542E-02 0.48144064E+03</pdfrwt>
<totfact> 0.26216995E+03</totfact>
</mgrwt>
</event>
<event>
 4    1  0.5080671E-005  0.6274665E+03  0.7818608E-02  0.9850005E-01
         -2   -1    0    0    0  501 -0.00000000000E+00  0.00000000000E+00  0.10920846215E+03  0.10920846218E+03  0.25500000000E-02 0. -1.
          2   -1    0    0  501    0  0.00000000000E+00 -0.00000000000E+00 -0.90129038872E+03  0.90129038872E+03  0.25500000000E-02 0.  1.
    5000001    1    1    2    0    0  0.22516973680E+03 -0.65129845174E+00 -0.25087133042E+03  0.39145786362E+03  0.19900000000E+03 0.  0.
   -5000001    1    1    2    0    0 -0.22516973680E+03  0.65129845174E+00 -0.54121059615E+03  0.61904098729E+03  0.19900000000E+03 0.  0.
<mgrwt>
<rscale>  0 0.62746645E+03</rscale>
<asrwt>0</asrwt>
<pdfrwt beam="1">  1        2 0.12875577E+00 0.62746645E+03</pdfrwt>
<pdfrwt beam="2">  1       -2 0.15601209E-01 0.62746645E+03</pdfrwt>
<totfact> 0.10674981E+03</totfact>
</mgrwt>
</event>
<event>
 4    1  0.5080671E-005  0.5337070E+03  0.7818608E-02  0.1005337E+00
          2   -1    0    0  501    0  0.00000000000E+00  0.00000000000E+00  0.14115918483E+03  0.14115918485E+03  0.25500000000E-02 0.  1.
         -2   -1    0    0    0  501 -0.00000000000E+00 -0.00000000000E+00 -0.50447147853E+03  0.50447147853E+03  0.25500000000E-02 0. -1.
    5000001    1    1    2    0    0  0.16257307986E+03  0.44629841307E+02 -0.11335354103E+03  0.28437977125E+03  0.19900000000E+03 0.  0.
   -5000001    1    1    2    0    0 -0.16257307986E+03 -0.44629841307E+02 -0.24995875267E+03  0.36125089213E+03  0.19900000000E+03 0.  0.
<mgrwt>
<rscale>  0 0.53370697E+03</rscale>
<asrwt>0</asrwt>
<pdfrwt beam="1">  1        2 0.20165598E-01 0.53370697E+03</pdfrwt>
<pdfrwt beam="2">  1       -2 0.72067353E-01 0.53370697E+03</pdfrwt>
<totfact> 0.49500139E+02</totfact>
</mgrwt>
</event>
<event>
 4    1  0.5080671E-005  0.5143116E+03  0.7818608E-02  0.1010109E+00
         -2   -1    0    0    0  501 -0.00000000000E+00  0.00000000000E+00  0.51030114998E+03  0.51030114999E+03  0.25500000000E-02 0. -1.
          2   -1    0    0  501    0  0.00000000000E+00 -0.00000000000E+00 -0.12958840836E+03  0.12958840839E+03  0.25500000000E-02 0.  1.
    5000001    1    1    2    0    0 -0.67543189315E+02  0.14293586412E+03  0.14160518066E+03  0.29093946254E+03  0.19900000000E+03 0.  0.
   -5000001    1    1    2    0    0  0.67543189315E+02 -0.14293586412E+03  0.23910756096E+03  0.34895009583E+03  0.19900000000E+03 0.  0.
<mgrwt>
<rscale>  0 0.51431163E+03</rscale>
<asrwt>0</asrwt>
<pdfrwt beam="1">  1        2 0.18512630E-01 0.51431163E+03</pdfrwt>
<pdfrwt beam="2">  1       -2 0.72900165E-01 0.51431163E+03</pdfrwt>
<totfact> 0.53372405E+02</totfact>
</mgrwt>
</event>
<event>
 4    1  0.5080671E-005  0.5671373E+03  0.7818608E-02  0.9976034E-01
          2   -1    0    0  501    0  0.00000000000E+00  0.00000000000E+00  0.22916180071E+04  0.22916180071E+04  0.25500000000E-02 0.  1.
         -2   -1    0    0    0  501 -0.00000000000E+00 -0.00000000000E+00 -0.35089254893E+02  0.35089254985E+02  0.25500000000E-02 0. -1.
    5000001    1    1    2    0    0 -0.15549620912E+03  0.74930538819E+02  0.69766280040E+03  0.74573992769E+03  0.19900000000E+03 0.  0.
   -5000001    1    1    2    0    0  0.15549620912E+03 -0.74930538819E+02  0.15588659518E+04  0.15809673344E+04  0.19900000000E+03 0.  0.
<mgrwt>
<rscale>  0 0.56713726E+03</rscale>
<asrwt>0</asrwt>
<pdfrwt beam="1">  1        2 0.32737401E+00 0.56713726E+03</pdfrwt>
<pdfrwt beam="2">  1       -2 0.50127505E-02 0.56713726E+03</pdfrwt>
<totfact> 0.12102177E+03</totfact>
</mgrwt>
</event>
<event>
 4    1  0.5080671E-005  0.4225182E+03  0.7818608E-02  0.1036250E+00
         -2   -1    0    0    0  501 -0.00000000000E+00  0.00000000000E+00  0.11899629495E+03  0.11899629498E+03  0.25500000000E-02 0. -1.
          2   -1    0    0  501    0  0.00000000000E+00 -0.00000000000E+00 -0.37505709090E+03  0.37505709091E+03  0.25500000000E-02 0.  1.
    5000001    1    1    2    0    0 -0.17511751618E+02  0.57895591224E+02 -0.17132386635E+03  0.26946507772E+03  0.19900000000E+03 0.  0.
   -5000001    1    1    2    0    0  0.17511751618E+02 -0.57895591224E+02 -0.84736929601E+02  0.22458830817E+03  0.19900000000E+03 0.  0.
<mgrwt>
<rscale>  0 0.42251819E+03</rscale>
<asrwt>0</asrwt>
<pdfrwt beam="1">  1        2 0.53579584E-01 0.42251819E+03</pdfrwt>
<pdfrwt beam="2">  1       -2 0.16999471E-01 0.42251819E+03</pdfrwt>
<totfact> 0.25981126E+03</totfact>
</mgrwt>
</event>
<event>
 4    1  0.5080671E-005  0.5510742E+03  0.7818608E-02  0.1001246E+00
         -2   -1    0    0    0  501 -0.00000000000E+00  0.00000000000E+00  0.23458008042E+02  0.23458008180E+02  0.25500000000E-02 0. -1.
          2   -1    0    0  501    0  0.00000000000E+00 -0.00000000000E+00 -0.32364507916E+04  0.32364507916E+04  0.25500000000E-02 0.  1.
    5000001    1    1    2    0    0  0.69633660383E+00 -0.18471489469E+03 -0.18839359580E+04  0.19034011062E+04  0.19900000000E+03 0.  0.
   -5000001    1    1    2    0    0 -0.69633660383E+00  0.18471489469E+03 -0.13290568256E+04  0.13565076936E+04  0.19900000000E+03 0.  0.
<mgrwt>
<rscale>  0 0.55107418E+03</rscale>
<asrwt>0</asrwt>
<pdfrwt beam="1">  1        2 0.46234983E+00 0.55107418E+03</pdfrwt>
<pdfrwt beam="2">  1       -2 0.33511461E-02 0.55107418E+03</pdfrwt>
<totfact> 0.71195758E+02</totfact>
</mgrwt>
</event>
<event>
 4    1  0.5080671E-005  0.7906802E+03  0.7818608E-02  0.9573606E-01
         -2   -1    0    0    0  501 -0.00000000000E+00  0.00000000000E+00  0.95979981637E+02  0.95979981671E+02  0.25500000000E-02 0. -1.
          2   -1    0    0  501    0  0.00000000000E+00 -0.00000000000E+00 -0.16283999182E+04  0.16283999182E+04  0.25500000000E-02 0.  1.
    5000001    1    1    2    0    0  0.13768546355E+03 -0.26172105157E+03 -0.11391190314E+04  0.11935863451E+04  0.19900000000E+03 0.  0.
   -5000001    1    1    2    0    0 -0.13768546355E+03  0.26172105157E+03 -0.39330090521E+03  0.53079355473E+03  0.19900000000E+03 0.  0.
<mgrwt>
<rscale>  0 0.79068020E+03</rscale>
<asrwt>0</asrwt>
<pdfrwt beam="1">  1        2 0.23262854E+00 0.79068020E+03</pdfrwt>
<pdfrwt beam="2">  1       -2 0.13711427E-01 0.79068020E+03</pdfrwt>
<totfact> 0.51465758E+02</totfact>
</mgrwt>
</event>
<event>
 4    1  0.5080671E-005  0.4538643E+03  0.7818608E-02  0.1026576E+00
          2   -1    0    0  501    0  0.00000000000E+00  0.00000000000E+00  0.63304140137E+03  0.63304140137E+03  0.25500000000E-02 0.  1.
         -2   -1    0    0    0  501 -0.00000000000E+00 -0.00000000000E+00 -0.81350442689E+02  0.81350442729E+02  0.25500000000E-02 0. -1.
    5000001    1    1    2    0    0 -0.53751282093E+02  0.82789963193E+02  0.20279632883E+03  0.30078352568E+03  0.19900000000E+03 0.  0.
   -5000001    1    1    2    0    0  0.53751282093E+02 -0.82789963193E+02  0.34889462985E+03  0.41360831842E+03  0.19900000000E+03 0.  0.
<mgrwt>
<rscale>  0 0.45386429E+03</rscale>
<asrwt>0</asrwt>
<pdfrwt beam="1">  1        2 0.90434484E-01 0.45386429E+03</pdfrwt>
<pdfrwt beam="2">  1       -2 0.11621492E-01 0.45386429E+03</pdfrwt>
<totfact> 0.27108576E+03</totfact>
</mgrwt>
</event>
<event>
 4    1  0.5080671E-005  0.5655915E+03  0.7818608E-02  0.9979482E-01
         -2   -1    0    0    0  501 -0.00000000000E+00  0.00000000000E+00  0.47344208641E+02  0.47344208710E+02  0.25500000000E-02 0. -1.
          2   -1    0    0  501    0  0.00000000000E+00 -0.00000000000E+00 -0.16891914804E+04  0.16891914804E+04  0.25500000000E-02 0.  1.
    5000001    1    1    2    0    0  0.16893620516E+03 -0.48247995548E+01 -0.48726641149E+03  0.55280401217E+03  0.19900000000E+03 0.  0.
   -5000001    1    1    2    0    0 -0.16893620516E+03  0.48247995548E+01 -0.11545808603E+04  0.11837316770E+04  0.19900000000E+03 0.  0.
<mgrwt>
<rscale>  0 0.56559149E+03</rscale>
<asrwt>0</asrwt>
<pdfrwt beam="1">  1        2 0.24131303E+00 0.56559149E+03</pdfrwt>
<pdfrwt beam="2">  1       -2 0.67634594E-02 0.56559149E+03</pdfrwt>
<totfact> 0.15229797E+03</totfact>
</mgrwt>
</event>
<event>
 4    1  0.5080671E-005  0.6333687E+03  0.7818608E-02  0.9838497E-01
         -2   -1    0    0    0  501 -0.00000000000E+00  0.00000000000E+00  0.66908796248E+02  0.66908796296E+02  0.25500000000E-02 0. -1.
          2   -1    0    0  501    0  0.00000000000E+00 -0.00000000000E+00 -0.14988909941E+04  0.14988909941E+04  0.25500000000E-02 0.  1.
    5000001    1    1    2    0    0 -0.19352910759E+03  0.12288065180E+03 -0.93896479407E+03  0.98681763998E+03  0.19900000000E+03 0.  0.
   -5000001    1    1    2    0    0  0.19352910759E+03 -0.12288065180E+03 -0.49301740380E+03  0.57898215043E+03  0.19900000000E+03 0.  0.
<mgrwt>
<rscale>  0 0.63336875E+03</rscale>
<asrwt>0</asrwt>
<pdfrwt beam="1">  1        2 0.21412726E+00 0.63336875E+03</pdfrwt>
<pdfrwt beam="2">  1       -2 0.95584004E-02 0.63336875E+03</pdfrwt>
<totfact> 0.10961757E+03</totfact>
</mgrwt>
</event>
<event>
 4    1  0.5080671E-005  0.4774159E+03  0.7818608E-02  0.1019848E+00
          2   -1    0    0  501    0  0.00000000000E+00  0.00000000000E+00  0.27082542293E+03  0.27082542294E+03  0.25500000000E-02 0.  1.
         -2   -1    0    0    0  501 -0.00000000000E+00 -0.00000000000E+00 -0.21039932572E+03  0.21039932573E+03  0.25500000000E-02 0. -1.
    5000001    1    1    2    0    0 -0.61932837830E+02 -0.82688570361E+02 -0.52339124250E+02  0.23024652005E+03  0.19900000000E+03 0.  0.
   -5000001    1    1    2    0    0  0.61932837830E+02  0.82688570361E+02  0.11276522146E+03  0.25097822862E+03  0.19900000000E+03 0.  0.
<mgrwt>
<rscale>  0 0.47741590E+03</rscale>
<asrwt>0</asrwt>
<pdfrwt beam="1">  1        2 0.38689346E-01 0.47741590E+03</pdfrwt>
<pdfrwt beam="2">  1       -2 0.30057046E-01 0.47741590E+03</pdfrwt>
<totfact> 0.13615648E+03</totfact>
</mgrwt>
</event>
<event>
 4    1  0.5080671E-005  0.5329738E+03  0.7818608E-02  0.1005513E+00
         -2   -1    0    0    0  501 -0.00000000000E+00  0.00000000000E+00  0.12146175691E+03  0.12146175694E+03  0.25500000000E-02 0. -1.
          2   -1    0    0  501    0  0.00000000000E+00 -0.00000000000E+00 -0.58467174143E+03  0.58467174143E+03  0.25500000000E-02 0.  1.
    5000001    1    1    2    0    0 -0.45982812377E+02 -0.13667697411E+03 -0.95075096094E+02  0.26350576499E+03  0.19900000000E+03 0.  0.
   -5000001    1    1    2    0    0  0.45982812377E+02  0.13667697411E+03 -0.36813488842E+03  0.44262773338E+03  0.19900000000E+03 0.  0.
<mgrwt>
<rscale>  0 0.53297376E+03</rscale>
<asrwt>0</asrwt>
<pdfrwt beam="1">  1        2 0.83524533E-01 0.53297376E+03</pdfrwt>
<pdfrwt beam="2">  1       -2 0.17351680E-01 0.53297376E+03</pdfrwt>
<totfact> 0.15264305E+03</totfact>
</mgrwt>
</event>
<event>
 4    1  0.5080671E-005  0.6953086E+03  0.7818608E-02  0.9725289E-01
          2   -1    0    0  501    0  0.00000000000E+00  0.00000000000E+00  0.53731397634E+03  0.53731397635E+03  0.25500000000E-02 0.  1.
         -2   -1    0    0    0  501 -0.00000000000E+00 -0.00000000000E+00 -0.22494017734E+03  0.22494017735E+03  0.25500000000E-02 0. -1.
    5000001    1    1    2    0    0 -0.46748449361E+02  0.25891566329E+03  0.35896439354E+02  0.33183172328E+03  0.19900000000E+03 0.  0.
   -5000001    1    1    2    0    0  0.46748449361E+02 -0.25891566329E+03  0.27647735965E+03  0.43042243043E+03  0.19900000000E+03 0.  0.
<mgrwt>
<rscale>  0 0.69530857E+03</rscale>
<asrwt>0</asrwt>
<pdfrwt beam="1">  1        2 0.76759139E-01 0.69530857E+03</pdfrwt>
<pdfrwt beam="2">  1       -2 0.32134311E-01 0.69530857E+03</pdfrwt>
<totfact> 0.55942357E+02</totfact>
</mgrwt>
</event>
<event>
 4    1  0.5080671E-005  0.6731009E+03  0.7818608E-02  0.9764372E-01
         -2   -1    0    0    0  501 -0.00000000000E+00  0.00000000000E+00  0.65264913295E+02  0.65264913345E+02  0.25500000000E-02 0. -1.
          2   -1    0    0  501    0  0.00000000000E+00 -0.00000000000E+00 -0.17354841127E+04  0.17354841127E+04  0.25500000000E-02 0.  1.
    5000001    1    1    2    0    0  0.18625403737E+03 -0.96386652055E+02 -0.37417834888E+03  0.47285451240E+03  0.19900000000E+03 0.  0.
   -5000001    1    1    2    0    0 -0.18625403737E+03  0.96386652055E+02 -0.12960408505E+04  0.13278945136E+04  0.19900000000E+03 0.  0.
<mgrwt>
<rscale>  0 0.67310094E+03</rscale>
<asrwt>0</asrwt>
<pdfrwt beam="1">  1        2 0.24792627E+00 0.67310094E+03</pdfrwt>
<pdfrwt beam="2">  1       -2 0.93235601E-02 0.67310094E+03</pdfrwt>
<totfact> 0.86048752E+02</totfact>
</mgrwt>
</event>
<event>
 4    1  0.5080671E-005  0.1545403E+04  0.7818608E-02  0.8854810E-01
          2   -1    0    0  501    0  0.00000000000E+00  0.00000000000E+00  0.98152940813E+03  0.98152940813E+03  0.25500000000E-02 0.  1.
         -2   -1    0    0    0  501 -0.00000000000E+00 -0.00000000000E+00 -0.60830300667E+03  0.60830300668E+03  0.25500000000E-02 0. -1.
    5000001    1    1    2    0    0  0.43732448889E+01 -0.67838051768E+03 -0.13419680383E+03  0.71960338674E+03  0.19900000000E+03 0.  0.
   -5000001    1    1    2    0    0 -0.43732448889E+01  0.67838051768E+03  0.50742320528E+03  0.87022902807E+03  0.19900000000E+03 0.  0.
<mgrwt>
<rscale>  0 0.15454026E+04</rscale>
<asrwt>0</asrwt>
<pdfrwt beam="1">  1        2 0.14021848E+00 0.15454026E+04</pdfrwt>
<pdfrwt beam="2">  1       -2 0.86900431E-01 0.15454026E+04</pdfrwt>
<totfact> 0.31883497E+01</totfact>
</mgrwt>
</event>
<event>
 4    1  0.5080671E-005  0.5515664E+03  0.7818608E-02  0.1001132E+00
          2   -1    0    0  501    0  0.00000000000E+00  0.00000000000E+00  0.73919474001E+03  0.73919474002E+03  0.25500000000E-02 0.  1.
         -2   -1    0    0    0  501 -0.00000000000E+00 -0.00000000000E+00 -0.10289085199E+03  0.10289085202E+03  0.25500000000E-02 0. -1.
    5000001    1    1    2    0    0 -0.42475852818E+02  0.18518274960E+03  0.34706006272E+03  0.44288659492E+03  0.19900000000E+03 0.  0.
   -5000001    1    1    2    0    0  0.42475852818E+02 -0.18518274960E+03  0.28924382530E+03  0.39919899711E+03  0.19900000000E+03 0.  0.
<mgrwt>
<rscale>  0 0.55156641E+03</rscale>
<asrwt>0</asrwt>
<pdfrwt beam="1">  1        2 0.10559925E+00 0.55156641E+03</pdfrwt>
<pdfrwt beam="2">  1       -2 0.14698693E-01 0.55156641E+03</pdfrwt>
<totfact> 0.15251520E+03</totfact>
</mgrwt>
</event>
<event>
 4    1  0.5080671E-005  0.4761774E+03  0.7818608E-02  0.1020191E+00
          2   -1    0    0  501    0  0.00000000000E+00  0.00000000000E+00  0.24868120908E+04  0.24868120908E+04  0.25500000000E-02 0.  1.
         -2   -1    0    0    0  501 -0.00000000000E+00 -0.00000000000E+00 -0.22794740400E+02  0.22794740542E+02  0.25500000000E-02 0. -1.
    5000001    1    1    2    0    0  0.10631162548E+03 -0.79190349394E+01  0.16306191346E+04  0.16461727233E+04  0.19900000000E+03 0.  0.
   -5000001    1    1    2    0    0 -0.10631162548E+03  0.79190349394E+01  0.83339821579E+03  0.86343410803E+03  0.19900000000E+03 0.  0.
<mgrwt>
<rscale>  0 0.47617743E+03</rscale>
<asrwt>0</asrwt>
<pdfrwt beam="1">  1        2 0.35525890E+00 0.47617743E+03</pdfrwt>
<pdfrwt beam="2">  1       -2 0.32563912E-02 0.47617743E+03</pdfrwt>
<totfact> 0.18771477E+03</totfact>
</mgrwt>
</event>
<event>
 4    1  0.5080671E-005  0.4599008E+03  0.7818608E-02  0.1024810E+00
          2   -1    0    0  501    0  0.00000000000E+00  0.00000000000E+00  0.12605453923E+04  0.12605453923E+04  0.25500000000E-02 0.  1.
         -2   -1    0    0    0  501 -0.00000000000E+00 -0.00000000000E+00 -0.41947860072E+02  0.41947860150E+02  0.25500000000E-02 0. -1.
    5000001    1    1    2    0    0 -0.15980924998E+02  0.47582431988E+02  0.31556698077E+03  0.37643458549E+03  0.19900000000E+03 0.  0.
   -5000001    1    1    2    0    0  0.15980924998E+02 -0.47582431988E+02  0.90303055142E+03  0.92605866693E+03  0.19900000000E+03 0.  0.
<mgrwt>
<rscale>  0 0.45990078E+03</rscale>
<asrwt>0</asrwt>
<pdfrwt beam="1">  1        2 0.18007790E+00 0.45990078E+03</pdfrwt>
<pdfrwt beam="2">  1       -2 0.59925520E-02 0.45990078E+03</pdfrwt>
<totfact> 0.30890932E+03</totfact>
</mgrwt>
</event>
<event>
 4    1  0.5080671E-005  0.5527742E+03  0.7818608E-02  0.1000854E+00
         -2   -1    0    0    0  501 -0.00000000000E+00  0.00000000000E+00  0.88334574797E+02  0.88334574833E+02  0.25500000000E-02 0. -1.
          2   -1    0    0  501    0  0.00000000000E+00 -0.00000000000E+00 -0.86477843344E+03  0.86477843344E+03  0.25500000000E-02 0.  1.
    5000001    1    1    2    0    0  0.61969175828E+02  0.17974353724E+03 -0.43187327238E+03  0.51211662864E+03  0.19900000000E+03 0.  0.
   -5000001    1    1    2    0    0 -0.61969175828E+02 -0.17974353724E+03 -0.34457058626E+03  0.44099637963E+03  0.19900000000E+03 0.  0.
<mgrwt>
<rscale>  0 0.55277422E+03</rscale>
<asrwt>0</asrwt>
<pdfrwt beam="1">  1        2 0.12353977E+00 0.55277422E+03</pdfrwt>
<pdfrwt beam="2">  1       -2 0.12619225E-01 0.55277422E+03</pdfrwt>
<totfact> 0.16094693E+03</totfact>
</mgrwt>
</event>
<event>
 4    1  0.5080671E-005  0.6092208E+03  0.7818608E-02  0.9886458E-01
         -2   -1    0    0    0  501 -0.00000000000E+00  0.00000000000E+00  0.46965174900E+03  0.46965174901E+03  0.25500000000E-02 0. -1.
          2   -1    0    0  501    0  0.00000000000E+00 -0.00000000000E+00 -0.19756657587E+03  0.19756657588E+03  0.25500000000E-02 0.  1.
    5000001    1    1    2    0    0  0.41433142522E+01 -0.19573857051E+03  0.26952999516E+03  0.38804403530E+03  0.19900000000E+03 0.  0.
   -5000001    1    1    2    0    0 -0.41433142522E+01  0.19573857051E+03  0.25551779711E+01  0.27917428960E+03  0.19900000000E+03 0.  0.
<mgrwt>
<rscale>  0 0.60922077E+03</rscale>
<asrwt>0</asrwt>
<pdfrwt beam="1">  1        2 0.28223797E-01 0.60922077E+03</pdfrwt>
<pdfrwt beam="2">  1       -2 0.67093106E-01 0.60922077E+03</pdfrwt>
<totfact> 0.39251013E+02</totfact>
</mgrwt>
</event>
<event>
 4    1  0.5080671E-005  0.6605063E+03  0.7818608E-02  0.9787262E-01
          2   -1    0    0  501    0  0.00000000000E+00  0.00000000000E+00  0.11298635828E+03  0.11298635831E+03  0.25500000000E-02 0.  1.
         -2   -1    0    0    0  501 -0.00000000000E+00 -0.00000000000E+00 -0.96531246507E+03  0.96531246508E+03  0.25500000000E-02 0. -1.
    5000001    1    1    2    0    0 -0.23348169023E+03 -0.11287019190E+03 -0.50295741682E+03  0.59985043388E+03  0.19900000000E+03 0.  0.
   -5000001    1    1    2    0    0  0.23348169023E+03  0.11287019190E+03 -0.34936868997E+03  0.47844838951E+03  0.19900000000E+03 0.  0.
<mgrwt>
<rscale>  0 0.66050629E+03</rscale>
<asrwt>0</asrwt>
<pdfrwt beam="1">  1        2 0.16140909E-01 0.66050629E+03</pdfrwt>
<pdfrwt beam="2">  1       -2 0.13790178E+00 0.66050629E+03</pdfrwt>
<totfact> 0.13888411E+02</totfact>
</mgrwt>
</event>
<event>
 4    1  0.5080671E-005  0.6676507E+03  0.7818608E-02  0.9774211E-01
         -2   -1    0    0    0  501 -0.00000000000E+00  0.00000000000E+00  0.16975527957E+03  0.16975527959E+03  0.25500000000E-02 0. -1.
          2   -1    0    0  501    0  0.00000000000E+00 -0.00000000000E+00 -0.65647075750E+03  0.65647075751E+03  0.25500000000E-02 0.  1.
    5000001    1    1    2    0    0  0.13093021286E+03  0.21346676033E+03 -0.12512770632E+03  0.34346574981E+03  0.19900000000E+03 0.  0.
   -5000001    1    1    2    0    0 -0.13093021286E+03 -0.21346676033E+03 -0.36158777161E+03  0.48276028729E+03  0.19900000000E+03 0.  0.
<mgrwt>
<rscale>  0 0.66765074E+03</rscale>
<asrwt>0</asrwt>
<pdfrwt beam="1">  1        2 0.93781536E-01 0.66765074E+03</pdfrwt>
<pdfrwt beam="2">  1       -2 0.24250755E-01 0.66765074E+03</pdfrwt>
<totfact> 0.73998574E+02</totfact>
</mgrwt>
</event>
<event>
 4    1  0.5080671E-005  0.6666088E+03  0.7818608E-02  0.9776104E-01
         -2   -1    0    0    0  501 -0.00000000000E+00  0.00000000000E+00  0.18630269535E+03  0.18630269537E+03  0.25500000000E-02 0. -1.
          2   -1    0    0  501    0  0.00000000000E+00 -0.00000000000E+00 -0.59629741160E+03  0.59629741161E+03  0.25500000000E-02 0.  1.
    5000001    1    1    2    0    0 -0.13995205589E+03  0.15785611912E+03 -0.39785443554E+03  0.49233554023E+03  0.19900000000E+03 0.  0.
   -5000001    1    1    2    0    0  0.13995205589E+03 -0.15785611912E+03 -0.12140280716E+02  0.29026456675E+03  0.19900000000E+03 0.  0.
<mgrwt>
<rscale>  0 0.66660878E+03</rscale>
<asrwt>0</asrwt>
<pdfrwt beam="1">  1        2 0.85185344E-01 0.66660878E+03</pdfrwt>
<pdfrwt beam="2">  1       -2 0.26614671E-01 0.66660878E+03</pdfrwt>
<totfact> 0.70172124E+02</totfact>
</mgrwt>
</event>
<event>
 4    1  0.5080671E-005  0.6391572E+03  0.7818608E-02  0.9827340E-01
          2   -1    0    0  501    0  0.00000000000E+00  0.00000000000E+00  0.33558438319E+04  0.33558438319E+04  0.25500000000E-02 0.  1.
         -2   -1    0    0    0  501 -0.00000000000E+00 -0.00000000000E+00 -0.30433625790E+02  0.30433625897E+02  0.25500000000E-02 0. -1.
    5000001    1    1    2    0    0  0.12971298490E+03  0.11569219769E+03  0.26151637963E+04  0.26284772825E+04  0.19900000000E+03 0.  0.
   -5000001    1    1    2    0    0 -0.12971298490E+03 -0.11569219769E+03  0.71024640980E+03  0.75780017531E+03  0.19900000000E+03 0.  0.
<mgrwt>
<rscale>  0 0.63915724E+03</rscale>
<asrwt>0</asrwt>
<pdfrwt beam="1">  1        2 0.47940632E+00 0.63915724E+03</pdfrwt>
<pdfrwt beam="2">  1       -2 0.43476603E-02 0.63915724E+03</pdfrwt>
<totfact> 0.40437878E+02</totfact>
</mgrwt>
</event>
<event>
 4    1  0.5080671E-005  0.5036632E+03  0.7818608E-02  0.1012827E+00
          2   -1    0    0  501    0  0.00000000000E+00  0.00000000000E+00  0.16751764551E+04  0.16751764551E+04  0.25500000000E-02 0.  1.
         -2   -1    0    0    0  501 -0.00000000000E+00 -0.00000000000E+00 -0.37858198021E+02  0.37858198107E+02  0.25500000000E-02 0. -1.
    5000001    1    1    2    0    0 -0.15252838698E+03 -0.21870368696E+02  0.78921604862E+03  0.82837563536E+03  0.19900000000E+03 0.  0.
   -5000001    1    1    2    0    0  0.15252838698E+03  0.21870368696E+02  0.84810220841E+03  0.88465901780E+03  0.19900000000E+03 0.  0.
<mgrwt>
<rscale>  0 0.50366323E+03</rscale>
<asrwt>0</asrwt>
<pdfrwt beam="1">  1        2 0.23931095E+00 0.50366323E+03</pdfrwt>
<pdfrwt beam="2">  1       -2 0.54083134E-02 0.50366323E+03</pdfrwt>
<totfact> 0.22001751E+03</totfact>
</mgrwt>
</event>
<event>
 4    1  0.5080671E-005  0.6081425E+03  0.7818608E-02  0.9888655E-01
          2   -1    0    0  501    0  0.00000000000E+00  0.00000000000E+00  0.37269084763E+04  0.37269084763E+04  0.25500000000E-02 0.  1.
         -2   -1    0    0    0  501 -0.00000000000E+00 -0.00000000000E+00 -0.24808586801E+02  0.24808586932E+02  0.25500000000E-02 0. -1.
    5000001    1    1    2    0    0 -0.15760232065E+03 -0.15095559678E+03  0.22972903666E+04  0.23161973388E+04  0.19900000000E+03 0.  0.
   -5000001    1    1    2    0    0  0.15760232065E+03  0.15095559678E+03  0.14048095229E+04  0.14355197244E+04  0.19900000000E+03 0.  0.
<mgrwt>
<rscale>  0 0.60814253E+03</rscale>
<asrwt>0</asrwt>
<pdfrwt beam="1">  1        2 0.53241521E+00 0.60814253E+03</pdfrwt>
<pdfrwt beam="2">  1       -2 0.35440857E-02 0.60814253E+03</pdfrwt>
<totfact> 0.33271754E+02</totfact>
</mgrwt>
</event>
<event>
 4    1  0.5080671E-005  0.8047886E+03  0.7818608E-02  0.9553112E-01
          2   -1    0    0  501    0  0.00000000000E+00  0.00000000000E+00  0.26035844985E+04  0.26035844985E+04  0.25500000000E-02 0.  1.
         -2   -1    0    0    0  501 -0.00000000000E+00 -0.00000000000E+00 -0.62191638469E+02  0.62191638521E+02  0.25500000000E-02 0. -1.
    5000001    1    1    2    0    0 -0.25019914366E+03 -0.39138485597E+02  0.20697232719E+04  0.20946328688E+04  0.19900000000E+03 0.  0.
   -5000001    1    1    2    0    0  0.25019914366E+03  0.39138485597E+02  0.47166958812E+03  0.57114326828E+03  0.19900000000E+03 0.  0.
<mgrwt>
<rscale>  0 0.80478863E+03</rscale>
<asrwt>0</asrwt>
<pdfrwt beam="1">  1        2 0.37194071E+00 0.80478863E+03</pdfrwt>
<pdfrwt beam="2">  1       -2 0.88845182E-02 0.80478863E+03</pdfrwt>
<totfact> 0.33280781E+02</totfact>
</mgrwt>
</event>
<event>
 4    1  0.5080671E-005  0.7834871E+03  0.7818608E-02  0.9584231E-01
         -2   -1    0    0    0  501 -0.00000000000E+00  0.00000000000E+00  0.17460948752E+03  0.17460948753E+03  0.25500000000E-02 0. -1.
          2   -1    0    0  501    0  0.00000000000E+00 -0.00000000000E+00 -0.87889274678E+03  0.87889274678E+03  0.25500000000E-02 0.  1.
    5000001    1    1    2    0    0 -0.30190747985E+03 -0.22244217462E+02 -0.15170982001E+03  0.39275921516E+03  0.19900000000E+03 0.  0.
   -5000001    1    1    2    0    0  0.30190747985E+03  0.22244217462E+02 -0.55257343925E+03  0.66074301916E+03  0.19900000000E+03 0.  0.
<mgrwt>
<rscale>  0 0.78348711E+03</rscale>
<asrwt>0</asrwt>
<pdfrwt beam="1">  1        2 0.12555610E+00 0.78348711E+03</pdfrwt>
<pdfrwt beam="2">  1       -2 0.24944213E-01 0.78348711E+03</pdfrwt>
<totfact> 0.48453137E+02</totfact>
</mgrwt>
</event>
<event>
 4    1  0.5080671E-005  0.5104773E+03  0.7818608E-02  0.1011080E+00
          2   -1    0    0  501    0  0.00000000000E+00  0.00000000000E+00  0.13691697003E+04  0.13691697003E+04  0.25500000000E-02 0.  1.
         -2   -1    0    0    0  501 -0.00000000000E+00 -0.00000000000E+00 -0.47581223751E+02  0.47581223820E+02  0.25500000000E-02 0. -1.
    5000001    1    1    2    0    0 -0.15318173335E+03  0.44608146027E+02  0.68730420618E+03  0.73310476874E+03  0.19900000000E+03 0.  0.
   -5000001    1    1    2    0    0  0.15318173335E+03 -0.44608146027E+02  0.63428427034E+03  0.68364615535E+03  0.19900000000E+03 0.  0.
<mgrwt>
<rscale>  0 0.51047731E+03</rscale>
<asrwt>0</asrwt>
<pdfrwt beam="1">  1        2 0.19559563E+00 0.51047731E+03</pdfrwt>
<pdfrwt beam="2">  1       -2 0.67973190E-02 0.51047731E+03</pdfrwt>
<totfact> 0.22164658E+03</totfact>
</mgrwt>
</event>
<event>
 4    1  0.5080671E-005  0.5403649E+03  0.7818608E-02  0.1003749E+00
         -2   -1    0    0    0  501 -0.00000000000E+00  0.00000000000E+00  0.83764217308E+02  0.83764217347E+02  0.25500000000E-02 0. -1.
          2   -1    0    0  501    0  0.00000000000E+00 -0.00000000000E+00 -0.87147648075E+03  0.87147648075E+03  0.25500000000E-02 0.  1.
    5000001    1    1    2    0    0 -0.69466858189E+02 -0.14428437748E+03 -0.54951947678E+03  0.60598373026E+03  0.19900000000E+03 0.  0.
   -5000001    1    1    2    0    0  0.69466858189E+02  0.14428437748E+03 -0.23819278666E+03  0.34925696785E+03  0.19900000000E+03 0.  0.
<mgrwt>
<rscale>  0 0.54036486E+03</rscale>
<asrwt>0</asrwt>
<pdfrwt beam="1">  1        2 0.12449664E+00 0.54036486E+03</pdfrwt>
<pdfrwt beam="2">  1       -2 0.11966317E-01 0.54036486E+03</pdfrwt>
<totfact> 0.17390483E+03</totfact>
</mgrwt>
</event>
<event>
 4    1  0.5080671E-005  0.1636197E+04  0.7818608E-02  0.8798614E-01
          2   -1    0    0  501    0  0.00000000000E+00  0.00000000000E+00  0.23652476365E+04  0.23652476365E+04  0.25500000000E-02 0.  1.
         -2   -1    0    0    0  501 -0.00000000000E+00 -0.00000000000E+00 -0.28296637871E+03  0.28296637872E+03  0.25500000000E-02 0. -1.
    5000001    1    1    2    0    0  0.42993852204E+03 -0.66664558102E+03  0.10743535762E+04  0.13502222299E+04  0.19900000000E+03 0.  0.
   -5000001    1    1    2    0    0 -0.42993852204E+03  0.66664558102E+03  0.10079276815E+04  0.12979917853E+04  0.19900000000E+03 0.  0.
<mgrwt>
<rscale>  0 0.16361975E+04</rscale>
<asrwt>0</asrwt>
<pdfrwt beam="1">  1        2 0.33789253E+00 0.16361975E+04</pdfrwt>
<pdfrwt beam="2">  1       -2 0.40423767E-01 0.16361975E+04</pdfrwt>
<totfact> 0.28819837E+01</totfact>
</mgrwt>
</event>
<event>
 4    1  0.5080671E-005  0.9118698E+03  0.7818608E-02  0.9410864E-01
          2   -1    0    0  501    0  0.00000000000E+00  0.00000000000E+00  0.12967897311E+04  0.12967897311E+04  0.25500000000E-02 0.  1.
         -2   -1    0    0    0  501 -0.00000000000E+00 -0.00000000000E+00 -0.16030094761E+03  0.16030094763E+03  0.25500000000E-02 0. -1.
    5000001    1    1    2    0    0  0.18737343891E+03  0.18545905775E+03  0.66051983168E+02  0.33684971752E+03  0.19900000000E+03 0.  0.
   -5000001    1    1    2    0    0 -0.18737343891E+03 -0.18545905775E+03  0.10704368003E+04  0.11202409612E+04  0.19900000000E+03 0.  0.
<mgrwt>
<rscale>  0 0.91186978E+03</rscale>
<asrwt>0</asrwt>
<pdfrwt beam="1">  1        2 0.18525567E+00 0.91186978E+03</pdfrwt>
<pdfrwt beam="2">  1       -2 0.22900136E-01 0.91186978E+03</pdfrwt>
<totfact> 0.31645160E+02</totfact>
</mgrwt>
</event>
<event>
 4    1  0.5080671E-005  0.5645763E+03  0.7818608E-02  0.9981753E-01
          2   -1    0    0  501    0  0.00000000000E+00  0.00000000000E+00  0.69122546944E+03  0.69122546944E+03  0.25500000000E-02 0.  1.
         -2   -1    0    0    0  501 -0.00000000000E+00 -0.00000000000E+00 -0.11528309103E+03  0.11528309106E+03  0.25500000000E-02 0. -1.
    5000001    1    1    2    0    0  0.18758079222E+03  0.48980205596E+01  0.18822955100E+03  0.33202696891E+03  0.19900000000E+03 0.  0.
   -5000001    1    1    2    0    0 -0.18758079222E+03 -0.48980205596E+01  0.38771282741E+03  0.47448159159E+03  0.19900000000E+03 0.  0.
<mgrwt>
<rscale>  0 0.56457633E+03</rscale>
<asrwt>0</asrwt>
<pdfrwt beam="1">  1        2 0.98746499E-01 0.56457633E+03</pdfrwt>
<pdfrwt beam="2">  1       -2 0.16469013E-01 0.56457633E+03</pdfrwt>
<totfact> 0.13668658E+03</totfact>
</mgrwt>
</event>
<event>
 4    1  0.5080671E-005  0.5004009E+03  0.7818608E-02  0.1013674E+00
         -2   -1    0    0    0  501 -0.00000000000E+00  0.00000000000E+00  0.54186272255E+03  0.54186272255E+03  0.25500000000E-02 0. -1.
          2   -1    0    0  501    0  0.00000000000E+00 -0.00000000000E+00 -0.11552789192E+03  0.11552789195E+03  0.25500000000E-02 0.  1.
    5000001    1    1    2    0    0  0.69200738950E+02  0.53464691865E+02  0.50392107924E+02  0.22313130683E+03  0.19900000000E+03 0.  0.
   -5000001    1    1    2    0    0 -0.69200738950E+02 -0.53464691865E+02  0.37594272270E+03  0.43425930767E+03  0.19900000000E+03 0.  0.
<mgrwt>
<rscale>  0 0.50040087E+03</rscale>
<asrwt>0</asrwt>
<pdfrwt beam="1">  1        2 0.16503985E-01 0.50040087E+03</pdfrwt>
<pdfrwt beam="2">  1       -2 0.77408959E-01 0.50040087E+03</pdfrwt>
<totfact> 0.53594480E+02</totfact>
</mgrwt>
</event>
<event>
 4    1  0.5080671E-005  0.6567012E+03  0.7818608E-02  0.9794286E-01
          2   -1    0    0  501    0  0.00000000000E+00  0.00000000000E+00  0.18925169687E+04  0.18925169687E+04  0.25500000000E-02 0.  1.
         -2   -1    0    0    0  501 -0.00000000000E+00 -0.00000000000E+00 -0.56968632518E+02  0.56968632575E+02  0.25500000000E-02 0. -1.
    5000001    1    1    2    0    0  0.14822384009E+03 -0.19560161612E+03  0.11830086609E+04  0.12244757208E+04  0.19900000000E+03 0.  0.
   -5000001    1    1    2    0    0 -0.14822384009E+03  0.19560161612E+03  0.65253967523E+03  0.72500988045E+03  0.19900000000E+03 0.  0.
<mgrwt>
<rscale>  0 0.65670116E+03</rscale>
<asrwt>0</asrwt>
<pdfrwt beam="1">  1        2 0.27035950E+00 0.65670116E+03</pdfrwt>
<pdfrwt beam="2">  1       -2 0.81383780E-02 0.65670116E+03</pdfrwt>
<totfact> 0.89217847E+02</totfact>
</mgrwt>
</event>
<event>
 4    1  0.5080671E-005  0.6764532E+03  0.7818608E-02  0.9758370E-01
          2   -1    0    0  501    0  0.00000000000E+00  0.00000000000E+00  0.33203632437E+03  0.33203632438E+03  0.25500000000E-02 0.  1.
         -2   -1    0    0    0  501 -0.00000000000E+00 -0.00000000000E+00 -0.34453227919E+03  0.34453227920E+03  0.25500000000E-02 0. -1.
    5000001    1    1    2    0    0  0.17004557304E+03 -0.17765462337E+03  0.11343684181E+03  0.33607377046E+03  0.19900000000E+03 0.  0.
   -5000001    1    1    2    0    0 -0.17004557304E+03  0.17765462337E+03 -0.12593279664E+03  0.34049483312E+03  0.19900000000E+03 0.  0.
<mgrwt>
<rscale>  0 0.67645320E+03</rscale>
<asrwt>0</asrwt>
<pdfrwt beam="1">  1        2 0.47433761E-01 0.67645320E+03</pdfrwt>
<pdfrwt beam="2">  1       -2 0.49218897E-01 0.67645320E+03</pdfrwt>
<totfact> 0.41958234E+02</totfact>
</mgrwt>
</event>
<event>
 4    1  0.5080671E-005  0.1253221E+04  0.7818608E-02  0.9067507E-01
         -2   -1    0    0    0  501 -0.00000000000E+00  0.00000000000E+00  0.23176574632E+03  0.23176574634E+03  0.25500000000E-02 0. -1.
          2   -1    0    0  501    0  0.00000000000E+00 -0.00000000000E+00 -0.16941270267E+04  0.16941270267E+04  0.25500000000E-02 0.  1.
    5000001    1    1    2    0    0 -0.26089055766E+03  0.52040089349E+03 -0.91403919917E+03  0.11017938240E+04  0.19900000000E+03 0.  0.
   -5000001    1    1    2    0    0  0.26089055766E+03 -0.52040089349E+03 -0.54832208116E+03  0.82409894898E+03  0.19900000000E+03 0.  0.
<mgrwt>
<rscale>  0 0.12532208E+04</rscale>
<asrwt>0</asrwt>
<pdfrwt beam="1">  1        2 0.24201814E+00 0.12532208E+04</pdfrwt>
<pdfrwt beam="2">  1       -2 0.33109393E-01 0.12532208E+04</pdfrwt>
<totfact> 0.96701375E+01</totfact>
</mgrwt>
</event>
<event>
 4    1  0.5080671E-005  0.5407938E+03  0.7818608E-02  0.1003648E+00
         -2   -1    0    0    0  501 -0.00000000000E+00  0.00000000000E+00  0.36412721387E+03  0.36412721388E+03  0.25500000000E-02 0. -1.
          2   -1    0    0  501    0  0.00000000000E+00 -0.00000000000E+00 -0.20079378558E+03  0.20079378559E+03  0.25500000000E-02 0.  1.
    5000001    1    1    2    0    0  0.76815517815E+02  0.16345673683E+03  0.50419764280E+02  0.27342618972E+03  0.19900000000E+03 0.  0.
   -5000001    1    1    2    0    0 -0.76815517815E+02 -0.16345673683E+03  0.11291366402E+03  0.29149480976E+03  0.19900000000E+03 0.  0.
<mgrwt>
<rscale>  0 0.54079379E+03</rscale>
<asrwt>0</asrwt>
<pdfrwt beam="1">  1        2 0.28684827E-01 0.54079379E+03</pdfrwt>
<pdfrwt beam="2">  1       -2 0.52018173E-01 0.54079379E+03</pdfrwt>
<totfact> 0.65746828E+02</totfact>
</mgrwt>
</event>
<event>
 4    1  0.5080671E-005  0.8049381E+03  0.7818608E-02  0.9552897E-01
         -2   -1    0    0    0  501 -0.00000000000E+00  0.00000000000E+00  0.62501681685E+02  0.62501681737E+02  0.25500000000E-02 0. -1.
          2   -1    0    0  501    0  0.00000000000E+00 -0.00000000000E+00 -0.25916315481E+04  0.25916315481E+04  0.25500000000E-02 0.  1.
    5000001    1    1    2    0    0 -0.27990127833E+03 -0.90660807354E+02 -0.18885872666E+04  0.19216989804E+04  0.19900000000E+03 0.  0.
   -5000001    1    1    2    0    0  0.27990127833E+03  0.90660807354E+02 -0.64054259977E+03  0.73243424942E+03  0.19900000000E+03 0.  0.
<mgrwt>
<rscale>  0 0.80493808E+03</rscale>
<asrwt>0</asrwt>
<pdfrwt beam="1">  1        2 0.37023301E+00 0.80493808E+03</pdfrwt>
<pdfrwt beam="2">  1       -2 0.89288133E-02 0.80493808E+03</pdfrwt>
<totfact> 0.33492237E+02</totfact>
</mgrwt>
</event>
<event>
 4    1  0.5080671E-005  0.8522882E+03  0.7818608E-02  0.9487271E-01
          2   -1    0    0  501    0  0.00000000000E+00  0.00000000000E+00  0.54073508929E+03  0.54073508929E+03  0.25500000000E-02 0.  1.
         -2   -1    0    0    0  501 -0.00000000000E+00 -0.00000000000E+00 -0.33583686698E+03  0.33583686699E+03  0.25500000000E-02 0. -1.
    5000001    1    1    2    0    0 -0.81768009975E+02  0.34493023912E+03  0.23389874120E+03  0.46901225831E+03  0.19900000000E+03 0.  0.
   -5000001    1    1    2    0    0  0.81768009975E+02 -0.34493023912E+03 -0.29000518891E+02  0.40755969797E+03  0.19900000000E+03 0.  0.
<mgrwt>
<rscale>  0 0.85228816E+03</rscale>
<asrwt>0</asrwt>
<pdfrwt beam="1">  1        2 0.77247869E-01 0.85228816E+03</pdfrwt>
<pdfrwt beam="2">  1       -2 0.47976696E-01 0.85228816E+03</pdfrwt>
<totfact> 0.25353072E+02</totfact>
</mgrwt>
</event>
<event>
 4    1  0.5080671E-005  0.6020267E+03  0.7818608E-02  0.9901210E-01
         -2   -1    0    0    0  501 -0.00000000000E+00  0.00000000000E+00  0.73439757610E+02  0.73439757654E+02  0.25500000000E-02 0. -1.
          2   -1    0    0  501    0  0.00000000000E+00 -0.00000000000E+00 -0.12337873905E+04  0.12337873905E+04  0.25500000000E-02 0.  1.
    5000001    1    1    2    0    0 -0.20159160709E+03  0.10106161088E+03 -0.60724399315E+03  0.67764215665E+03  0.19900000000E+03 0.  0.
   -5000001    1    1    2    0    0  0.20159160709E+03 -0.10106161088E+03 -0.55310363974E+03  0.62958499151E+03  0.19900000000E+03 0.  0.
<mgrwt>
<rscale>  0 0.60202673E+03</rscale>
<asrwt>0</asrwt>
<pdfrwt beam="1">  1        2 0.17625533E+00 0.60202673E+03</pdfrwt>
<pdfrwt beam="2">  1       -2 0.10491395E-01 0.60202673E+03</pdfrwt>
<totfact> 0.13090731E+03</totfact>
</mgrwt>
</event>
<event>
 4    1  0.5080671E-005  0.9059703E+03  0.7818608E-02  0.9418149E-01
         -2   -1    0    0    0  501 -0.00000000000E+00  0.00000000000E+00  0.15099065166E+03  0.15099065169E+03  0.25500000000E-02 0. -1.
          2   -1    0    0  501    0  0.00000000000E+00 -0.00000000000E+00 -0.13589950363E+04  0.13589950363E+04  0.25500000000E-02 0.  1.
    5000001    1    1    2    0    0  0.25902599388E+03  0.16162916920E+03 -0.10523927267E+04  0.11137099735E+04  0.19900000000E+03 0.  0.
   -5000001    1    1    2    0    0 -0.25902599388E+03 -0.16162916920E+03 -0.15561165799E+03  0.39627571455E+03  0.19900000000E+03 0.  0.
<mgrwt>
<rscale>  0 0.90597030E+03</rscale>
<asrwt>0</asrwt>
<pdfrwt beam="1">  1        2 0.19414214E+00 0.90597030E+03</pdfrwt>
<pdfrwt beam="2">  1       -2 0.21570094E-01 0.90597030E+03</pdfrwt>
<totfact> 0.32553622E+02</totfact>
</mgrwt>
</event>
<event>
 4    1  0.5080671E-005  0.4804182E+03  0.7818608E-02  0.1019020E+00
         -2   -1    0    0    0  501 -0.00000000000E+00  0.00000000000E+00  0.89171762515E+02  0.89171762552E+02  0.25500000000E-02 0. -1.
          2   -1    0    0  501    0  0.00000000000E+00 -0.00000000000E+00 -0.64707046397E+03  0.64707046397E+03  0.25500000000E-02 0.  1.
    5000001    1    1    2    0    0 -0.12386445825E+03  0.45157195097E+02 -0.23788978746E+03  0.33700760713E+03  0.19900000000E+03 0.  0.
   -5000001    1    1    2    0    0  0.12386445825E+03 -0.45157195097E+02 -0.32000891399E+03  0.39923461939E+03  0.19900000000E+03 0.  0.
<mgrwt>
<rscale>  0 0.48041821E+03</rscale>
<asrwt>0</asrwt>
<pdfrwt beam="1">  1        2 0.92438635E-01 0.48041821E+03</pdfrwt>
<pdfrwt beam="2">  1       -2 0.12738824E-01 0.48041821E+03</pdfrwt>
<totfact> 0.22735041E+03</totfact>
</mgrwt>
</event>
<event>
 4    1  0.5080671E-005  0.5468045E+03  0.7818608E-02  0.1002236E+00
         -2   -1    0    0    0  501 -0.00000000000E+00  0.00000000000E+00  0.15349032390E+03  0.15349032392E+03  0.25500000000E-02 0. -1.
          2   -1    0    0  501    0  0.00000000000E+00 -0.00000000000E+00 -0.48699350585E+03  0.48699350586E+03  0.25500000000E-02 0.  1.
    5000001    1    1    2    0    0  0.42332393206E+02  0.15731368975E+03 -0.27542700794E+03  0.37682975625E+03  0.19900000000E+03 0.  0.
   -5000001    1    1    2    0    0 -0.42332393206E+02 -0.15731368975E+03 -0.58076174019E+02  0.26365407353E+03  0.19900000000E+03 0.  0.
<mgrwt>
<rscale>  0 0.54680450E+03</rscale>
<asrwt>0</asrwt>
<pdfrwt beam="1">  1        2 0.69570500E-01 0.54680450E+03</pdfrwt>
<pdfrwt beam="2">  1       -2 0.21927189E-01 0.54680450E+03</pdfrwt>
<totfact> 0.12549312E+03</totfact>
</mgrwt>
</event>
<event>
 4    1  0.5080671E-005  0.6589152E+03  0.7818608E-02  0.9790193E-01
          2   -1    0    0  501    0  0.00000000000E+00  0.00000000000E+00  0.11308420912E+04  0.11308420913E+04  0.25500000000E-02 0.  1.
         -2   -1    0    0    0  501 -0.00000000000E+00 -0.00000000000E+00 -0.95983606498E+02  0.95983606532E+02  0.25500000000E-02 0. -1.
    5000001    1    1    2    0    0  0.67583545842E+02 -0.24178654848E+03  0.37425712263E+03  0.49264354714E+03  0.19900000000E+03 0.  0.
   -5000001    1    1    2    0    0 -0.67583545842E+02  0.24178654848E+03  0.66060136212E+03  0.73418215065E+03  0.19900000000E+03 0.  0.
<mgrwt>
<rscale>  0 0.65891518E+03</rscale>
<asrwt>0</asrwt>
<pdfrwt beam="1">  1        2 0.16154886E+00 0.65891518E+03</pdfrwt>
<pdfrwt beam="2">  1       -2 0.13711945E-01 0.65891518E+03</pdfrwt>
<totfact> 0.96107077E+02</totfact>
</mgrwt>
</event>
<event>
 4    1  0.5080671E-005  0.5209664E+03  0.7818608E-02  0.1008447E+00
          2   -1    0    0  501    0  0.00000000000E+00  0.00000000000E+00  0.10343018365E+04  0.10343018365E+04  0.25500000000E-02 0.  1.
         -2   -1    0    0    0  501 -0.00000000000E+00 -0.00000000000E+00 -0.65601251486E+02  0.65601251535E+02  0.25500000000E-02 0. -1.
    5000001    1    1    2    0    0 -0.69288248365E+02 -0.91240318850E+02  0.22469924561E+03  0.32127310520E+03  0.19900000000E+03 0.  0.
   -5000001    1    1    2    0    0  0.69288248365E+02  0.91240318850E+02  0.74400133945E+03  0.77862998288E+03  0.19900000000E+03 0.  0.
<mgrwt>
<rscale>  0 0.52096639E+03</rscale>
<asrwt>0</asrwt>
<pdfrwt beam="1">  1        2 0.14775740E+00 0.52096639E+03</pdfrwt>
<pdfrwt beam="2">  1       -2 0.93716074E-02 0.52096639E+03</pdfrwt>
<totfact> 0.20477171E+03</totfact>
</mgrwt>
</event>
<event>
 4    1  0.5080671E-005  0.5701692E+03  0.7818608E-02  0.9969304E-01
          2   -1    0    0  501    0  0.00000000000E+00  0.00000000000E+00  0.60194276315E+03  0.60194276315E+03  0.25500000000E-02 0.  1.
         -2   -1    0    0    0  501 -0.00000000000E+00 -0.00000000000E+00 -0.13501818323E+03  0.13501818325E+03  0.25500000000E-02 0. -1.
    5000001    1    1    2    0    0  0.18006999661E+03  0.51338087829E+02  0.12836585830E+03  0.30189335289E+03  0.19900000000E+03 0.  0.
   -5000001    1    1    2    0    0 -0.18006999661E+03 -0.51338087829E+02  0.33855872162E+03  0.43506759351E+03  0.19900000000E+03 0.  0.
<mgrwt>
<rscale>  0 0.57016916E+03</rscale>
<asrwt>0</asrwt>
<pdfrwt beam="1">  1        2 0.85991826E-01 0.57016916E+03</pdfrwt>
<pdfrwt beam="2">  1       -2 0.19288311E-01 0.57016916E+03</pdfrwt>
<totfact> 0.12297839E+03</totfact>
</mgrwt>
</event>
<event>
 4    1  0.5080671E-005  0.8030077E+03  0.7818608E-02  0.9555674E-01
         -2   -1    0    0    0  501 -0.00000000000E+00  0.00000000000E+00  0.67567948837E+02  0.67567948885E+02  0.25500000000E-02 0. -1.
          2   -1    0    0  501    0  0.00000000000E+00 -0.00000000000E+00 -0.23858254888E+04  0.23858254888E+04  0.25500000000E-02 0.  1.
    5000001    1    1    2    0    0  0.30301300968E+03 -0.88546490972E+02 -0.16117498527E+04  0.16543868812E+04  0.19900000000E+03 0.  0.
   -5000001    1    1    2    0    0 -0.30301300968E+03  0.88546490972E+02 -0.70650768722E+03  0.79900655642E+03  0.19900000000E+03 0.  0.
<mgrwt>
<rscale>  0 0.80300768E+03</rscale>
<asrwt>0</asrwt>
<pdfrwt beam="1">  1        2 0.34083216E+00 0.80300768E+03</pdfrwt>
<pdfrwt beam="2">  1       -2 0.96525656E-02 0.80300768E+03</pdfrwt>
<totfact> 0.37727060E+02</totfact>
</mgrwt>
</event>
<event>
 4    1  0.5080671E-005  0.5170813E+03  0.7818608E-02  0.1009414E+00
          2   -1    0    0  501    0  0.00000000000E+00  0.00000000000E+00  0.55951324071E+02  0.55951324129E+02  0.25500000000E-02 0.  1.
         -2   -1    0    0    0  501 -0.00000000000E+00 -0.00000000000E+00 -0.11946683389E+04  0.11946683389E+04  0.25500000000E-02 0. -1.
    5000001    1    1    2    0    0 -0.10217097114E+03  0.37020823790E+02 -0.26889679709E+03  0.35173276251E+03  0.19900000000E+03 0.  0.
   -5000001    1    1    2    0    0  0.10217097114E+03 -0.37020823790E+02 -0.86982021774E+03  0.89888690052E+03  0.19900000000E+03 0.  0.
<mgrwt>
<rscale>  0 0.51708133E+03</rscale>
<asrwt>0</asrwt>
<pdfrwt beam="1">  1        2 0.79930470E-02 0.51708133E+03</pdfrwt>
<pdfrwt beam="2">  1       -2 0.17066689E+00 0.51708133E+03</pdfrwt>
<totfact> 0.19091676E+02</totfact>
</mgrwt>
</event>
<event>
 4    1  0.5080671E-005  0.8444846E+03  0.7818608E-02  0.9497770E-01
          2   -1    0    0  501    0  0.00000000000E+00  0.00000000000E+00  0.49600217363E+03  0.49600217364E+03  0.25500000000E-02 0.  1.
         -2   -1    0    0    0  501 -0.00000000000E+00 -0.00000000000E+00 -0.35945114830E+03  0.35945114831E+03  0.25500000000E-02 0. -1.
    5000001    1    1    2    0    0  0.24495474553E+03 -0.26488172888E+03 -0.25240370195E+02  0.41279926592E+03  0.19900000000E+03 0.  0.
   -5000001    1    1    2    0    0 -0.24495474553E+03  0.26488172888E+03  0.16179139552E+03  0.44265405603E+03  0.19900000000E+03 0.  0.
<mgrwt>
<rscale>  0 0.84448458E+03</rscale>
<asrwt>0</asrwt>
<pdfrwt beam="1">  1        2 0.70857453E-01 0.84448458E+03</pdfrwt>
<pdfrwt beam="2">  1       -2 0.51350165E-01 0.84448458E+03</pdfrwt>
<totfact> 0.24403952E+02</totfact>
</mgrwt>
</event>
<event>
 4    1  0.5080671E-005  0.6225063E+03  0.7818608E-02  0.9859782E-01
         -2   -1    0    0    0  501 -0.00000000000E+00  0.00000000000E+00  0.54424148245E+03  0.54424148245E+03  0.25500000000E-02 0. -1.
          2   -1    0    0  501    0  0.00000000000E+00 -0.00000000000E+00 -0.17800647574E+03  0.17800647576E+03  0.25500000000E-02 0.  1.
    5000001    1    1    2    0    0 -0.21944199674E+03 -0.95406788616E+02  0.18834019684E+03  0.36377228453E+03  0.19900000000E+03 0.  0.
   -5000001    1    1    2    0    0  0.21944199674E+03  0.95406788616E+02  0.17789480986E+03  0.35847567368E+03  0.19900000000E+03 0.  0.
<mgrwt>
<rscale>  0 0.62250625E+03</rscale>
<asrwt>0</asrwt>
<pdfrwt beam="1">  1        2 0.25429497E-01 0.62250625E+03</pdfrwt>
<pdfrwt beam="2">  1       -2 0.77748782E-01 0.62250625E+03</pdfrwt>
<totfact> 0.31990292E+02</totfact>
</mgrwt>
</event>
<event>
 4    1  0.5080671E-005  0.5825971E+03  0.7818608E-02  0.9942184E-01
          2   -1    0    0  501    0  0.00000000000E+00  0.00000000000E+00  0.43097474903E+03  0.43097474903E+03  0.25500000000E-02 0.  1.
         -2   -1    0    0    0  501 -0.00000000000E+00 -0.00000000000E+00 -0.19689052217E+03  0.19689052219E+03  0.25500000000E-02 0. -1.
    5000001    1    1    2    0    0  0.12197978600E+03  0.15539088184E+03  0.31989413284E+02  0.28222281431E+03  0.19900000000E+03 0.  0.
   -5000001    1    1    2    0    0 -0.12197978600E+03 -0.15539088184E+03  0.20209481357E+03  0.34564245692E+03  0.19900000000E+03 0.  0.
<mgrwt>
<rscale>  0 0.58259709E+03</rscale>
<asrwt>0</asrwt>
<pdfrwt beam="1">  1        2 0.61567821E-01 0.58259709E+03</pdfrwt>
<pdfrwt beam="2">  1       -2 0.28127218E-01 0.58259709E+03</pdfrwt>
<totfact> 0.92113147E+02</totfact>
</mgrwt>
</event>
<event>
 4    1  0.5080671E-005  0.4496102E+03  0.7818608E-02  0.1027838E+00
          2   -1    0    0  501    0  0.00000000000E+00  0.00000000000E+00  0.89569299757E+03  0.89569299757E+03  0.25500000000E-02 0.  1.
         -2   -1    0    0    0  501 -0.00000000000E+00 -0.00000000000E+00 -0.56422602619E+02  0.56422602676E+02  0.25500000000E-02 0. -1.
    5000001    1    1    2    0    0 -0.19432197874E+02  0.10209605663E+03  0.44425050865E+03  0.49775569262E+03  0.19900000000E+03 0.  0.
   -5000001    1    1    2    0    0  0.19432197874E+02 -0.10209605663E+03  0.39501988630E+03  0.45435990763E+03  0.19900000000E+03 0.  0.
<mgrwt>
<rscale>  0 0.44961019E+03</rscale>
<asrwt>0</asrwt>
<pdfrwt beam="1">  1        2 0.12795613E+00 0.44961019E+03</pdfrwt>
<pdfrwt beam="2">  1       -2 0.80603725E-02 0.44961019E+03</pdfrwt>
<totfact> 0.31701553E+03</totfact>
</mgrwt>
</event>
<event>
 4    1  0.5080671E-005  0.6585205E+03  0.7818608E-02  0.9790921E-01
         -2   -1    0    0    0  501 -0.00000000000E+00  0.00000000000E+00  0.10016127341E+03  0.10016127344E+03  0.25500000000E-02 0. -1.
          2   -1    0    0  501    0  0.00000000000E+00 -0.00000000000E+00 -0.10823775094E+04  0.10823775094E+04  0.25500000000E-02 0.  1.
    5000001    1    1    2    0    0 -0.19334213624E+03 -0.82273125136E+02 -0.77311112403E+03  0.82550097448E+03  0.19900000000E+03 0.  0.
   -5000001    1    1    2    0    0  0.19334213624E+03  0.82273125136E+02 -0.20910511200E+03  0.35703780840E+03  0.19900000000E+03 0.  0.
<mgrwt>
<rscale>  0 0.65852049E+03</rscale>
<asrwt>0</asrwt>
<pdfrwt beam="1">  1        2 0.15462535E+00 0.65852049E+03</pdfrwt>
<pdfrwt beam="2">  1       -2 0.14308754E-01 0.65852049E+03</pdfrwt>
<totfact> 0.95496638E+02</totfact>
</mgrwt>
</event>
<event>
 4    1  0.5080671E-005  0.6778692E+03  0.7818608E-02  0.9755846E-01
          2   -1    0    0  501    0  0.00000000000E+00  0.00000000000E+00  0.90311352103E+03  0.90311352103E+03  0.25500000000E-02 0.  1.
         -2   -1    0    0    0  501 -0.00000000000E+00 -0.00000000000E+00 -0.12720068478E+03  0.12720068481E+03  0.25500000000E-02 0. -1.
    5000001    1    1    2    0    0 -0.88802390577E+02  0.18916106679E+03  0.11773391627E+03  0.31165694088E+03  0.19900000000E+03 0.  0.
   -5000001    1    1    2    0    0  0.88802390577E+02 -0.18916106679E+03  0.65817891998E+03  0.71865726495E+03  0.19900000000E+03 0.  0.
<mgrwt>
<rscale>  0 0.67786919E+03</rscale>
<asrwt>0</asrwt>
<pdfrwt beam="1">  1        2 0.12901622E+00 0.67786919E+03</pdfrwt>
<pdfrwt beam="2">  1       -2 0.18171526E-01 0.67786919E+03</pdfrwt>
<totfact> 0.81944225E+02</totfact>
</mgrwt>
</event>
<event>
 4    1  0.5080671E-005  0.5031920E+03  0.7818608E-02  0.1012949E+00
         -2   -1    0    0    0  501 -0.00000000000E+00  0.00000000000E+00  0.26200381907E+03  0.26200381908E+03  0.25500000000E-02 0. -1.
          2   -1    0    0  501    0  0.00000000000E+00 -0.00000000000E+00 -0.24160163434E+03  0.24160163435E+03  0.25500000000E-02 0.  1.
    5000001    1    1    2    0    0  0.93683109193E+02  0.65064448654E+02 -0.93274588833E+02  0.24761069514E+03  0.19900000000E+03 0.  0.
   -5000001    1    1    2    0    0 -0.93683109193E+02 -0.65064448654E+02  0.11367677356E+03  0.25599475829E+03  0.19900000000E+03 0.  0.
<mgrwt>
<rscale>  0 0.50319201E+03</rscale>
<asrwt>0</asrwt>
<pdfrwt beam="1">  1        2 0.34514519E-01 0.50319201E+03</pdfrwt>
<pdfrwt beam="2">  1       -2 0.37429117E-01 0.50319201E+03</pdfrwt>
<totfact> 0.10240068E+03</totfact>
</mgrwt>
</event>
<event>
 4    1  0.5080671E-005  0.5204150E+03  0.7818608E-02  0.1008584E+00
         -2   -1    0    0    0  501 -0.00000000000E+00  0.00000000000E+00  0.30002902472E+03  0.30002902473E+03  0.25500000000E-02 0. -1.
          2   -1    0    0  501    0  0.00000000000E+00 -0.00000000000E+00 -0.22567126778E+03  0.22567126780E+03  0.25500000000E-02 0.  1.
    5000001    1    1    2    0    0  0.11522640539E+03 -0.33418218478E+02  0.15547081560E+03  0.27958196710E+03  0.19900000000E+03 0.  0.
   -5000001    1    1    2    0    0 -0.11522640539E+03  0.33418218478E+02 -0.81113058662E+02  0.24611832543E+03  0.19900000000E+03 0.  0.
<mgrwt>
<rscale>  0 0.52041495E+03</rscale>
<asrwt>0</asrwt>
<pdfrwt beam="1">  1        2 0.32238752E-01 0.52041495E+03</pdfrwt>
<pdfrwt beam="2">  1       -2 0.42861289E-01 0.52041495E+03</pdfrwt>
<totfact> 0.84969924E+02</totfact>
</mgrwt>
</event>
<event>
 4    1  0.5080671E-005  0.6281987E+03  0.7818608E-02  0.9848570E-01
          2   -1    0    0  501    0  0.00000000000E+00  0.00000000000E+00  0.13735049889E+03  0.13735049891E+03  0.25500000000E-02 0. -1.
         -2   -1    0    0    0  501 -0.00000000000E+00 -0.00000000000E+00 -0.71829657786E+03  0.71829657786E+03  0.25500000000E-02 0.  1.
    5000001    1    1    2    0    0 -0.23996004811E+03 -0.71307285234E+01 -0.34190285691E+03  0.46274208318E+03  0.19900000000E+03 0.  0.
   -5000001    1    1    2    0    0  0.23996004811E+03  0.71307285234E+01 -0.23904322205E+03  0.39290499359E+03  0.19900000000E+03 0.  0.
<mgrwt>
<rscale>  0 0.62819867E+03</rscale>
<asrwt>0</asrwt>
<pdfrwt beam="1">  1        2 0.19621500E-01 0.62819867E+03</pdfrwt>
<pdfrwt beam="2">  1       -2 0.10261379E+00 0.62819867E+03</pdfrwt>
<totfact> 0.22833536E+02</totfact>
</mgrwt>
</event>
<event>
 4    1  0.5080671E-005  0.6330130E+03  0.7818608E-02  0.9839187E-01
         -2   -1    0    0    0  501 -0.00000000000E+00  0.00000000000E+00  0.42592957262E+02  0.42592957338E+02  0.25500000000E-02 0. -1.
          2   -1    0    0  501    0  0.00000000000E+00 -0.00000000000E+00 -0.23519464045E+04  0.23519464045E+04  0.25500000000E-02 0.  1.
    5000001    1    1    2    0    0 -0.20168210656E+02 -0.24444793944E+03 -0.10777273436E+04  0.11230577807E+04  0.19900000000E+03 0.  0.
   -5000001    1    1    2    0    0  0.20168210656E+02  0.24444793944E+03 -0.12316261036E+04  0.12714815811E+04  0.19900000000E+03 0.  0.
<mgrwt>
<rscale>  0 0.63301296E+03</rscale>
<asrwt>0</asrwt>
<pdfrwt beam="1">  1        2 0.33599226E+00 0.63301296E+03</pdfrwt>
<pdfrwt beam="2">  1       -2 0.60847097E-02 0.63301296E+03</pdfrwt>
<totfact> 0.83018313E+02</totfact>
</mgrwt>
</event>
<event>
 4    1  0.5080671E-005  0.6213181E+03  0.7818608E-02  0.9862139E-01
          2   -1    0    0  501    0  0.00000000000E+00  0.00000000000E+00  0.27582998681E+04  0.27582998681E+04  0.25500000000E-02 0.  1.
         -2   -1    0    0    0  501 -0.00000000000E+00 -0.00000000000E+00 -0.34988601111E+02  0.34988601204E+02  0.25500000000E-02 0. -1.
    5000001    1    1    2    0    0  0.18840071726E+03  0.14262395702E+03  0.12144839313E+04  0.12531594642E+04  0.19900000000E+03 0.  0.
   -5000001    1    1    2    0    0 -0.18840071726E+03 -0.14262395702E+03  0.15088273358E+04  0.15401290052E+04  0.19900000000E+03 0.  0.
<mgrwt>
<rscale>  0 0.62131813E+03</rscale>
<asrwt>0</asrwt>
<pdfrwt beam="1">  1        2 0.39404289E+00 0.62131813E+03</pdfrwt>
<pdfrwt beam="2">  1       -2 0.49983709E-02 0.62131813E+03</pdfrwt>
<totfact> 0.69631018E+02</totfact>
</mgrwt>
</event>
<event>
 4    1  0.5080671E-005  0.9968047E+03  0.7818608E-02  0.9312056E-01
          2   -1    0    0  501    0  0.00000000000E+00  0.00000000000E+00  0.24888632307E+03  0.24888632309E+03  0.25500000000E-02 0.  1.
         -2   -1    0    0    0  501 -0.00000000000E+00 -0.00000000000E+00 -0.99806562647E+03  0.99806562647E+03  0.25500000000E-02 0. -1.
    5000001    1    1    2    0    0 -0.28662751579E+03  0.35273754308E+02 -0.81758166366E+03  0.88962933141E+03  0.19900000000E+03 0.  0.
   -5000001    1    1    2    0    0  0.28662751579E+03 -0.35273754308E+02  0.68402360264E+02  0.35732261815E+03  0.19900000000E+03 0.  0.
<mgrwt>
<rscale>  0 0.99680466E+03</rscale>
<asrwt>0</asrwt>
<pdfrwt beam="1">  1        2 0.35555190E-01 0.99680466E+03</pdfrwt>
<pdfrwt beam="2">  1       -2 0.14258080E+00 0.99680466E+03</pdfrwt>
<totfact> 0.50246045E+01</totfact>
</mgrwt>
</event>
<event>
 4    1  0.5080671E-005  0.6518721E+03  0.7818608E-02  0.9803273E-01
          2   -1    0    0  501    0  0.00000000000E+00  0.00000000000E+00  0.29316445959E+04  0.29316445959E+04  0.25500000000E-02 0.  1.
         -2   -1    0    0    0  501 -0.00000000000E+00 -0.00000000000E+00 -0.36237108179E+02  0.36237108269E+02  0.25500000000E-02 0. -1.
    5000001    1    1    2    0    0 -0.14829558471E+03 -0.15227935448E+03  0.21145497459E+04  0.21345028017E+04  0.19900000000E+03 0.  0.
   -5000001    1    1    2    0    0  0.14829558471E+03  0.15227935448E+03  0.78085774174E+03  0.83337890246E+03  0.19900000000E+03 0.  0.
<mgrwt>
<rscale>  0 0.65187214E+03</rscale>
<asrwt>0</asrwt>
<pdfrwt beam="1">  1        2 0.41880638E+00 0.65187214E+03</pdfrwt>
<pdfrwt beam="2">  1       -2 0.51767297E-02 0.65187214E+03</pdfrwt>
<totfact> 0.53144950E+02</totfact>
</mgrwt>
</event>
<event>
 4    1  0.5080671E-005  0.5921403E+03  0.7818608E-02  0.9921848E-01
         -2   -1    0    0    0  501 -0.00000000000E+00  0.00000000000E+00  0.62360856356E+02  0.62360856409E+02  0.25500000000E-02 0. -1.
          2   -1    0    0  501    0  0.00000000000E+00 -0.00000000000E+00 -0.14056498998E+04  0.14056498998E+04  0.25500000000E-02 0.  1.
    5000001    1    1    2    0    0  0.14840291110E+03 -0.11979949796E+03 -0.40369799814E+03  0.48882350336E+03  0.19900000000E+03 0.  0.
   -5000001    1    1    2    0    0 -0.14840291110E+03  0.11979949796E+03 -0.93959104532E+03  0.97918725287E+03  0.19900000000E+03 0.  0.
<mgrwt>
<rscale>  0 0.59214029E+03</rscale>
<asrwt>0</asrwt>
<pdfrwt beam="1">  1        2 0.20080711E+00 0.59214029E+03</pdfrwt>
<pdfrwt beam="2">  1       -2 0.89086947E-02 0.59214029E+03</pdfrwt>
<totfact> 0.13767175E+03</totfact>
</mgrwt>
</event>
<event>
 4    1  0.5080671E-005  0.8662994E+03  0.7818608E-02  0.9468718E-01
         -2   -1    0    0    0  501 -0.00000000000E+00  0.00000000000E+00  0.93385115812E+02  0.93385115847E+02  0.25500000000E-02 0. -1.
          2   -1    0    0  501    0  0.00000000000E+00 -0.00000000000E+00 -0.20090853518E+04  0.20090853518E+04  0.25500000000E-02 0.  1.
    5000001    1    1    2    0    0 -0.18587823310E+03 -0.16249853674E+03 -0.16739509023E+04  0.17037221356E+04  0.19900000000E+03 0.  0.
   -5000001    1    1    2    0    0  0.18587823310E+03  0.16249853674E+03 -0.24174933369E+03  0.39874833206E+03  0.19900000000E+03 0.  0.
<mgrwt>
<rscale>  0 0.86629941E+03</rscale>
<asrwt>0</asrwt>
<pdfrwt beam="1">  1        2 0.28701217E+00 0.86629941E+03</pdfrwt>
<pdfrwt beam="2">  1       -2 0.13340732E-01 0.86629941E+03</pdfrwt>
<totfact> 0.34276294E+02</totfact>
</mgrwt>
</event>
<event>
 4    1  0.5080671E-005  0.7760971E+03  0.7818608E-02  0.9595275E-01
          2   -1    0    0  501    0  0.00000000000E+00  0.00000000000E+00  0.15443619497E+04  0.15443619497E+04  0.25500000000E-02 0. -1.
         -2   -1    0    0    0  501 -0.00000000000E+00 -0.00000000000E+00 -0.97504141221E+02  0.97504141255E+02  0.25500000000E-02 0.  1.
    5000001    1    1    2    0    0 -0.19629025124E+03  0.11295444370E+03  0.12402975049E+04  0.12764119515E+04  0.19900000000E+03 0.  0.
   -5000001    1    1    2    0    0  0.19629025124E+03 -0.11295444370E+03  0.20656030357E+03  0.36545413953E+03  0.19900000000E+03 0.  0.
<mgrwt>
<rscale>  0 0.77609712E+03</rscale>
<asrwt>0</asrwt>
<pdfrwt beam="1">  1        2 0.22062311E+00 0.77609712E+03</pdfrwt>
<pdfrwt beam="2">  1       -2 0.13929165E-01 0.77609712E+03</pdfrwt>
<totfact> 0.55467055E+02</totfact>
</mgrwt>
</event>
<event>
 4    1  0.5080671E-005  0.7440368E+03  0.7818608E-02  0.9644752E-01
          2   -1    0    0  501    0  0.00000000000E+00  0.00000000000E+00  0.40531877547E+03  0.40531877548E+03  0.25500000000E-02 0.  1.
         -2   -1    0    0    0  501 -0.00000000000E+00 -0.00000000000E+00 -0.34145394119E+03  0.34145394120E+03  0.25500000000E-02 0. -1.
    5000001    1    1    2    0    0 -0.29095542215E+03  0.88539860406E+02 -0.47746706485E+02  0.36657211096E+03  0.19900000000E+03 0.  0.
   -5000001    1    1    2    0    0  0.29095542215E+03 -0.88539860406E+02  0.11161154076E+03  0.38020060572E+03  0.19900000000E+03 0.  0.
<mgrwt>
<rscale>  0 0.74403681E+03</rscale>
<asrwt>0</asrwt>
<pdfrwt beam="1">  1        2 0.57902682E-01 0.74403681E+03</pdfrwt>
<pdfrwt beam="2">  1       -2 0.48779134E-01 0.74403681E+03</pdfrwt>
<totfact> 0.34161803E+02</totfact>
</mgrwt>
</event>
<event>
 4    1  0.5080671E-005  0.9041595E+03  0.7818608E-02  0.9420397E-01
         -2   -1    0    0    0  501 -0.00000000000E+00  0.00000000000E+00  0.10517684288E+03  0.10517684291E+03  0.25500000000E-02 0. -1.
          2   -1    0    0  501    0  0.00000000000E+00 -0.00000000000E+00 -0.19431665033E+04  0.19431665033E+04  0.25500000000E-02 0.  1.
    5000001    1    1    2    0    0 -0.94013161189E+02 -0.31231892646E+03 -0.37155037881E+03  0.53294677999E+03  0.19900000000E+03 0.  0.
   -5000001    1    1    2    0    0  0.94013161189E+02  0.31231892646E+03 -0.14664392816E+04  0.15153965663E+04  0.19900000000E+03 0.  0.
<mgrwt>
<rscale>  0 0.90415954E+03</rscale>
<asrwt>0</asrwt>
<pdfrwt beam="1">  1        2 0.27759519E+00 0.90415954E+03</pdfrwt>
<pdfrwt beam="2">  1       -2 0.15025264E-01 0.90415954E+03</pdfrwt>
<totfact> 0.30228861E+02</totfact>
</mgrwt>
</event>
<event>
 4    1  0.5080671E-005  0.5683559E+03  0.7818608E-02  0.9973323E-01
         -2   -1    0    0    0  501 -0.00000000000E+00  0.00000000000E+00  0.51787478990E+02  0.51787479053E+02  0.25500000000E-02 0. -1.
          2   -1    0    0  501    0  0.00000000000E+00 -0.00000000000E+00 -0.15593946738E+04  0.15593946738E+04  0.25500000000E-02 0.  1.
    5000001    1    1    2    0    0 -0.14843375973E+03 -0.13820221401E+03 -0.76760012696E+03  0.81850069511E+03  0.19900000000E+03 0.  0.
   -5000001    1    1    2    0    0  0.14843375973E+03  0.13820221401E+03 -0.74000706782E+03  0.79268145771E+03  0.19900000000E+03 0.  0.
<mgrwt>
<rscale>  0 0.56835594E+03</rscale>
<asrwt>0</asrwt>
<pdfrwt beam="1">  1        2 0.22277064E+00 0.56835594E+03</pdfrwt>
<pdfrwt beam="2">  1       -2 0.73982123E-02 0.56835594E+03</pdfrwt>
<totfact> 0.15399951E+03</totfact>
</mgrwt>
</event>
<event>
 4    1  0.5080671E-005  0.4909189E+03  0.7818608E-02  0.1016177E+00
          2   -1    0    0  501    0  0.00000000000E+00  0.00000000000E+00  0.22642986255E+04  0.22642986255E+04  0.25500000000E-02 0.  1.
         -2   -1    0    0    0  501 -0.00000000000E+00 -0.00000000000E+00 -0.26608834440E+02  0.26608834562E+02  0.25500000000E-02 0. -1.
    5000001    1    1    2    0    0  0.13764668164E+03  0.20057949603E+02  0.12871274540E+04  0.13098270929E+04  0.19900000000E+03 0.  0.
   -5000001    1    1    2    0    0 -0.13764668164E+03 -0.20057949603E+02  0.95056233707E+03  0.98108036723E+03  0.19900000000E+03 0.  0.
<mgrwt>
<rscale>  0 0.49091892E+03</rscale>
<asrwt>0</asrwt>
<pdfrwt beam="1">  1        2 0.32347116E+00 0.49091892E+03</pdfrwt>
<pdfrwt beam="2">  1       -2 0.38012629E-02 0.49091892E+03</pdfrwt>
<totfact> 0.19198266E+03</totfact>
</mgrwt>
</event>
<event>
 4    1  0.5080671E-005  0.7665969E+03  0.7818608E-02  0.9609666E-01
          2   -1    0    0  501    0  0.00000000000E+00  0.00000000000E+00  0.27309297542E+04  0.27309297542E+04  0.25500000000E-02 0.  1.
         -2   -1    0    0    0  501 -0.00000000000E+00 -0.00000000000E+00 -0.53797690297E+02  0.53797690358E+02  0.25500000000E-02 0. -1.
    5000001    1    1    2    0    0 -0.79982075550E+01 -0.17823760035E+03  0.23365954877E+04  0.23518316451E+04  0.19900000000E+03 0.  0.
   -5000001    1    1    2    0    0  0.79982075550E+01  0.17823760035E+03  0.34053657619E+03  0.43289579950E+03  0.19900000000E+03 0.  0.
<mgrwt>
<rscale>  0 0.76659693E+03</rscale>
<asrwt>0</asrwt>
<pdfrwt beam="1">  1        2 0.39013292E+00 0.76659693E+03</pdfrwt>
<pdfrwt beam="2">  1       -2 0.76853824E-02 0.76659693E+03</pdfrwt>
<totfact> 0.36120447E+02</totfact>
</mgrwt>
</event>
<event>
 4    1  0.5080671E-005  0.5200725E+03  0.7818608E-02  0.1008669E+00
         -2   -1    0    0    0  501 -0.00000000000E+00  0.00000000000E+00  0.11369188670E+03  0.11369188673E+03  0.25500000000E-02 0. -1.
          2   -1    0    0  501    0  0.00000000000E+00 -0.00000000000E+00 -0.59475531970E+03  0.59475531970E+03  0.25500000000E-02 0.  1.
    5000001    1    1    2    0    0  0.80826563844E+02  0.99154626993E+02 -0.93480811825E+02  0.25437027275E+03  0.19900000000E+03 0.  0.
   -5000001    1    1    2    0    0 -0.80826563844E+02 -0.99154626993E+02 -0.38758262117E+03  0.45407693369E+03  0.19900000000E+03 0.  0.
<mgrwt>
<rscale>  0 0.52007251E+03</rscale>
<asrwt>0</asrwt>
<pdfrwt beam="1">  1        2 0.84965044E-01 0.52007251E+03</pdfrwt>
<pdfrwt beam="2">  1       -2 0.16241698E-01 0.52007251E+03</pdfrwt>
<totfact> 0.16741869E+03</totfact>
</mgrwt>
</event>
<event>
 4    1  0.5080671E-005  0.8588589E+03  0.7818608E-02  0.9478523E-01
         -2   -1    0    0    0  501 -0.00000000000E+00  0.00000000000E+00  0.53837121458E+03  0.53837121458E+03  0.25500000000E-02 0. -1.
          2   -1    0    0  501    0  0.00000000000E+00 -0.00000000000E+00 -0.34253252623E+03  0.34253252624E+03  0.25500000000E-02 0.  1.
    5000001    1    1    2    0    0  0.35370982441E+03 -0.13788799119E+03  0.71076735852E+02  0.43448433848E+03  0.19900000000E+03 0.  0.
   -5000001    1    1    2    0    0 -0.35370982441E+03  0.13788799119E+03  0.12476195249E+03  0.44641940235E+03  0.19900000000E+03 0.  0.
<mgrwt>
<rscale>  0 0.85885890E+03</rscale>
<asrwt>0</asrwt>
<pdfrwt beam="1">  1        2 0.48933219E-01 0.85885890E+03</pdfrwt>
<pdfrwt beam="2">  1       -2 0.76910173E-01 0.85885890E+03</pdfrwt>
<totfact> 0.15617582E+02</totfact>
</mgrwt>
</event>
<event>
 4    1  0.5080671E-005  0.7083049E+03  0.7818608E-02  0.9703134E-01
         -2   -1    0    0    0  501 -0.00000000000E+00  0.00000000000E+00  0.69521088750E+03  0.69521088750E+03  0.25500000000E-02 0. -1.
          2   -1    0    0  501    0  0.00000000000E+00 -0.00000000000E+00 -0.18041138715E+03  0.18041138717E+03  0.25500000000E-02 0.  1.
    5000001    1    1    2    0    0  0.18646100797E+03  0.20386767111E+03  0.13695067921E+03  0.36699621708E+03  0.19900000000E+03 0.  0.
   -5000001    1    1    2    0    0 -0.18646100797E+03 -0.20386767111E+03  0.37784882114E+03  0.50862605759E+03  0.19900000000E+03 0.  0.
<mgrwt>
<rscale>  0 0.70830491E+03</rscale>
<asrwt>0</asrwt>
<pdfrwt beam="1">  1        2 0.25773055E-01 0.70830491E+03</pdfrwt>
<pdfrwt beam="2">  1       -2 0.99315843E-01 0.70830491E+03</pdfrwt>
<totfact> 0.17941088E+02</totfact>
</mgrwt>
</event>
<event>
 4    1  0.5080671E-005  0.4737373E+03  0.7818608E-02  0.1020871E+00
         -2   -1    0    0    0  501 -0.00000000000E+00  0.00000000000E+00  0.37450520173E+02  0.37450520260E+02  0.25500000000E-02 0. -1.
          2   -1    0    0  501    0  0.00000000000E+00 -0.00000000000E+00 -0.14981570171E+04  0.14981570171E+04  0.25500000000E-02 0.  1.
    5000001    1    1    2    0    0  0.11791268228E+03 -0.31259145059E+02 -0.59967618242E+03  0.64350062824E+03  0.19900000000E+03 0.  0.
   -5000001    1    1    2    0    0 -0.11791268228E+03  0.31259145059E+02 -0.86103031456E+03  0.89210690916E+03  0.19900000000E+03 0.  0.
<mgrwt>
<rscale>  0 0.47373731E+03</rscale>
<asrwt>0</asrwt>
<pdfrwt beam="1">  1        2 0.21402239E+00 0.47373731E+03</pdfrwt>
<pdfrwt beam="2">  1       -2 0.53500753E-02 0.47373731E+03</pdfrwt>
<totfact> 0.27573801E+03</totfact>
</mgrwt>
</event>
<event>
 4    1  0.5080671E-005  0.9282437E+03  0.7818608E-02  0.9390948E-01
          2   -1    0    0  501    0  0.00000000000E+00  0.00000000000E+00  0.96318333147E+03  0.96318333147E+03  0.25500000000E-02 0.  1.
         -2   -1    0    0    0  501 -0.00000000000E+00 -0.00000000000E+00 -0.22364287903E+03  0.22364287905E+03  0.25500000000E-02 0. -1.
    5000001    1    1    2    0    0 -0.28598283094E+03 -0.24042659013E+03  0.61309210681E+03  0.74503292294E+03  0.19900000000E+03 0.  0.
   -5000001    1    1    2    0    0  0.28598283094E+03  0.24042659013E+03  0.12644834562E+03  0.44179328757E+03  0.19900000000E+03 0.  0.
<mgrwt>
<rscale>  0 0.92824370E+03</rscale>
<asrwt>0</asrwt>
<pdfrwt beam="1">  1        2 0.13759762E+00 0.92824370E+03</pdfrwt>
<pdfrwt beam="2">  1       -2 0.31948983E-01 0.92824370E+03</pdfrwt>
<totfact> 0.26949570E+02</totfact>
</mgrwt>
</event>
<event>
 4    1  0.5080671E-005  0.5494850E+03  0.7818608E-02  0.1001613E+00
         -2   -1    0    0    0  501 -0.00000000000E+00  0.00000000000E+00  0.24556944267E+03  0.24556944269E+03  0.25500000000E-02 0. -1.
          2   -1    0    0  501    0  0.00000000000E+00 -0.00000000000E+00 -0.30738124454E+03  0.30738124455E+03  0.25500000000E-02 0.  1.
    5000001    1    1    2    0    0  0.88740732057E+02  0.11097868679E+03 -0.15696070295E+03  0.29056642738E+03  0.19900000000E+03 0.  0.
   -5000001    1    1    2    0    0 -0.88740732057E+02 -0.11097868679E+03  0.95148901084E+02  0.26238425986E+03  0.19900000000E+03 0.  0.
<mgrwt>
<rscale>  0 0.54948500E+03</rscale>
<asrwt>0</asrwt>
<pdfrwt beam="1">  1        2 0.43911606E-01 0.54948500E+03</pdfrwt>
<pdfrwt beam="2">  1       -2 0.35081349E-01 0.54948500E+03</pdfrwt>
<totfact> 0.88792038E+02</totfact>
</mgrwt>
</event>
<event>
 4    1  0.5080671E-005  0.8055879E+03  0.7818608E-02  0.9551964E-01
         -2   -1    0    0    0  501 -0.00000000000E+00  0.00000000000E+00  0.95152350576E+02  0.95152350611E+02  0.25500000000E-02 0. -1.
          2   -1    0    0  501    0  0.00000000000E+00 -0.00000000000E+00 -0.17050864082E+04  0.17050864082E+04  0.25500000000E-02 0.  1.
    5000001    1    1    2    0    0 -0.32495302780E+03  0.30050723469E+02 -0.10889085883E+04  0.11540452461E+04  0.19900000000E+03 0.  0.
   -5000001    1    1    2    0    0  0.32495302780E+03 -0.30050723469E+02 -0.52102546932E+03  0.64619351276E+03  0.19900000000E+03 0.  0.
<mgrwt>
<rscale>  0 0.80558793E+03</rscale>
<asrwt>0</asrwt>
<pdfrwt beam="1">  1        2 0.24358375E+00 0.80558793E+03</pdfrwt>
<pdfrwt beam="2">  1       -2 0.13593194E-01 0.80558793E+03</pdfrwt>
<totfact> 0.47638345E+02</totfact>
</mgrwt>
</event>
<event>
 4    1  0.5080671E-005  0.6727610E+03  0.7818608E-02  0.9764983E-01
         -2   -1    0    0    0  501 -0.00000000000E+00  0.00000000000E+00  0.72781513361E+03  0.72781513361E+03  0.25500000000E-02 0. -1.
          2   -1    0    0  501    0  0.00000000000E+00 -0.00000000000E+00 -0.15546781940E+03  0.15546781942E+03  0.25500000000E-02 0.  1.
    5000001    1    1    2    0    0 -0.70399658291E+02  0.24604805823E+03  0.16833879534E+03  0.36528715945E+03  0.19900000000E+03 0.  0.
   -5000001    1    1    2    0    0  0.70399658291E+02 -0.24604805823E+03  0.40400851887E+03  0.51799579358E+03  0.19900000000E+03 0.  0.
<mgrwt>
<rscale>  0 0.67276097E+03</rscale>
<asrwt>0</asrwt>
<pdfrwt beam="1">  1        2 0.22209688E-01 0.67276097E+03</pdfrwt>
<pdfrwt beam="2">  1       -2 0.10397359E+00 0.67276097E+03</pdfrwt>
<totfact> 0.19121357E+02</totfact>
</mgrwt>
</event>
<event>
 4    1  0.5080671E-005  0.7272352E+03  0.7818608E-02  0.9671758E-01
         -2   -1    0    0    0  501 -0.00000000000E+00  0.00000000000E+00  0.11409757018E+04  0.11409757018E+04  0.25500000000E-02 0. -1.
          2   -1    0    0  501    0  0.00000000000E+00 -0.00000000000E+00 -0.11588129451E+03  0.11588129454E+03  0.25500000000E-02 0.  1.
    5000001    1    1    2    0    0 -0.85837458144E+02 -0.29155275481E+03  0.48545894187E+03  0.60633527219E+03  0.19900000000E+03 0.  0.
   -5000001    1    1    2    0    0  0.85837458144E+02  0.29155275481E+03  0.53963546539E+03  0.65052172413E+03  0.19900000000E+03 0.  0.
<mgrwt>
<rscale>  0 0.72723515E+03</rscale>
<asrwt>0</asrwt>
<pdfrwt beam="1">  1        2 0.16554471E-01 0.72723515E+03</pdfrwt>
<pdfrwt beam="2">  1       -2 0.16299653E+00 0.72723515E+03</pdfrwt>
<totfact> 0.86360683E+01</totfact>
</mgrwt>
</event>
<event>
 4    1  0.5080671E-005  0.9152714E+03  0.7818608E-02  0.9406690E-01
         -2   -1    0    0    0  501 -0.00000000000E+00  0.00000000000E+00  0.15604212575E+03  0.15604212577E+03  0.25500000000E-02 0. -1.
          2   -1    0    0  501    0  0.00000000000E+00 -0.00000000000E+00 -0.13421404709E+04  0.13421404709E+04  0.25500000000E-02 0.  1.
    5000001    1    1    2    0    0  0.13016410126E+03  0.34165869005E+03 -0.28180185519E+03  0.50267945982E+03  0.19900000000E+03 0.  0.
   -5000001    1    1    2    0    0 -0.13016410126E+03 -0.34165869005E+03 -0.90429649000E+03  0.99550313690E+03  0.19900000000E+03 0.  0.
<mgrwt>
<rscale>  0 0.91527144E+03</rscale>
<asrwt>0</asrwt>
<pdfrwt beam="1">  1        2 0.19173435E+00 0.91527144E+03</pdfrwt>
<pdfrwt beam="2">  1       -2 0.22291733E-01 0.91527144E+03</pdfrwt>
<totfact> 0.31346767E+02</totfact>
</mgrwt>
</event>
<event>
 4    1  0.5080671E-005  0.6061544E+03  0.7818608E-02  0.9892719E-01
          2   -1    0    0  501    0  0.00000000000E+00  0.00000000000E+00  0.12743756810E+04  0.12743756810E+04  0.25500000000E-02 0.  1.
         -2   -1    0    0    0  501 -0.00000000000E+00 -0.00000000000E+00 -0.72079042359E+02  0.72079042404E+02  0.25500000000E-02 0. -1.
    5000001    1    1    2    0    0  0.80024241752E+01 -0.22089475217E+03  0.47169647561E+03  0.55763527097E+03  0.19900000000E+03 0.  0.
   -5000001    1    1    2    0    0 -0.80024241752E+01  0.22089475217E+03  0.73060016307E+03  0.78881945248E+03  0.19900000000E+03 0.  0.
<mgrwt>
<rscale>  0 0.60615437E+03</rscale>
<asrwt>0</asrwt>
<pdfrwt beam="1">  1        2 0.18205367E+00 0.60615437E+03</pdfrwt>
<pdfrwt beam="2">  1       -2 0.10297006E-01 0.60615437E+03</pdfrwt>
<totfact> 0.12815964E+03</totfact>
</mgrwt>
</event>
<event>
 4    1  0.5080671E-005  0.5237942E+03  0.7818608E-02  0.1007748E+00
         -2   -1    0    0    0  501 -0.00000000000E+00  0.00000000000E+00  0.35565107322E+02  0.35565107414E+02  0.25500000000E-02 0. -1.
          2   -1    0    0  501    0  0.00000000000E+00 -0.00000000000E+00 -0.19285780049E+04  0.19285780049E+04  0.25500000000E-02 0.  1.
    5000001    1    1    2    0    0  0.38427947900E+02  0.13518071101E+03 -0.13069310444E+04  0.13294436004E+04  0.19900000000E+03 0.  0.
   -5000001    1    1    2    0    0 -0.38427947900E+02 -0.13518071101E+03 -0.58608185315E+03  0.63469951189E+03  0.19900000000E+03 0.  0.
<mgrwt>
<rscale>  0 0.52379417E+03</rscale>
<asrwt>0</asrwt>
<pdfrwt beam="1">  1        2 0.27551108E+00 0.52379417E+03</pdfrwt>
<pdfrwt beam="2">  1       -2 0.50807308E-02 0.52379417E+03</pdfrwt>
<totfact> 0.18065228E+03</totfact>
</mgrwt>
</event>
<event>
 4    1  0.5080671E-005  0.8047356E+03  0.7818608E-02  0.9553188E-01
          2   -1    0    0  501    0  0.00000000000E+00  0.00000000000E+00  0.51572578897E+03  0.51572578898E+03  0.25500000000E-02 0.  1.
         -2   -1    0    0    0  501 -0.00000000000E+00 -0.00000000000E+00 -0.31392620804E+03  0.31392620805E+03  0.25500000000E-02 0. -1.
    5000001    1    1    2    0    0 -0.52594116487E+02  0.34523865806E+03  0.11999262152E+03  0.41947002434E+03  0.19900000000E+03 0.  0.
   -5000001    1    1    2    0    0  0.52594116487E+02 -0.34523865806E+03  0.81806959417E+02  0.41018197268E+03  0.19900000000E+03 0.  0.
<mgrwt>
<rscale>  0 0.80473559E+03</rscale>
<asrwt>0</asrwt>
<pdfrwt beam="1">  1        2 0.73675113E-01 0.80473559E+03</pdfrwt>
<pdfrwt beam="2">  1       -2 0.44846601E-01 0.80473559E+03</pdfrwt>
<totfact> 0.30716995E+02</totfact>
</mgrwt>
</event>
<event>
 4    1  0.5080671E-005  0.9648745E+03  0.7818608E-02  0.9347932E-01
          2   -1    0    0  501    0  0.00000000000E+00  0.00000000000E+00  0.10933542372E+04  0.10933542372E+04  0.25500000000E-02 0.  1.
         -2   -1    0    0    0  501 -0.00000000000E+00 -0.00000000000E+00 -0.21287308033E+03  0.21287308035E+03  0.25500000000E-02 0. -1.
    5000001    1    1    2    0    0 -0.10742576673E+03 -0.42266668348E+03  0.51386009708E+03  0.70273794550E+03  0.19900000000E+03 0.  0.
   -5000001    1    1    2    0    0  0.10742576673E+03  0.42266668348E+03  0.36662105976E+03  0.60348937202E+03  0.19900000000E+03 0.  0.
<mgrwt>
<rscale>  0 0.96487447E+03</rscale>
<asrwt>0</asrwt>
<pdfrwt beam="1">  1        2 0.15619347E+00 0.96487447E+03</pdfrwt>
<pdfrwt beam="2">  1       -2 0.30410439E-01 0.96487447E+03</pdfrwt>
<totfact> 0.24575628E+02</totfact>
</mgrwt>
</event>
<event>
 4    1  0.5080671E-005  0.1274394E+04  0.7818608E-02  0.9050121E-01
         -2   -1    0    0    0  501 -0.00000000000E+00  0.00000000000E+00  0.30515040891E+03  0.30515040892E+03  0.25500000000E-02 0. -1.
          2   -1    0    0  501    0  0.00000000000E+00 -0.00000000000E+00 -0.13305574677E+04  0.13305574677E+04  0.25500000000E-02 0.  1.
    5000001    1    1    2    0    0  0.21446539874E+03 -0.49960518955E+03 -0.85426983018E+03  0.10319780499E+04  0.19900000000E+03 0.  0.
   -5000001    1    1    2    0    0 -0.21446539874E+03  0.49960518955E+03 -0.17113722861E+03  0.60372982674E+03  0.19900000000E+03 0.  0.
<mgrwt>
<rscale>  0 0.12743942E+04</rscale>
<asrwt>0</asrwt>
<pdfrwt beam="1">  1        2 0.19007964E+00 0.12743942E+04</pdfrwt>
<pdfrwt beam="2">  1       -2 0.43592916E-01 0.12743942E+04</pdfrwt>
<totfact> 0.88460195E+01</totfact>
</mgrwt>
</event>
<event>
 4    1  0.5080671E-005  0.9290602E+03  0.7818608E-02  0.9389966E-01
         -2   -1    0    0    0  501 -0.00000000000E+00  0.00000000000E+00  0.30782649031E+03  0.30782649032E+03  0.25500000000E-02 0. -1.
          2   -1    0    0  501    0  0.00000000000E+00 -0.00000000000E+00 -0.70100604222E+03  0.70100604223E+03  0.25500000000E-02 0.  1.
    5000001    1    1    2    0    0 -0.79340108198E+02  0.35177660213E+03  0.36670267080E+02  0.41350615360E+03  0.19900000000E+03 0.  0.
   -5000001    1    1    2    0    0  0.79340108198E+02 -0.35177660213E+03 -0.42984981900E+03  0.59532637895E+03  0.19900000000E+03 0.  0.
<mgrwt>
<rscale>  0 0.92906023E+03</rscale>
<asrwt>0</asrwt>
<pdfrwt beam="1">  1        2 0.10014372E+00 0.92906023E+03</pdfrwt>
<pdfrwt beam="2">  1       -2 0.43975213E-01 0.92906023E+03</pdfrwt>
<totfact> 0.22048882E+02</totfact>
</mgrwt>
</event>
<event>
 4    1  0.5080671E-005  0.8380157E+03  0.7818608E-02  0.9506565E-01
         -2   -1    0    0    0  501 -0.00000000000E+00  0.00000000000E+00  0.13917729437E+03  0.13917729439E+03  0.25500000000E-02 0. -1.
          2   -1    0    0  501    0  0.00000000000E+00 -0.00000000000E+00 -0.12614670199E+04  0.12614670199E+04  0.25500000000E-02 0.  1.
    5000001    1    1    2    0    0 -0.35808507210E+03 -0.69761389667E+01 -0.70774118112E+03  0.81778491355E+03  0.19900000000E+03 0.  0.
   -5000001    1    1    2    0    0  0.35808507210E+03  0.69761389667E+01 -0.41454854443E+03  0.58285940077E+03  0.19900000000E+03 0.  0.
<mgrwt>
<rscale>  0 0.83801567E+03</rscale>
<asrwt>0</asrwt>
<pdfrwt beam="1">  1        2 0.18020957E+00 0.83801567E+03</pdfrwt>
<pdfrwt beam="2">  1       -2 0.19882471E-01 0.83801567E+03</pdfrwt>
<totfact> 0.42652954E+02</totfact>
</mgrwt>
</event>
<event>
 4    1  0.5080671E-005  0.5258208E+03  0.7818608E-02  0.1007251E+00
          2   -1    0    0  501    0  0.00000000000E+00  0.00000000000E+00  0.36750902784E+03  0.36750902785E+03  0.25500000000E-02 0.  1.
         -2   -1    0    0    0  501 -0.00000000000E+00 -0.00000000000E+00 -0.18808214779E+03  0.18808214780E+03  0.25500000000E-02 0. -1.
    5000001    1    1    2    0    0 -0.11158769699E+03 -0.28327527450E+02  0.22447507420E+03  0.32131654466E+03  0.19900000000E+03 0.  0.
   -5000001    1    1    2    0    0  0.11158769699E+03  0.28327527450E+02 -0.45048194150E+02  0.23427463099E+03  0.19900000000E+03 0.  0.
<mgrwt>
<rscale>  0 0.52582083E+03</rscale>
<asrwt>0</asrwt>
<pdfrwt beam="1">  1        2 0.52501290E-01 0.52582083E+03</pdfrwt>
<pdfrwt beam="2">  1       -2 0.26868878E-01 0.52582083E+03</pdfrwt>
<totfact> 0.11948835E+03</totfact>
</mgrwt>
</event>
<event>
 4    1  0.5080671E-005  0.8571271E+03  0.7818608E-02  0.9480821E-01
         -2   -1    0    0    0  501 -0.00000000000E+00  0.00000000000E+00  0.24704092212E+03  0.24704092214E+03  0.25500000000E-02 0. -1.
          2   -1    0    0  501    0  0.00000000000E+00 -0.00000000000E+00 -0.74346680973E+03  0.74346680973E+03  0.25500000000E-02 0.  1.
    5000001    1    1    2    0    0  0.27468996811E+03  0.92741845600E+02  0.34877232484E+02  0.35337381037E+03  0.19900000000E+03 0.  0.
   -5000001    1    1    2    0    0 -0.27468996811E+03 -0.92741845600E+02 -0.53130312009E+03  0.63713392150E+03  0.19900000000E+03 0.  0.
<mgrwt>
<rscale>  0 0.85712712E+03</rscale>
<asrwt>0</asrwt>
<pdfrwt beam="1">  1        2 0.10620954E+00 0.85712712E+03</pdfrwt>
<pdfrwt beam="2">  1       -2 0.35291560E-01 0.85712712E+03</pdfrwt>
<totfact> 0.31539018E+02</totfact>
</mgrwt>
</event>
<event>
 4    1  0.5080671E-005  0.5121809E+03  0.7818608E-02  0.1010648E+00
          2   -1    0    0  501    0  0.00000000000E+00  0.00000000000E+00  0.25695070322E+03  0.25695070324E+03  0.25500000000E-02 0.  1.
         -2   -1    0    0    0  501 -0.00000000000E+00 -0.00000000000E+00 -0.25523304413E+03  0.25523304414E+03  0.25500000000E-02 0. -1.
    5000001    1    1    2    0    0  0.87142158986E+02  0.11124088982E+03  0.78402922604E+02  0.25635192551E+03  0.19900000000E+03 0.  0.
   -5000001    1    1    2    0    0 -0.87142158986E+02 -0.11124088982E+03 -0.76685263511E+02  0.25583182187E+03  0.19900000000E+03 0.  0.
<mgrwt>
<rscale>  0 0.51218087E+03</rscale>
<asrwt>0</asrwt>
<pdfrwt beam="1">  1        2 0.36707243E-01 0.51218087E+03</pdfrwt>
<pdfrwt beam="2">  1       -2 0.36461864E-01 0.51218087E+03</pdfrwt>
<totfact> 0.10055102E+03</totfact>
</mgrwt>
</event>
<event>
 4    1  0.5080671E-005  0.1046998E+04  0.7818608E-02  0.9258449E-01
         -2   -1    0    0    0  501 -0.00000000000E+00  0.00000000000E+00  0.24188878440E+03  0.24188878441E+03  0.25500000000E-02 0. -1.
          2   -1    0    0  501    0  0.00000000000E+00 -0.00000000000E+00 -0.11329641970E+04  0.11329641970E+04  0.25500000000E-02 0.  1.
    5000001    1    1    2    0    0 -0.36169888747E+03  0.28502074291E+03 -0.24906041564E+03  0.56008481476E+03  0.19900000000E+03 0.  0.
   -5000001    1    1    2    0    0  0.36169888747E+03 -0.28502074291E+03 -0.64201499700E+03  0.81476816669E+03  0.19900000000E+03 0.  0.
<mgrwt>
<rscale>  0 0.10469982E+04</rscale>
<asrwt>0</asrwt>
<pdfrwt beam="1">  1        2 0.16185203E+00 0.10469982E+04</pdfrwt>
<pdfrwt beam="2">  1       -2 0.34555541E-01 0.10469982E+04</pdfrwt>
<totfact> 0.18228999E+02</totfact>
</mgrwt>
</event>
<event>
 4    1  0.5080671E-005  0.4490168E+03  0.7818608E-02  0.1028016E+00
          2   -1    0    0  501    0  0.00000000000E+00  0.00000000000E+00  0.53920336408E+03  0.53920336409E+03  0.25500000000E-02 0.  1.
         -2   -1    0    0    0  501 -0.00000000000E+00 -0.00000000000E+00 -0.93478690270E+02  0.93478690305E+02  0.25500000000E-02 0. -1.
    5000001    1    1    2    0    0  0.48331972685E+02  0.87045611613E+02  0.18082416464E+03  0.28672512377E+03  0.19900000000E+03 0.  0.
   -5000001    1    1    2    0    0 -0.48331972685E+02 -0.87045611613E+02  0.26490050917E+03  0.34595693062E+03  0.19900000000E+03 0.  0.
<mgrwt>
<rscale>  0 0.44901681E+03</rscale>
<asrwt>0</asrwt>
<pdfrwt beam="1">  1        2 0.77029053E-01 0.44901681E+03</pdfrwt>
<pdfrwt beam="2">  1       -2 0.13354098E-01 0.44901681E+03</pdfrwt>
<totfact> 0.25986740E+03</totfact>
</mgrwt>
</event>
<event>
 4    1  0.5080671E-005  0.7774924E+03  0.7818608E-02  0.9593180E-01
          2   -1    0    0  501    0  0.00000000000E+00  0.00000000000E+00  0.72180640001E+03  0.72180640002E+03  0.25500000000E-02 0.  1.
         -2   -1    0    0    0  501 -0.00000000000E+00 -0.00000000000E+00 -0.20936859293E+03  0.20936859294E+03  0.25500000000E-02 0. -1.
    5000001    1    1    2    0    0  0.13434858959E+03 -0.30514912263E+03  0.23358780449E+03  0.45313330596E+03  0.19900000000E+03 0.  0.
   -5000001    1    1    2    0    0 -0.13434858959E+03  0.30514912263E+03  0.27885000259E+03  0.47804168700E+03  0.19900000000E+03 0.  0.
<mgrwt>
<rscale>  0 0.77749235E+03</rscale>
<asrwt>0</asrwt>
<pdfrwt beam="1">  1        2 0.10311520E+00 0.77749235E+03</pdfrwt>
<pdfrwt beam="2">  1       -2 0.29909799E-01 0.77749235E+03</pdfrwt>
<totfact> 0.44810891E+02</totfact>
</mgrwt>
</event>
<event>
 4    1  0.5080671E-005  0.4925051E+03  0.7818608E-02  0.1015754E+00
         -2   -1    0    0    0  501 -0.00000000000E+00  0.00000000000E+00  0.88629379766E+02  0.88629379802E+02  0.25500000000E-02 0. -1.
          2   -1    0    0  501    0  0.00000000000E+00 -0.00000000000E+00 -0.68420116959E+03  0.68420116960E+03  0.25500000000E-02 0.  1.
    5000001    1    1    2    0    0 -0.39870862590E+02  0.13701817788E+03 -0.25699744836E+03  0.35498219000E+03  0.19900000000E+03 0.  0.
   -5000001    1    1    2    0    0  0.39870862590E+02 -0.13701817788E+03 -0.33857434147E+03  0.41784835940E+03  0.19900000000E+03 0.  0.
<mgrwt>
<rscale>  0 0.49250513E+03</rscale>
<asrwt>0</asrwt>
<pdfrwt beam="1">  1        2 0.97743021E-01 0.49250513E+03</pdfrwt>
<pdfrwt beam="2">  1       -2 0.12661340E-01 0.49250513E+03</pdfrwt>
<totfact> 0.21483052E+03</totfact>
</mgrwt>
</event>
<event>
 4    1  0.5080671E-005  0.9967005E+03  0.7818608E-02  0.9312171E-01
         -2   -1    0    0    0  501 -0.00000000000E+00  0.00000000000E+00  0.24127589697E+03  0.24127589699E+03  0.25500000000E-02 0. -1.
          2   -1    0    0  501    0  0.00000000000E+00 -0.00000000000E+00 -0.10293318968E+04  0.10293318968E+04  0.25500000000E-02 0.  1.
    5000001    1    1    2    0    0  0.27932638427E+03 -0.28519748059E+03 -0.11071181786E+03  0.45958561607E+03  0.19900000000E+03 0.  0.
   -5000001    1    1    2    0    0 -0.27932638427E+03  0.28519748059E+03 -0.67734418195E+03  0.81102217769E+03  0.19900000000E+03 0.  0.
<mgrwt>
<rscale>  0 0.99670051E+03</rscale>
<asrwt>0</asrwt>
<pdfrwt beam="1">  1        2 0.14704741E+00 0.99670051E+03</pdfrwt>
<pdfrwt beam="2">  1       -2 0.34467986E-01 0.99670051E+03</pdfrwt>
<totfact> 0.21173240E+02</totfact>
</mgrwt>
</event>
<event>
 4    1  0.5080671E-005  0.9994911E+03  0.7818608E-02  0.9309103E-01
          2   -1    0    0  501    0  0.00000000000E+00  0.00000000000E+00  0.20451196317E+04  0.20451196317E+04  0.25500000000E-02 0.  1.
         -2   -1    0    0    0  501 -0.00000000000E+00 -0.00000000000E+00 -0.12211786039E+03  0.12211786042E+03  0.25500000000E-02 0. -1.
    5000001    1    1    2    0    0 -0.20278330120E+03  0.40397160598E+03  0.11270705453E+04  0.12305296176E+04  0.19900000000E+03 0.  0.
   -5000001    1    1    2    0    0  0.20278330120E+03 -0.40397160598E+03  0.79593122600E+03  0.93670787453E+03  0.19900000000E+03 0.  0.
<mgrwt>
<rscale>  0 0.99949114E+03</rscale>
<asrwt>0</asrwt>
<pdfrwt beam="1">  1        2 0.29215993E+00 0.99949114E+03</pdfrwt>
<pdfrwt beam="2">  1       -2 0.17445410E-01 0.99949114E+03</pdfrwt>
<totfact> 0.20640320E+02</totfact>
</mgrwt>
</event>
<event>
 4    1  0.5080671E-005  0.6127328E+03  0.7818608E-02  0.9879336E-01
         -2   -1    0    0    0  501 -0.00000000000E+00  0.00000000000E+00  0.65977288068E+02  0.65977288118E+02  0.25500000000E-02 0. -1.
          2   -1    0    0  501    0  0.00000000000E+00 -0.00000000000E+00 -0.14226161554E+04  0.14226161554E+04  0.25500000000E-02 0.  1.
    5000001    1    1    2    0    0 -0.19091775271E+03  0.83064537208E+02 -0.93207663980E+03  0.97555992543E+03  0.19900000000E+03 0.  0.
   -5000001    1    1    2    0    0  0.19091775271E+03 -0.83064537208E+02 -0.42456222755E+03  0.51303351811E+03  0.19900000000E+03 0.  0.
<mgrwt>
<rscale>  0 0.61273275E+03</rscale>
<asrwt>0</asrwt>
<pdfrwt beam="1">  1        2 0.20323086E+00 0.61273275E+03</pdfrwt>
<pdfrwt beam="2">  1       -2 0.94253278E-02 0.61273275E+03</pdfrwt>
<totfact> 0.12306651E+03</totfact>
</mgrwt>
</event>
<event>
 4    1  0.5080671E-005  0.5023846E+03  0.7818608E-02  0.1013158E+00
          2   -1    0    0  501    0  0.00000000000E+00  0.00000000000E+00  0.33619298287E+03  0.33619298288E+03  0.25500000000E-02 0.  1.
         -2   -1    0    0    0  501 -0.00000000000E+00 -0.00000000000E+00 -0.18768262460E+03  0.18768262462E+03  0.25500000000E-02 0. -1.
    5000001    1    1    2    0    0 -0.13044686304E+03 -0.32012562799E+02 -0.27650582184E+01  0.24010379797E+03  0.19900000000E+03 0.  0.
   -5000001    1    1    2    0    0  0.13044686304E+03  0.32012562799E+02  0.15127541649E+03  0.28377180953E+03  0.19900000000E+03 0.  0.
<mgrwt>
<rscale>  0 0.50238464E+03</rscale>
<asrwt>0</asrwt>
<pdfrwt beam="1">  1        2 0.48027569E-01 0.50238464E+03</pdfrwt>
<pdfrwt beam="2">  1       -2 0.26811804E-01 0.50238464E+03</pdfrwt>
<totfact> 0.13229442E+03</totfact>
</mgrwt>
</event>
<event>
 4    1  0.5080671E-005  0.4520877E+03  0.7818608E-02  0.1027101E+00
         -2   -1    0    0    0  501 -0.00000000000E+00  0.00000000000E+00  0.30926115965E+02  0.30926116071E+02  0.25500000000E-02 0. -1.
          2   -1    0    0  501    0  0.00000000000E+00 -0.00000000000E+00 -0.16521900057E+04  0.16521900057E+04  0.25500000000E-02 0.  1.
    5000001    1    1    2    0    0 -0.92052816626E+02  0.31412312743E+02 -0.97855327859E+03  0.10033085136E+04  0.19900000000E+03 0.  0.
   -5000001    1    1    2    0    0  0.92052816626E+02 -0.31412312743E+02 -0.64271061116E+03  0.67980760818E+03  0.19900000000E+03 0.  0.
<mgrwt>
<rscale>  0 0.45208769E+03</rscale>
<asrwt>0</asrwt>
<pdfrwt beam="1">  1        2 0.23602709E+00 0.45208769E+03</pdfrwt>
<pdfrwt beam="2">  1       -2 0.44180176E-02 0.45208769E+03</pdfrwt>
<totfact> 0.30901477E+03</totfact>
</mgrwt>
</event>
<event>
 4    1  0.5080671E-005  0.4787774E+03  0.7818608E-02  0.1019472E+00
          2   -1    0    0  501    0  0.00000000000E+00  0.00000000000E+00  0.73687713528E+02  0.73687713572E+02  0.25500000000E-02 0.  1.
         -2   -1    0    0    0  501 -0.00000000000E+00 -0.00000000000E+00 -0.77770019537E+03  0.77770019537E+03  0.25500000000E-02 0. -1.
    5000001    1    1    2    0    0 -0.11850015523E+03  0.56195977552E+02 -0.39199421338E+03  0.45876000044E+03  0.19900000000E+03 0.  0.
   -5000001    1    1    2    0    0  0.11850015523E+03 -0.56195977552E+02 -0.31201826846E+03  0.39262790850E+03  0.19900000000E+03 0.  0.
<mgrwt>
<rscale>  0 0.47877740E+03</rscale>
<asrwt>0</asrwt>
<pdfrwt beam="1">  1        2 0.10526817E-01 0.47877740E+03</pdfrwt>
<pdfrwt beam="2">  1       -2 0.11110002E+00 0.47877740E+03</pdfrwt>
<totfact> 0.40369299E+02</totfact>
</mgrwt>
</event>
<event>
 4    1  0.5080671E-005  0.5214632E+03  0.7818608E-02  0.1008324E+00
         -2   -1    0    0    0  501 -0.00000000000E+00  0.00000000000E+00  0.18522153925E+02  0.18522154101E+02  0.25500000000E-02 0. -1.
          2   -1    0    0  501    0  0.00000000000E+00 -0.00000000000E+00 -0.36702513638E+04  0.36702513638E+04  0.25500000000E-02 0.  1.
    5000001    1    1    2    0    0 -0.55525702350E+01 -0.16810982135E+03 -0.18923057107E+04  0.19101606335E+04  0.19900000000E+03 0.  0.
   -5000001    1    1    2    0    0  0.55525702350E+01  0.16810982135E+03 -0.17594234992E+04  0.17786128844E+04  0.19900000000E+03 0.  0.
<mgrwt>
<rscale>  0 0.52146318E+03</rscale>
<asrwt>0</asrwt>
<pdfrwt beam="1">  1        2 0.52432116E+00 0.52146318E+03</pdfrwt>
<pdfrwt beam="2">  1       -2 0.26460243E-02 0.52146318E+03</pdfrwt>
<totfact> 0.56865184E+02</totfact>
</mgrwt>
</event>
<event>
 4    1  0.5080671E-005  0.7143953E+03  0.7818608E-02  0.9692926E-01
         -2   -1    0    0    0  501 -0.00000000000E+00  0.00000000000E+00  0.24564851182E+03  0.24564851184E+03  0.25500000000E-02 0. -1.
          2   -1    0    0  501    0  0.00000000000E+00 -0.00000000000E+00 -0.51940133407E+03  0.51940133407E+03  0.25500000000E-02 0.  1.
    5000001    1    1    2    0    0  0.25742784311E+03  0.13337259821E+03 -0.20402671355E+03  0.40655287996E+03  0.19900000000E+03 0.  0.
   -5000001    1    1    2    0    0 -0.25742784311E+03 -0.13337259821E+03 -0.69726108690E+02  0.35849696595E+03  0.19900000000E+03 0.  0.
<mgrwt>
<rscale>  0 0.71439531E+03</rscale>
<asrwt>0</asrwt>
<pdfrwt beam="1">  1        2 0.74200190E-01 0.71439531E+03</pdfrwt>
<pdfrwt beam="2">  1       -2 0.35092645E-01 0.71439531E+03</pdfrwt>
<totfact> 0.49241797E+02</totfact>
</mgrwt>
</event>
<event>
 4    1  0.5080671E-005  0.4631245E+03  0.7818608E-02  0.1023879E+00
          2   -1    0    0  501    0  0.00000000000E+00  0.00000000000E+00  0.20743408029E+03  0.20743408030E+03  0.25500000000E-02 0.  1.
         -2   -1    0    0    0  501 -0.00000000000E+00 -0.00000000000E+00 -0.25849692068E+03  0.25849692069E+03  0.25500000000E-02 0. -1.
    5000001    1    1    2    0    0  0.98339366846E+02 -0.60934613135E+02 -0.15131948235E+00  0.23018401562E+03  0.19900000000E+03 0.  0.
   -5000001    1    1    2    0    0 -0.98339366846E+02  0.60934613135E+02 -0.50911520907E+02  0.23574698537E+03  0.19900000000E+03 0.  0.
<mgrwt>
<rscale>  0 0.46312448E+03</rscale>
<asrwt>0</asrwt>
<pdfrwt beam="1">  1        2 0.29633440E-01 0.46312448E+03</pdfrwt>
<pdfrwt beam="2">  1       -2 0.36928131E-01 0.46312448E+03</pdfrwt>
<totfact> 0.12444745E+03</totfact>
</mgrwt>
</event>
<event>
 4    1  0.5080671E-005  0.7504939E+03  0.7818608E-02  0.9634576E-01
          2   -1    0    0  501    0  0.00000000000E+00  0.00000000000E+00  0.77345189882E+03  0.77345189882E+03  0.25500000000E-02 0.  1.
         -2   -1    0    0    0  501 -0.00000000000E+00 -0.00000000000E+00 -0.18205435482E+03  0.18205435484E+03  0.25500000000E-02 0. -1.
    5000001    1    1    2    0    0  0.26982497429E+03  0.61042232730E+02  0.95695111668E+02  0.35396359322E+03  0.19900000000E+03 0.  0.
   -5000001    1    1    2    0    0 -0.26982497429E+03 -0.61042232730E+02  0.49570243233E+03  0.60154266045E+03  0.19900000000E+03 0.  0.
<mgrwt>
<rscale>  0 0.75049393E+03</rscale>
<asrwt>0</asrwt>
<pdfrwt beam="1">  1        2 0.11049313E+00 0.75049393E+03</pdfrwt>
<pdfrwt beam="2">  1       -2 0.26007765E-01 0.75049393E+03</pdfrwt>
<totfact> 0.53129842E+02</totfact>
</mgrwt>
</event>
<event>
 4    1  0.5080671E-005  0.5634012E+03  0.7818608E-02  0.9984388E-01
         -2   -1    0    0    0  501 -0.00000000000E+00  0.00000000000E+00  0.11745928511E+04  0.11745928511E+04  0.25500000000E-02 0. -1.
          2   -1    0    0  501    0  0.00000000000E+00 -0.00000000000E+00 -0.67559770806E+02  0.67559770854E+02  0.25500000000E-02 0.  1.
    5000001    1    1    2    0    0 -0.56841438112E+02  0.18664956048E+03  0.46300894339E+03  0.54041399794E+03  0.19900000000E+03 0.  0.
   -5000001    1    1    2    0    0  0.56841438112E+02 -0.18664956048E+03  0.64402413685E+03  0.70173862396E+03  0.19900000000E+03 0.  0.
<mgrwt>
<rscale>  0 0.56340119E+03</rscale>
<asrwt>0</asrwt>
<pdfrwt beam="1">  1        2 0.96513964E-02 0.56340119E+03</pdfrwt>
<pdfrwt beam="2">  1       -2 0.16779897E+00 0.56340119E+03</pdfrwt>
<totfact> 0.15674043E+02</totfact>
</mgrwt>
</event>
<event>
 4    1  0.5080671E-005  0.5409093E+03  0.7818608E-02  0.1003620E+00
          2   -1    0    0  501    0  0.00000000000E+00  0.00000000000E+00  0.59010243552E+02  0.59010243607E+02  0.25500000000E-02 0.  1.
         -2   -1    0    0    0  501 -0.00000000000E+00 -0.00000000000E+00 -0.12395428561E+04  0.12395428561E+04  0.25500000000E-02 0. -1.
    5000001    1    1    2    0    0  0.11855319211E+03 -0.13082059596E+03 -0.47325073172E+03  0.54289606995E+03  0.19900000000E+03 0.  0.
   -5000001    1    1    2    0    0 -0.11855319211E+03  0.13082059596E+03 -0.70728188083E+03  0.75565702976E+03  0.19900000000E+03 0.  0.
<mgrwt>
<rscale>  0 0.54090933E+03</rscale>
<asrwt>0</asrwt>
<pdfrwt beam="1">  1        2 0.84300356E-02 0.54090933E+03</pdfrwt>
<pdfrwt beam="2">  1       -2 0.17707754E+00 0.54090933E+03</pdfrwt>
<totfact> 0.16075002E+02</totfact>
</mgrwt>
</event>
<event>
 4    1  0.5080671E-005  0.5655833E+03  0.7818608E-02  0.9979500E-01
          2   -1    0    0  501    0  0.00000000000E+00  0.00000000000E+00  0.64496431442E+03  0.64496431443E+03  0.25500000000E-02 0.  1.
         -2   -1    0    0    0  501 -0.00000000000E+00 -0.00000000000E+00 -0.12399307741E+03  0.12399307744E+03  0.25500000000E-02 0. -1.
    5000001    1    1    2    0    0  0.11994906320E+03  0.15956207287E+03  0.29155669507E+03  0.40552945553E+03  0.19900000000E+03 0.  0.
   -5000001    1    1    2    0    0 -0.11994906320E+03 -0.15956207287E+03  0.22941454194E+03  0.36342793634E+03  0.19900000000E+03 0.  0.
<mgrwt>
<rscale>  0 0.56558327E+03</rscale>
<asrwt>0</asrwt>
<pdfrwt beam="1">  1        2 0.92137760E-01 0.56558327E+03</pdfrwt>
<pdfrwt beam="2">  1       -2 0.17713297E-01 0.56558327E+03</pdfrwt>
<totfact> 0.13123063E+03</totfact>
</mgrwt>
</event>
<event>
 4    1  0.5080671E-005  0.4730382E+03  0.7818608E-02  0.1021066E+00
         -2   -1    0    0    0  501 -0.00000000000E+00  0.00000000000E+00  0.10529373403E+03  0.10529373406E+03  0.25500000000E-02 0. -1.
          2   -1    0    0  501    0  0.00000000000E+00 -0.00000000000E+00 -0.53128785443E+03  0.53128785443E+03  0.25500000000E-02 0.  1.
    5000001    1    1    2    0    0  0.11909424607E+03 -0.45763362102E+02 -0.20235325676E+03  0.31116806597E+03  0.19900000000E+03 0.  0.
   -5000001    1    1    2    0    0 -0.11909424607E+03  0.45763362102E+02 -0.22364086364E+03  0.32541352253E+03  0.19900000000E+03 0.  0.
<mgrwt>
<rscale>  0 0.47303819E+03</rscale>
<asrwt>0</asrwt>
<pdfrwt beam="1">  1        2 0.75898264E-01 0.47303819E+03</pdfrwt>
<pdfrwt beam="2">  1       -2 0.15041962E-01 0.47303819E+03</pdfrwt>
<totfact> 0.21691528E+03</totfact>
</mgrwt>
</event>
<event>
 4    1  0.5080671E-005  0.7582339E+03  0.7818608E-02  0.9622521E-01
         -2   -1    0    0    0  501 -0.00000000000E+00  0.00000000000E+00  0.57934887754E+03  0.57934887755E+03  0.25500000000E-02 0. -1.
          2   -1    0    0  501    0  0.00000000000E+00 -0.00000000000E+00 -0.24808825774E+03  0.24808825775E+03  0.25500000000E-02 0.  1.
    5000001    1    1    2    0    0  0.23791080343E+03  0.18708111300E+03  0.43487321150E+02  0.36481918855E+03  0.19900000000E+03 0.  0.
   -5000001    1    1    2    0    0 -0.23791080343E+03 -0.18708111300E+03  0.28777329866E+03  0.46261794675E+03  0.19900000000E+03 0.  0.
<mgrwt>
<rscale>  0 0.75823388E+03</rscale>
<asrwt>0</asrwt>
<pdfrwt beam="1">  1        2 0.35441179E-01 0.75823388E+03</pdfrwt>
<pdfrwt beam="2">  1       -2 0.82764127E-01 0.75823388E+03</pdfrwt>
<totfact> 0.19038858E+02</totfact>
</mgrwt>
</event>
<event>
 4    1  0.5080671E-005  0.8396404E+03  0.7818608E-02  0.9504348E-01
          2   -1    0    0  501    0  0.00000000000E+00  0.00000000000E+00  0.10265817922E+04  0.10265817922E+04  0.25500000000E-02 0.  1.
         -2   -1    0    0    0  501 -0.00000000000E+00 -0.00000000000E+00 -0.17168529811E+03  0.17168529812E+03  0.25500000000E-02 0. -1.
    5000001    1    1    2    0    0 -0.36393412102E+03  0.55882627806E+01  0.33530530409E+03  0.53339471320E+03  0.19900000000E+03 0.  0.
   -5000001    1    1    2    0    0  0.36393412102E+03 -0.55882627806E+01  0.51959118999E+03  0.66487237710E+03  0.19900000000E+03 0.  0.
<mgrwt>
<rscale>  0 0.83964040E+03</rscale>
<asrwt>0</asrwt>
<pdfrwt beam="1">  1        2 0.14665454E+00 0.83964040E+03</pdfrwt>
<pdfrwt beam="2">  1       -2 0.24526471E-01 0.83964040E+03</pdfrwt>
<totfact> 0.40195628E+02</totfact>
</mgrwt>
</event>
<event>
 4    1  0.5080671E-005  0.6420786E+03  0.7818608E-02  0.9821758E-01
          2   -1    0    0  501    0  0.00000000000E+00  0.00000000000E+00  0.24652526545E+04  0.24652526545E+04  0.25500000000E-02 0.  1.
         -2   -1    0    0    0  501 -0.00000000000E+00 -0.00000000000E+00 -0.41807572633E+02  0.41807572710E+02  0.25500000000E-02 0. -1.
    5000001    1    1    2    0    0 -0.95827171415E+02  0.19267346405E+03  0.17232001202E+04  0.17479489594E+04  0.19900000000E+03 0.  0.
   -5000001    1    1    2    0    0  0.95827171415E+02 -0.19267346405E+03  0.70024496169E+03  0.75911126780E+03  0.19900000000E+03 0.  0.
<mgrwt>
<rscale>  0 0.64207859E+03</rscale>
<asrwt>0</asrwt>
<pdfrwt beam="1">  1        2 0.35217892E+00 0.64207859E+03</pdfrwt>
<pdfrwt beam="2">  1       -2 0.59725109E-02 0.64207859E+03</pdfrwt>
<totfact> 0.74768304E+02</totfact>
</mgrwt>
</event>
<event>
 4    1  0.5080671E-005  0.5458583E+03  0.7818608E-02  0.1002457E+00
          2   -1    0    0  501    0  0.00000000000E+00  0.00000000000E+00  0.98813414508E+03  0.98813414508E+03  0.25500000000E-02 0.  1.
         -2   -1    0    0    0  501 -0.00000000000E+00 -0.00000000000E+00 -0.75384824471E+02  0.75384824515E+02  0.25500000000E-02 0. -1.
    5000001    1    1    2    0    0  0.10358999861E+03  0.11890882521E+03  0.65139511860E+03  0.69913288942E+03  0.19900000000E+03 0.  0.
   -5000001    1    1    2    0    0 -0.10358999861E+03 -0.11890882521E+03  0.26135420200E+03  0.36438608018E+03  0.19900000000E+03 0.  0.
<mgrwt>
<rscale>  0 0.54585829E+03</rscale>
<asrwt>0</asrwt>
<pdfrwt beam="1">  1        2 0.14116201E+00 0.54585829E+03</pdfrwt>
<pdfrwt beam="2">  1       -2 0.10769261E-01 0.54585829E+03</pdfrwt>
<totfact> 0.17433335E+03</totfact>
</mgrwt>
</event>
<event>
 4    1  0.5080671E-005  0.6861937E+03  0.7818608E-02  0.9741138E-01
          2   -1    0    0  501    0  0.00000000000E+00  0.00000000000E+00  0.13174748584E+04  0.13174748584E+04  0.25500000000E-02 0.  1.
         -2   -1    0    0    0  501 -0.00000000000E+00 -0.00000000000E+00 -0.89349302291E+02  0.89349302328E+02  0.25500000000E-02 0. -1.
    5000001    1    1    2    0    0 -0.10647595118E+03 -0.25829624232E+03  0.62999397446E+03  0.71731965318E+03  0.19900000000E+03 0.  0.
   -5000001    1    1    2    0    0  0.10647595118E+03  0.25829624232E+03  0.59813158169E+03  0.68950450759E+03  0.19900000000E+03 0.  0.
<mgrwt>
<rscale>  0 0.68619373E+03</rscale>
<asrwt>0</asrwt>
<pdfrwt beam="1">  1        2 0.18821069E+00 0.68619373E+03</pdfrwt>
<pdfrwt beam="2">  1       -2 0.12764186E-01 0.68619373E+03</pdfrwt>
<totfact> 0.85081944E+02</totfact>
</mgrwt>
</event>
<event>
 4    1  0.5080671E-005  0.4476807E+03  0.7818608E-02  0.1028416E+00
         -2   -1    0    0    0  501 -0.00000000000E+00  0.00000000000E+00  0.97892453826E+02  0.97892453859E+02  0.25500000000E-02 0. -1.
          2   -1    0    0  501    0  0.00000000000E+00 -0.00000000000E+00 -0.51183215260E+03  0.51183215261E+03  0.25500000000E-02 0.  1.
    5000001    1    1    2    0    0 -0.26359292406E+02 -0.84568831719E+02 -0.27717116332E+03  0.35252170624E+03  0.19900000000E+03 0.  0.
   -5000001    1    1    2    0    0  0.26359292406E+02  0.84568831719E+02 -0.13676853546E+03  0.25720290023E+03  0.19900000000E+03 0.  0.
<mgrwt>
<rscale>  0 0.44768071E+03</rscale>
<asrwt>0</asrwt>
<pdfrwt beam="1">  1        2 0.73118878E-01 0.44768071E+03</pdfrwt>
<pdfrwt beam="2">  1       -2 0.13984637E-01 0.44768071E+03</pdfrwt>
<totfact> 0.25541414E+03</totfact>
</mgrwt>
</event>
<event>
 4    1  0.5080671E-005  0.1012322E+04  0.7818608E-02  0.9295132E-01
          2   -1    0    0  501    0  0.00000000000E+00  0.00000000000E+00  0.16737043250E+04  0.16737043250E+04  0.25500000000E-02 0.  1.
         -2   -1    0    0    0  501 -0.00000000000E+00 -0.00000000000E+00 -0.15307303794E+03  0.15307303796E+03  0.25500000000E-02 0. -1.
    5000001    1    1    2    0    0 -0.18293866631E+03 -0.42633261062E+03  0.82715570847E+03  0.96902714955E+03  0.19900000000E+03 0.  0.
   -5000001    1    1    2    0    0  0.18293866631E+03  0.42633261062E+03  0.69347557859E+03  0.85775021341E+03  0.19900000000E+03 0.  0.
<mgrwt>
<rscale>  0 0.10123221E+04</rscale>
<asrwt>0</asrwt>
<pdfrwt beam="1">  1        2 0.23910062E+00 0.10123221E+04</pdfrwt>
<pdfrwt beam="2">  1       -2 0.21867576E-01 0.10123221E+04</pdfrwt>
<totfact> 0.21526522E+02</totfact>
</mgrwt>
</event>
<event>
 4    1  0.5080671E-005  0.5760838E+03  0.7818608E-02  0.9956306E-01
         -2   -1    0    0    0  501 -0.00000000000E+00  0.00000000000E+00  0.96325063235E+02  0.96325063269E+02  0.25500000000E-02 0. -1.
          2   -1    0    0  501    0  0.00000000000E+00 -0.00000000000E+00 -0.86133486082E+03  0.86133486082E+03  0.25500000000E-02 0.  1.
    5000001    1    1    2    0    0  0.16452527460E+03 -0.29288444073E+02 -0.17593837818E+03  0.31381792787E+03  0.19900000000E+03 0.  0.
   -5000001    1    1    2    0    0 -0.16452527460E+03  0.29288444073E+02 -0.58907141940E+03  0.64384199622E+03  0.19900000000E+03 0.  0.
<mgrwt>
<rscale>  0 0.57608380E+03</rscale>
<asrwt>0</asrwt>
<pdfrwt beam="1">  1        2 0.12304783E+00 0.57608380E+03</pdfrwt>
<pdfrwt beam="2">  1       -2 0.13760724E-01 0.57608380E+03</pdfrwt>
<totfact> 0.14010279E+03</totfact>
</mgrwt>
</event>
<event>
 4    1  0.5080671E-005  0.8401111E+03  0.7818608E-02  0.9503706E-01
          2   -1    0    0  501    0  0.00000000000E+00  0.00000000000E+00  0.75165501503E+02  0.75165501546E+02  0.25500000000E-02 0.  1.
         -2   -1    0    0    0  501 -0.00000000000E+00 -0.00000000000E+00 -0.23474420760E+04  0.23474420760E+04  0.25500000000E-02 0. -1.
    5000001    1    1    2    0    0 -0.18021320323E+03 -0.31799659215E+03 -0.13004579309E+04  0.13654268421E+04  0.19900000000E+03 0.  0.
   -5000001    1    1    2    0    0  0.18021320323E+03  0.31799659215E+03 -0.97181864357E+03  0.10571807354E+04  0.19900000000E+03 0.  0.
<mgrwt>
<rscale>  0 0.84011109E+03</rscale>
<asrwt>0</asrwt>
<pdfrwt beam="1">  1        2 0.10737930E-01 0.84011109E+03</pdfrwt>
<pdfrwt beam="2">  1       -2 0.33534882E+00 0.84011109E+03</pdfrwt>
<totfact> 0.12150188E+01</totfact>
</mgrwt>
</event>
<event>
 4    1  0.5080671E-005  0.5526410E+03  0.7818608E-02  0.1000884E+00
         -2   -1    0    0    0  501 -0.00000000000E+00  0.00000000000E+00  0.28346692586E+02  0.28346692701E+02  0.25500000000E-02 0. -1.
          2   -1    0    0  501    0  0.00000000000E+00 -0.00000000000E+00 -0.26935421228E+04  0.26935421228E+04  0.25500000000E-02 0.  1.
    5000001    1    1    2    0    0  0.65396307053E+02  0.91798997979E+02 -0.56881594033E+03  0.61307120874E+03  0.19900000000E+03 0.  0.
   -5000001    1    1    2    0    0 -0.65396307053E+02 -0.91798997979E+02 -0.20963794899E+04  0.21088176067E+04  0.19900000000E+03 0.  0.
<mgrwt>
<rscale>  0 0.55264097E+03</rscale>
<asrwt>0</asrwt>
<pdfrwt beam="1">  1        2 0.38479157E+00 0.55264097E+03</pdfrwt>
<pdfrwt beam="2">  1       -2 0.40495292E-02 0.55264097E+03</pdfrwt>
<totfact> 0.10479351E+03</totfact>
</mgrwt>
</event>
<event>
 4    1  0.5080671E-005  0.5809254E+03  0.7818608E-02  0.9945790E-01
         -2   -1    0    0    0  501 -0.00000000000E+00  0.00000000000E+00  0.16385432942E+03  0.16385432944E+03  0.25500000000E-02 0. -1.
          2   -1    0    0  501    0  0.00000000000E+00 -0.00000000000E+00 -0.51489986526E+03  0.51489986527E+03  0.25500000000E-02 0.  1.
    5000001    1    1    2    0    0  0.14034499184E+03 -0.13024577430E+03 -0.70321876379E+02  0.28496814691E+03  0.19900000000E+03 0.  0.
   -5000001    1    1    2    0    0 -0.14034499184E+03  0.13024577430E+03 -0.28072365946E+03  0.39378604780E+03  0.19900000000E+03 0.  0.
<mgrwt>
<rscale>  0 0.58092537E+03</rscale>
<asrwt>0</asrwt>
<pdfrwt beam="1">  1        2 0.73557123E-01 0.58092537E+03</pdfrwt>
<pdfrwt beam="2">  1       -2 0.23407762E-01 0.58092537E+03</pdfrwt>
<totfact> 0.10491973E+03</totfact>
</mgrwt>
</event>
<event>
 4    1  0.5080671E-005  0.6194621E+03  0.7818608E-02  0.9865831E-01
         -2   -1    0    0    0  501 -0.00000000000E+00  0.00000000000E+00  0.71428653707E+02  0.71428653753E+02  0.25500000000E-02 0. -1.
          2   -1    0    0  501    0  0.00000000000E+00 -0.00000000000E+00 -0.13430651494E+04  0.13430651494E+04  0.25500000000E-02 0.  1.
    5000001    1    1    2    0    0  0.37034601987E+02  0.22990353906E+03 -0.74058570659E+03  0.80143333336E+03  0.19900000000E+03 0.  0.
   -5000001    1    1    2    0    0 -0.37034601987E+02 -0.22990353906E+03 -0.53105078912E+03  0.61306046981E+03  0.19900000000E+03 0.  0.
<mgrwt>
<rscale>  0 0.61946214E+03</rscale>
<asrwt>0</asrwt>
<pdfrwt beam="1">  1        2 0.19186643E+00 0.61946214E+03</pdfrwt>
<pdfrwt beam="2">  1       -2 0.10204094E-01 0.61946214E+03</pdfrwt>
<totfact> 0.11930488E+03</totfact>
</mgrwt>
</event>
<event>
 4    1  0.5080671E-005  0.1295435E+04  0.7818608E-02  0.9033193E-01
         -2   -1    0    0    0  501 -0.00000000000E+00  0.00000000000E+00  0.20121907318E+03  0.20121907320E+03  0.25500000000E-02 0. -1.
          2   -1    0    0  501    0  0.00000000000E+00 -0.00000000000E+00 -0.20849814941E+04  0.20849814941E+04  0.25500000000E-02 0.  1.
    5000001    1    1    2    0    0  0.13787234554E+03 -0.55931630104E+03 -0.13289088763E+04  0.14619997639E+04  0.19900000000E+03 0.  0.
   -5000001    1    1    2    0    0 -0.13787234554E+03  0.55931630104E+03 -0.55485354465E+03  0.82420080337E+03  0.19900000000E+03 0.  0.
<mgrwt>
<rscale>  0 0.12954351E+04</rscale>
<asrwt>0</asrwt>
<pdfrwt beam="1">  1        2 0.29785449E+00 0.12954351E+04</pdfrwt>
<pdfrwt beam="2">  1       -2 0.28745583E-01 0.12954351E+04</pdfrwt>
<totfact> 0.79036083E+01</totfact>
</mgrwt>
</event>
<event>
 4    1  0.5080671E-005  0.4793005E+03  0.7818608E-02  0.1019328E+00
          2   -1    0    0  501    0  0.00000000000E+00  0.00000000000E+00  0.17578777603E+03  0.17578777605E+03  0.25500000000E-02 0.  1.
         -2   -1    0    0    0  501 -0.00000000000E+00 -0.00000000000E+00 -0.32671345084E+03  0.32671345085E+03  0.25500000000E-02 0. -1.
    5000001    1    1    2    0    0 -0.51221417386E+02  0.10812801076E+03 -0.13297336720E+02  0.23257927568E+03  0.19900000000E+03 0.  0.
   -5000001    1    1    2    0    0  0.51221417386E+02 -0.10812801076E+03 -0.13762833809E+03  0.26992195123E+03  0.19900000000E+03 0.  0.
<mgrwt>
<rscale>  0 0.47930045E+03</rscale>
<asrwt>0</asrwt>
<pdfrwt beam="1">  1        2 0.25112540E-01 0.47930045E+03</pdfrwt>
<pdfrwt beam="2">  1       -2 0.46673350E-01 0.47930045E+03</pdfrwt>
<totfact> 0.95079902E+02</totfact>
</mgrwt>
</event>
<event>
 4    1  0.5080671E-005  0.7059944E+03  0.7818608E-02  0.9707036E-01
         -2   -1    0    0    0  501 -0.00000000000E+00  0.00000000000E+00  0.17015090831E+03  0.17015090832E+03  0.25500000000E-02 0. -1.
          2   -1    0    0  501    0  0.00000000000E+00 -0.00000000000E+00 -0.73233231929E+03  0.73233231929E+03  0.25500000000E-02 0.  1.
    5000001    1    1    2    0    0  0.21089284765E+03 -0.19987066680E+03 -0.25025355209E+03  0.43203231010E+03  0.19900000000E+03 0.  0.
   -5000001    1    1    2    0    0 -0.21089284765E+03  0.19987066680E+03 -0.31192785889E+03  0.47045091752E+03  0.19900000000E+03 0.  0.
<mgrwt>
<rscale>  0 0.70599436E+03</rscale>
<asrwt>0</asrwt>
<pdfrwt beam="1">  1        2 0.10461890E+00 0.70599436E+03</pdfrwt>
<pdfrwt beam="2">  1       -2 0.24307273E-01 0.70599436E+03</pdfrwt>
<totfact> 0.64381355E+02</totfact>
</mgrwt>
</event>
<event>
 4    1  0.5080671E-005  0.4151274E+03  0.7818608E-02  0.1038664E+00
         -2   -1    0    0    0  501 -0.00000000000E+00  0.00000000000E+00  0.91275854510E+02  0.91275854545E+02  0.25500000000E-02 0. -1.
          2   -1    0    0  501    0  0.00000000000E+00 -0.00000000000E+00 -0.47200525724E+03  0.47200525725E+03  0.25500000000E-02 0.  1.
    5000001    1    1    2    0    0 -0.20753711819E+01  0.47396245583E+02 -0.23797138157E+03  0.31381856176E+03  0.19900000000E+03 0.  0.
   -5000001    1    1    2    0    0  0.20753711819E+01 -0.47396245583E+02 -0.14275802116E+03  0.24946255003E+03  0.19900000000E+03 0.  0.
<mgrwt>
<rscale>  0 0.41512737E+03</rscale>
<asrwt>0</asrwt>
<pdfrwt beam="1">  1        2 0.67429321E-01 0.41512737E+03</pdfrwt>
<pdfrwt beam="2">  1       -2 0.13039408E-01 0.41512737E+03</pdfrwt>
<totfact> 0.31373140E+03</totfact>
</mgrwt>
</event>
<event>
 4    1  0.5080671E-005  0.7962343E+03  0.7818608E-02  0.9565484E-01
          2   -1    0    0  501    0  0.00000000000E+00  0.00000000000E+00  0.48073127563E+03  0.48073127564E+03  0.25500000000E-02 0.  1.
         -2   -1    0    0    0  501 -0.00000000000E+00 -0.00000000000E+00 -0.32970032786E+03  0.32970032787E+03  0.25500000000E-02 0. -1.
    5000001    1    1    2    0    0  0.15749377975E+03  0.30663479749E+03  0.67179851308E+02  0.40366238630E+03  0.19900000000E+03 0.  0.
   -5000001    1    1    2    0    0 -0.15749377975E+03 -0.30663479749E+03  0.83851096464E+02  0.40676921721E+03  0.19900000000E+03 0.  0.
<mgrwt>
<rscale>  0 0.79623429E+03</rscale>
<asrwt>0</asrwt>
<pdfrwt beam="1">  1        2 0.68675896E-01 0.79623429E+03</pdfrwt>
<pdfrwt beam="2">  1       -2 0.47100047E-01 0.79623429E+03</pdfrwt>
<totfact> 0.30190572E+02</totfact>
</mgrwt>
</event>
<event>
 4    1  0.5080671E-005  0.9003951E+03  0.7818608E-02  0.9425088E-01
          2   -1    0    0  501    0  0.00000000000E+00  0.00000000000E+00  0.45019567148E+03  0.45019567149E+03  0.25500000000E-02 0.  1.
         -2   -1    0    0    0  501 -0.00000000000E+00 -0.00000000000E+00 -0.45019939229E+03  0.45019939230E+03  0.25500000000E-02 0. -1.
    5000001    1    1    2    0    0 -0.23770565932E+02 -0.25022164102E+03  0.31606918901E+03  0.45019622575E+03  0.19900000000E+03 0.  0.
   -5000001    1    1    2    0    0  0.23770565932E+02  0.25022164102E+03 -0.31607290982E+03  0.45019883803E+03  0.19900000000E+03 0.  0.
<mgrwt>
<rscale>  0 0.90039506E+03</rscale>
<asrwt>0</asrwt>
<pdfrwt beam="1">  1        2 0.64313667E-01 0.90039506E+03</pdfrwt>
<pdfrwt beam="2">  1       -2 0.64314199E-01 0.90039506E+03</pdfrwt>
<totfact> 0.16967665E+02</totfact>
</mgrwt>
</event>
<event>
 4    1  0.5080671E-005  0.5010132E+03  0.7818608E-02  0.1013515E+00
          2   -1    0    0  501    0  0.00000000000E+00  0.00000000000E+00  0.10119294757E+03  0.10119294760E+03  0.25500000000E-02 0.  1.
         -2   -1    0    0    0  501 -0.00000000000E+00 -0.00000000000E+00 -0.62013767212E+03  0.62013767213E+03  0.25500000000E-02 0. -1.
    5000001    1    1    2    0    0 -0.11158492430E+03  0.29318660000E+02 -0.40230320996E+03  0.46342167828E+03  0.19900000000E+03 0.  0.
   -5000001    1    1    2    0    0  0.11158492430E+03 -0.29318660000E+02 -0.11664151460E+03  0.25790894146E+03  0.19900000000E+03 0.  0.
<mgrwt>
<rscale>  0 0.50101321E+03</rscale>
<asrwt>0</asrwt>
<pdfrwt beam="1">  1        2 0.14456136E-01 0.50101321E+03</pdfrwt>
<pdfrwt beam="2">  1       -2 0.88591094E-01 0.50101321E+03</pdfrwt>
<totfact> 0.46404691E+02</totfact>
</mgrwt>
</event>
<event>
 4    1  0.5080671E-005  0.5359867E+03  0.7818608E-02  0.1004791E+00
          2   -1    0    0  501    0  0.00000000000E+00  0.00000000000E+00  0.36141165118E+04  0.36141165118E+04  0.25500000000E-02 0.  1.
         -2   -1    0    0    0  501 -0.00000000000E+00 -0.00000000000E+00 -0.19872196893E+02  0.19872197057E+02  0.25500000000E-02 0. -1.
    5000001    1    1    2    0    0  0.10881067923E+03  0.65792855532E+02  0.26560965618E+04  0.26665742835E+04  0.19900000000E+03 0.  0.
   -5000001    1    1    2    0    0 -0.10881067923E+03 -0.65792855532E+02  0.93814775308E+03  0.96741442535E+03  0.19900000000E+03 0.  0.
<mgrwt>
<rscale>  0 0.53598670E+03</rscale>
<asrwt>0</asrwt>
<pdfrwt beam="1">  1        2 0.51630244E+00 0.53598670E+03</pdfrwt>
<pdfrwt beam="2">  1       -2 0.28388848E-02 0.53598670E+03</pdfrwt>
<totfact> 0.55219393E+02</totfact>
</mgrwt>
</event>
<event>
 4    1  0.5080671E-005  0.4965039E+03  0.7818608E-02  0.1014695E+00
         -2   -1    0    0    0  501 -0.00000000000E+00  0.00000000000E+00  0.70598131875E+02  0.70598131921E+02  0.25500000000E-02 0. -1.
          2   -1    0    0  501    0  0.00000000000E+00 -0.00000000000E+00 -0.87295568543E+03  0.87295568544E+03  0.25500000000E-02 0.  1.
    5000001    1    1    2    0    0  0.90317042776E+02 -0.39390839815E+02 -0.61210755238E+03  0.65114166059E+03  0.19900000000E+03 0.  0.
   -5000001    1    1    2    0    0 -0.90317042776E+02  0.39390839815E+02 -0.19025000118E+03  0.29241215677E+03  0.19900000000E+03 0.  0.
<mgrwt>
<rscale>  0 0.49650394E+03</rscale>
<asrwt>0</asrwt>
<pdfrwt beam="1">  1        2 0.12470795E+00 0.49650394E+03</pdfrwt>
<pdfrwt beam="2">  1       -2 0.10085448E-01 0.49650394E+03</pdfrwt>
<totfact> 0.22925779E+03</totfact>
</mgrwt>
</event>
<event>
 4    1  0.5080671E-005  0.5238952E+03  0.7818608E-02  0.1007723E+00
          2   -1    0    0  501    0  0.00000000000E+00  0.00000000000E+00  0.18076595804E+03  0.18076595806E+03  0.25500000000E-02 0. -1.
         -2   -1    0    0    0  501 -0.00000000000E+00 -0.00000000000E+00 -0.37958775031E+03  0.37958775031E+03  0.25500000000E-02 0.  1.
    5000001    1    1    2    0    0  0.11095307992E+03  0.78496763196E+02 -0.20923669728E+03  0.31914467450E+03  0.19900000000E+03 0.  0.
   -5000001    1    1    2    0    0 -0.11095307992E+03 -0.78496763196E+02  0.10414905012E+02  0.24120903387E+03  0.19900000000E+03 0.  0.
<mgrwt>
<rscale>  0 0.52389519E+03</rscale>
<asrwt>0</asrwt>
<pdfrwt beam="1">  1        2 0.25823709E-01 0.52389519E+03</pdfrwt>
<pdfrwt beam="2">  1       -2 0.54226821E-01 0.52389519E+03</pdfrwt>
<totfact> 0.68006249E+02</totfact>
</mgrwt>
</event>
<event>
 4    1  0.5080671E-005  0.6296358E+03  0.7818608E-02  0.9845760E-01
         -2   -1    0    0    0  501 -0.00000000000E+00  0.00000000000E+00  0.46748478507E+03  0.46748478508E+03  0.25500000000E-02 0. -1.
          2   -1    0    0  501    0  0.00000000000E+00 -0.00000000000E+00 -0.21200754039E+03  0.21200754040E+03  0.25500000000E-02 0.  1.
    5000001    1    1    2    0    0  0.78960507183E+02 -0.22897168924E+03  0.15913716505E+03  0.35155146631E+03  0.19900000000E+03 0.  0.
   -5000001    1    1    2    0    0 -0.78960507183E+02  0.22897168924E+03  0.96340079635E+02  0.32794085917E+03  0.19900000000E+03 0.  0.
<mgrwt>
<rscale>  0 0.62963577E+03</rscale>
<asrwt>0</asrwt>
<pdfrwt beam="1">  1        2 0.30286791E-01 0.62963577E+03</pdfrwt>
<pdfrwt beam="2">  1       -2 0.66783542E-01 0.62963577E+03</pdfrwt>
<totfact> 0.36597102E+02</totfact>
</mgrwt>
</event>
<event>
 4    1  0.5080671E-005  0.5551398E+03  0.7818608E-02  0.1000311E+00
          2   -1    0    0  501    0  0.00000000000E+00  0.00000000000E+00  0.11659006392E+04  0.11659006392E+04  0.25500000000E-02 0.  1.
         -2   -1    0    0    0  501 -0.00000000000E+00 -0.00000000000E+00 -0.66082012378E+02  0.66082012427E+02  0.25500000000E-02 0. -1.
    5000001    1    1    2    0    0 -0.40172481110E+02  0.16462516518E+03  0.75724743074E+03  0.80108672727E+03  0.19900000000E+03 0.  0.
   -5000001    1    1    2    0    0  0.40172481110E+02 -0.16462516518E+03  0.34257119611E+03  0.43089592439E+03  0.19900000000E+03 0.  0.
<mgrwt>
<rscale>  0 0.55513984E+03</rscale>
<asrwt>0</asrwt>
<pdfrwt beam="1">  1        2 0.16655723E+00 0.55513984E+03</pdfrwt>
<pdfrwt beam="2">  1       -2 0.94402878E-02 0.55513984E+03</pdfrwt>
<totfact> 0.16969264E+03</totfact>
</mgrwt>
</event>
<event>
 4    1  0.5080671E-005  0.9107428E+03  0.7818608E-02  0.9412251E-01
          2   -1    0    0  501    0  0.00000000000E+00  0.00000000000E+00  0.22997274844E+04  0.22997274844E+04  0.25500000000E-02 0.  1.
         -2   -1    0    0    0  501 -0.00000000000E+00 -0.00000000000E+00 -0.90168555875E+02  0.90168555911E+02  0.25500000000E-02 0. -1.
    5000001    1    1    2    0    0 -0.11903936324E+03 -0.34650333248E+03  0.15852665965E+04  0.16391784867E+04  0.19900000000E+03 0.  0.
   -5000001    1    1    2    0    0  0.11903936324E+03  0.34650333248E+03  0.62429233205E+03  0.75071755360E+03  0.19900000000E+03 0.  0.
<mgrwt>
<rscale>  0 0.91074279E+03</rscale>
<asrwt>0</asrwt>
<pdfrwt beam="1">  1        2 0.32853254E+00 0.91074279E+03</pdfrwt>
<pdfrwt beam="2">  1       -2 0.12881221E-01 0.91074279E+03</pdfrwt>
<totfact> 0.25760550E+02</totfact>
</mgrwt>
</event>
<event>
 4    1  0.5080671E-005  0.5671056E+03  0.7818608E-02  0.9976104E-01
         -2   -1    0    0    0  501 -0.00000000000E+00  0.00000000000E+00  0.52119272469E+02  0.52119272532E+02  0.25500000000E-02 0. -1.
          2   -1    0    0  501    0  0.00000000000E+00 -0.00000000000E+00 -0.15426576374E+04  0.15426576374E+04  0.25500000000E-02 0.  1.
    5000001    1    1    2    0    0 -0.12967332676E+03 -0.15434385283E+03 -0.78128176017E+03  0.83104716193E+03  0.19900000000E+03 0.  0.
   -5000001    1    1    2    0    0  0.12967332676E+03  0.15434385283E+03 -0.70925660472E+03  0.76372974796E+03  0.19900000000E+03 0.  0.
<mgrwt>
<rscale>  0 0.56710561E+03</rscale>
<asrwt>0</asrwt>
<pdfrwt beam="1">  1        2 0.22037964E+00 0.56710561E+03</pdfrwt>
<pdfrwt beam="2">  1       -2 0.74456113E-02 0.56710561E+03</pdfrwt>
<totfact> 0.15551907E+03</totfact>
</mgrwt>
</event>
<event>
 4    1  0.5080671E-005  0.4402003E+03  0.7818608E-02  0.1030685E+00
         -2   -1    0    0    0  501 -0.00000000000E+00  0.00000000000E+00  0.50469625164E+03  0.50469625165E+03  0.25500000000E-02 0. -1.
          2   -1    0    0  501    0  0.00000000000E+00 -0.00000000000E+00 -0.95986587008E+02  0.95986587042E+02  0.25500000000E-02 0.  1.
    5000001    1    1    2    0    0 -0.27479274477E+02 -0.80233112706E+02  0.25979402004E+03  0.33806270979E+03  0.19900000000E+03 0.  0.
   -5000001    1    1    2    0    0  0.27479274477E+02  0.80233112706E+02  0.14891564460E+03  0.26262012890E+03  0.19900000000E+03 0.  0.
<mgrwt>
<rscale>  0 0.44020028E+03</rscale>
<asrwt>0</asrwt>
<pdfrwt beam="1">  1        2 0.13712370E-01 0.44020028E+03</pdfrwt>
<pdfrwt beam="2">  1       -2 0.72099464E-01 0.44020028E+03</pdfrwt>
<totfact> 0.78294652E+02</totfact>
</mgrwt>
</event>
<event>
 4    1  0.5080671E-005  0.1012226E+04  0.7818608E-02  0.9295237E-01
          2   -1    0    0  501    0  0.00000000000E+00  0.00000000000E+00  0.80296560967E+03  0.80296560967E+03  0.25500000000E-02 0.  1.
         -2   -1    0    0    0  501 -0.00000000000E+00 -0.00000000000E+00 -0.31900515638E+03  0.31900515639E+03  0.25500000000E-02 0. -1.
    5000001    1    1    2    0    0 -0.53947811369E+00  0.45248806472E+03  0.12155753275E+03  0.50904122969E+03  0.19900000000E+03 0.  0.
   -5000001    1    1    2    0    0  0.53947811369E+00 -0.45248806472E+03  0.36240292054E+03  0.61292953638E+03  0.19900000000E+03 0.  0.
<mgrwt>
<rscale>  0 0.10122256E+04</rscale>
<asrwt>0</asrwt>
<pdfrwt beam="1">  1        2 0.11470937E+00 0.10122256E+04</pdfrwt>
<pdfrwt beam="2">  1       -2 0.45572165E-01 0.10122256E+04</pdfrwt>
<totfact> 0.17220815E+02</totfact>
</mgrwt>
</event>
<event>
 4    1  0.5080671E-005  0.6193855E+03  0.7818608E-02  0.9865984E-01
          2   -1    0    0  501    0  0.00000000000E+00  0.00000000000E+00  0.30887072980E+03  0.30887072981E+03  0.25500000000E-02 0.  1.
         -2   -1    0    0    0  501 -0.00000000000E+00 -0.00000000000E+00 -0.31051697793E+03  0.31051697794E+03  0.25500000000E-02 0. -1.
    5000001    1    1    2    0    0  0.18822452280E+03 -0.14103872849E+03  0.30612821187E+02  0.30961030141E+03  0.19900000000E+03 0.  0.
   -5000001    1    1    2    0    0 -0.18822452280E+03  0.14103872849E+03 -0.32259069319E+02  0.30977740633E+03  0.19900000000E+03 0.  0.
<mgrwt>
<rscale>  0 0.61938552E+03</rscale>
<asrwt>0</asrwt>
<pdfrwt beam="1">  1        2 0.44124390E-01 0.61938552E+03</pdfrwt>
<pdfrwt beam="2">  1       -2 0.44359568E-01 0.61938552E+03</pdfrwt>
<totfact> 0.56033229E+02</totfact>
</mgrwt>
</event>
<event>
 4    1  0.5080671E-005  0.1255898E+04  0.7818608E-02  0.9065289E-01
          2   -1    0    0  501    0  0.00000000000E+00  0.00000000000E+00  0.16250806772E+04  0.16250806772E+04  0.25500000000E-02 0.  1.
         -2   -1    0    0    0  501 -0.00000000000E+00 -0.00000000000E+00 -0.24264639471E+03  0.24264639473E+03  0.25500000000E-02 0. -1.
    5000001    1    1    2    0    0  0.55627514480E+03  0.79919985969E+02  0.98449311023E+03  0.11509374114E+04  0.19900000000E+03 0.  0.
   -5000001    1    1    2    0    0 -0.55627514480E+03 -0.79919985969E+02  0.39794117230E+03  0.71678966057E+03  0.19900000000E+03 0.  0.
<mgrwt>
<rscale>  0 0.12558980E+04</rscale>
<asrwt>0</asrwt>
<pdfrwt beam="1">  1        2 0.23215439E+00 0.12558980E+04</pdfrwt>
<pdfrwt beam="2">  1       -2 0.34663770E-01 0.12558980E+04</pdfrwt>
<totfact> 0.96268272E+01</totfact>
</mgrwt>
</event>
<event>
 4    1  0.5080671E-005  0.4372897E+03  0.7818608E-02  0.1031582E+00
         -2   -1    0    0    0  501 -0.00000000000E+00  0.00000000000E+00  0.24834489771E+02  0.24834489902E+02  0.25500000000E-02 0. -1.
          2   -1    0    0  501    0  0.00000000000E+00 -0.00000000000E+00 -0.19249668617E+04  0.19249668617E+04  0.25500000000E-02 0.  1.
    5000001    1    1    2    0    0  0.28318993407E+02  0.72243871942E+02 -0.11584147509E+04  0.11779417972E+04  0.19900000000E+03 0.  0.
   -5000001    1    1    2    0    0 -0.28318993407E+02 -0.72243871942E+02 -0.74171762096E+03  0.77185955436E+03  0.19900000000E+03 0.  0.
<mgrwt>
<rscale>  0 0.43728970E+03</rscale>
<asrwt>0</asrwt>
<pdfrwt beam="1">  1        2 0.27499517E+00 0.43728970E+03</pdfrwt>
<pdfrwt beam="2">  1       -2 0.35477855E-02 0.43728970E+03</pdfrwt>
<totfact> 0.31541842E+03</totfact>
</mgrwt>
</event>
<event>
 4    1  0.5080671E-005  0.5944537E+03  0.7818608E-02  0.9916980E-01
         -2   -1    0    0    0  501 -0.00000000000E+00  0.00000000000E+00  0.44134387950E+03  0.44134387951E+03  0.25500000000E-02 0. -1.
          2   -1    0    0  501    0  0.00000000000E+00 -0.00000000000E+00 -0.20016996738E+03  0.20016996740E+03  0.25500000000E-02 0.  1.
    5000001    1    1    2    0    0  0.89838085794E+01  0.18225377556E+03 -0.13532262537E+02  0.27033547613E+03  0.19900000000E+03 0.  0.
   -5000001    1    1    2    0    0 -0.89838085794E+01 -0.18225377556E+03  0.25470617466E+03  0.37117837078E+03  0.19900000000E+03 0.  0.
<mgrwt>
<rscale>  0 0.59445367E+03</rscale>
<asrwt>0</asrwt>
<pdfrwt beam="1">  1        2 0.28595710E-01 0.59445367E+03</pdfrwt>
<pdfrwt beam="2">  1       -2 0.63049124E-01 0.59445367E+03</pdfrwt>
<totfact> 0.44188220E+02</totfact>
</mgrwt>
</event>
<event>
 4    1  0.5080671E-005  0.6271735E+03  0.7818608E-02  0.9850580E-01
          2   -1    0    0  501    0  0.00000000000E+00  0.00000000000E+00  0.21205633379E+04  0.21205633379E+04  0.25500000000E-02 0.  1.
         -2   -1    0    0    0  501 -0.00000000000E+00 -0.00000000000E+00 -0.46372893729E+02  0.46372893799E+02  0.25500000000E-02 0. -1.
    5000001    1    1    2    0    0  0.62388362608E+01  0.20345556979E+03  0.58261637449E+03  0.64844115521E+03  0.19900000000E+03 0.  0.
   -5000001    1    1    2    0    0 -0.62388362608E+01 -0.20345556979E+03  0.14915740697E+04  0.15184950765E+04  0.19900000000E+03 0.  0.
<mgrwt>
<rscale>  0 0.62717353E+03</rscale>
<asrwt>0</asrwt>
<pdfrwt beam="1">  1        2 0.30293762E+00 0.62717353E+03</pdfrwt>
<pdfrwt beam="2">  1       -2 0.66246991E-02 0.62717353E+03</pdfrwt>
<totfact> 0.95111161E+02</totfact>
</mgrwt>
</event>
<event>
 4    1  0.5080671E-005  0.7127108E+03  0.7818608E-02  0.9695739E-01
          2   -1    0    0  501    0  0.00000000000E+00  0.00000000000E+00  0.56627520871E+03  0.56627520871E+03  0.25500000000E-02 0.  1.
         -2   -1    0    0    0  501 -0.00000000000E+00 -0.00000000000E+00 -0.22425342897E+03  0.22425342899E+03  0.25500000000E-02 0. -1.
    5000001    1    1    2    0    0 -0.86331295643E+02  0.10771426465E+03  0.46095786851E+03  0.52070971948E+03  0.19900000000E+03 0.  0.
   -5000001    1    1    2    0    0  0.86331295643E+02 -0.10771426465E+03 -0.11893608878E+03  0.26981891822E+03  0.19900000000E+03 0.  0.
<mgrwt>
<rscale>  0 0.71271076E+03</rscale>
<asrwt>0</asrwt>
<pdfrwt beam="1">  1        2 0.80896457E-01 0.71271076E+03</pdfrwt>
<pdfrwt beam="2">  1       -2 0.32036205E-01 0.71271076E+03</pdfrwt>
<totfact> 0.52909050E+02</totfact>
</mgrwt>
</event>
<event>
 4    1  0.5080671E-005  0.5761149E+03  0.7818608E-02  0.9956238E-01
         -2   -1    0    0    0  501 -0.00000000000E+00  0.00000000000E+00  0.12856762286E+03  0.12856762289E+03  0.25500000000E-02 0. -1.
          2   -1    0    0  501    0  0.00000000000E+00 -0.00000000000E+00 -0.64539650092E+03  0.64539650093E+03  0.25500000000E-02 0.  1.
    5000001    1    1    2    0    0  0.50430070937E+02  0.20146527363E+03 -0.23740181665E+03  0.37295049415E+03  0.19900000000E+03 0.  0.
   -5000001    1    1    2    0    0 -0.50430070937E+02 -0.20146527363E+03 -0.27942706141E+03  0.40101362967E+03  0.19900000000E+03 0.  0.
<mgrwt>
<rscale>  0 0.57611490E+03</rscale>
<asrwt>0</asrwt>
<pdfrwt beam="1">  1        2 0.92199499E-01 0.57611490E+03</pdfrwt>
<pdfrwt beam="2">  1       -2 0.18366804E-01 0.57611490E+03</pdfrwt>
<totfact> 0.12320755E+03</totfact>
</mgrwt>
</event>
<event>
 4    1  0.5080671E-005  0.8197375E+03  0.7818608E-02  0.9531879E-01
          2   -1    0    0  501    0  0.00000000000E+00  0.00000000000E+00  0.71067486403E+03  0.71067486404E+03  0.25500000000E-02 0.  1.
         -2   -1    0    0    0  501 -0.00000000000E+00 -0.00000000000E+00 -0.23638429261E+03  0.23638429263E+03  0.25500000000E-02 0. -1.
    5000001    1    1    2    0    0 -0.22860314884E+02  0.19636007890E+03  0.58241303960E+03  0.64644088924E+03  0.19900000000E+03 0.  0.
   -5000001    1    1    2    0    0  0.22860314884E+02 -0.19636007890E+03 -0.10812246818E+03  0.30061826742E+03  0.19900000000E+03 0.  0.
<mgrwt>
<rscale>  0 0.81973746E+03</rscale>
<asrwt>0</asrwt>
<pdfrwt beam="1">  1        2 0.10152498E+00 0.81973746E+03</pdfrwt>
<pdfrwt beam="2">  1       -2 0.33769185E-01 0.81973746E+03</pdfrwt>
<totfact> 0.36338436E+02</totfact>
</mgrwt>
</event>
<event>
 4    1  0.5080671E-005  0.6210494E+03  0.7818608E-02  0.9862673E-01
         -2   -1    0    0    0  501 -0.00000000000E+00  0.00000000000E+00  0.40599656800E+02  0.40599656880E+02  0.25500000000E-02 0. -1.
          2   -1    0    0  501    0  0.00000000000E+00 -0.00000000000E+00 -0.23750347798E+04  0.23750347798E+04  0.25500000000E-02 0.  1.
    5000001    1    1    2    0    0  0.78957670618E+02 -0.17346210154E+03 -0.17241397299E+04  0.17460189640E+04  0.19900000000E+03 0.  0.
   -5000001    1    1    2    0    0 -0.78957670618E+02  0.17346210154E+03 -0.61029539311E+03  0.66961547270E+03  0.19900000000E+03 0.  0.
<mgrwt>
<rscale>  0 0.62104942E+03</rscale>
<asrwt>0</asrwt>
<pdfrwt beam="1">  1        2 0.33929060E+00 0.62104942E+03</pdfrwt>
<pdfrwt beam="2">  1       -2 0.57999525E-02 0.62104942E+03</pdfrwt>
<totfact> 0.87175772E+02</totfact>
</mgrwt>
</event>
<event>
 4    1  0.5080671E-005  0.5776995E+03  0.7818608E-02  0.9952784E-01
          2   -1    0    0  501    0  0.00000000000E+00  0.00000000000E+00  0.52578251783E+03  0.52578251783E+03  0.25500000000E-02 0. -1.
         -2   -1    0    0    0  501 -0.00000000000E+00 -0.00000000000E+00 -0.15868574794E+03  0.15868574797E+03  0.25500000000E-02 0.  1.
    5000001    1    1    2    0    0 -0.19992346982E+03 -0.64017973303E+01  0.11029242764E+03  0.30294520360E+03  0.19900000000E+03 0.  0.
   -5000001    1    1    2    0    0  0.19992346982E+03  0.64017973303E+01  0.25680434224E+03  0.38152306220E+03  0.19900000000E+03 0.  0.
<mgrwt>
<rscale>  0 0.57769955E+03</rscale>
<asrwt>0</asrwt>
<pdfrwt beam="1">  1        2 0.75111789E-01 0.57769955E+03</pdfrwt>
<pdfrwt beam="2">  1       -2 0.22669392E-01 0.57769955E+03</pdfrwt>
<totfact> 0.10843398E+03</totfact>
</mgrwt>
</event>
<event>
 4    1  0.5080671E-005  0.5803228E+03  0.7818608E-02  0.9947092E-01
         -2   -1    0    0    0  501 -0.00000000000E+00  0.00000000000E+00  0.85204277556E+02  0.85204277594E+02  0.25500000000E-02 0. -1.
          2   -1    0    0  501    0  0.00000000000E+00 -0.00000000000E+00 -0.98813867171E+03  0.98813867171E+03  0.25500000000E-02 0.  1.
    5000001    1    1    2    0    0  0.17220307566E+03 -0.11455522769E+03 -0.37265237152E+03  0.47036963067E+03  0.19900000000E+03 0.  0.
   -5000001    1    1    2    0    0 -0.17220307566E+03  0.11455522769E+03 -0.53028202263E+03  0.60297331863E+03  0.19900000000E+03 0.  0.
<mgrwt>
<rscale>  0 0.58032281E+03</rscale>
<asrwt>0</asrwt>
<pdfrwt beam="1">  1        2 0.14116266E+00 0.58032281E+03</pdfrwt>
<pdfrwt beam="2">  1       -2 0.12172040E-01 0.58032281E+03</pdfrwt>
<totfact> 0.14259665E+03</totfact>
</mgrwt>
</event>
<event>
 4    1  0.5080671E-005  0.7166352E+03  0.7818608E-02  0.9689199E-01
         -2   -1    0    0    0  501 -0.00000000000E+00  0.00000000000E+00  0.24453108995E+03  0.24453108996E+03  0.25500000000E-02 0. -1.
          2   -1    0    0  501    0  0.00000000000E+00 -0.00000000000E+00 -0.52505183384E+03  0.52505183384E+03  0.25500000000E-02 0.  1.
    5000001    1    1    2    0    0  0.11073662250E+03  0.27661895564E+03 -0.14363090200E+03  0.38602005413E+03  0.19900000000E+03 0.  0.
   -5000001    1    1    2    0    0 -0.11073662250E+03 -0.27661895564E+03 -0.13688984189E+03  0.38356286968E+03  0.19900000000E+03 0.  0.
<mgrwt>
<rscale>  0 0.71663519E+03</rscale>
<asrwt>0</asrwt>
<pdfrwt beam="1">  1        2 0.75007405E-01 0.71663519E+03</pdfrwt>
<pdfrwt beam="2">  1       -2 0.34933013E-01 0.71663519E+03</pdfrwt>
<totfact> 0.49052387E+02</totfact>
</mgrwt>
</event>
<event>
 4    1  0.5080671E-005  0.5160641E+03  0.7818608E-02  0.1009669E+00
          2   -1    0    0  501    0  0.00000000000E+00  0.00000000000E+00  0.48387312272E+03  0.48387312272E+03  0.25500000000E-02 0.  1.
         -2   -1    0    0    0  501 -0.00000000000E+00 -0.00000000000E+00 -0.13759915275E+03  0.13759915278E+03  0.25500000000E-02 0. -1.
    5000001    1    1    2    0    0  0.13134983700E+03 -0.87417631527E+02  0.11814976489E+03  0.28009817730E+03  0.19900000000E+03 0.  0.
   -5000001    1    1    2    0    0 -0.13134983700E+03  0.87417631527E+02  0.22812420508E+03  0.34137409820E+03  0.19900000000E+03 0.  0.
<mgrwt>
<rscale>  0 0.51606407E+03</rscale>
<asrwt>0</asrwt>
<pdfrwt beam="1">  1        2 0.69124732E-01 0.51606407E+03</pdfrwt>
<pdfrwt beam="2">  1       -2 0.19657022E-01 0.51606407E+03</pdfrwt>
<totfact> 0.15297988E+03</totfact>
</mgrwt>
</event>
<event>
 4    1  0.5080671E-005  0.9606481E+03  0.7818608E-02  0.9352790E-01
          2   -1    0    0  501    0  0.00000000000E+00  0.00000000000E+00  0.83038698387E+03  0.83038698387E+03  0.25500000000E-02 0.  1.
         -2   -1    0    0    0  501 -0.00000000000E+00 -0.00000000000E+00 -0.27783573245E+03  0.27783573247E+03  0.25500000000E-02 0. -1.
    5000001    1    1    2    0    0 -0.40832833379E+03  0.14405784542E+03  0.20681386530E+03  0.51947826315E+03  0.19900000000E+03 0.  0.
   -5000001    1    1    2    0    0  0.40832833379E+03 -0.14405784542E+03  0.34573738612E+03  0.58874445319E+03  0.19900000000E+03 0.  0.
<mgrwt>
<rscale>  0 0.96064806E+03</rscale>
<asrwt>0</asrwt>
<pdfrwt beam="1">  1        2 0.11862671E+00 0.96064806E+03</pdfrwt>
<pdfrwt beam="2">  1       -2 0.39690818E-01 0.96064806E+03</pdfrwt>
<totfact> 0.21713036E+02</totfact>
</mgrwt>
</event>
<event>
 4    1  0.5080671E-005  0.9157811E+03  0.7818608E-02  0.9406066E-01
          2   -1    0    0  501    0  0.00000000000E+00  0.00000000000E+00  0.91249401368E+03  0.91249401369E+03  0.25500000000E-02 0.  1.
         -2   -1    0    0    0  501 -0.00000000000E+00 -0.00000000000E+00 -0.22977002935E+03  0.22977002936E+03  0.25500000000E-02 0. -1.
    5000001    1    1    2    0    0  0.34411713952E+03 -0.83311878807E+02  0.77635157456E+02  0.41350416266E+03  0.19900000000E+03 0.  0.
   -5000001    1    1    2    0    0 -0.34411713952E+03  0.83311878807E+02  0.60508882688E+03  0.72875988039E+03  0.19900000000E+03 0.  0.
<mgrwt>
<rscale>  0 0.91578114E+03</rscale>
<asrwt>0</asrwt>
<pdfrwt beam="1">  1        2 0.13035629E+00 0.91578114E+03</pdfrwt>
<pdfrwt beam="2">  1       -2 0.32824290E-01 0.91578114E+03</pdfrwt>
<totfact> 0.27611994E+02</totfact>
</mgrwt>
</event>
<event>
 4    1  0.5080671E-005  0.1978688E+04  0.7818608E-02  0.8616650E-01
          2   -1    0    0  501    0  0.00000000000E+00  0.00000000000E+00  0.21450109894E+04  0.21450109894E+04  0.25500000000E-02 0.  1.
         -2   -1    0    0    0  501 -0.00000000000E+00 -0.00000000000E+00 -0.45631550850E+03  0.45631550850E+03  0.25500000000E-02 0. -1.
    5000001    1    1    2    0    0 -0.32820849193E+03 -0.80376147998E+03  0.27820241442E+03  0.93314035078E+03  0.19900000000E+03 0.  0.
   -5000001    1    1    2    0    0  0.32820849193E+03  0.80376147998E+03  0.14104930665E+04  0.16681861472E+04  0.19900000000E+03 0.  0.
<mgrwt>
<rscale>  0 0.19786882E+04</rscale>
<asrwt>0</asrwt>
<pdfrwt beam="1">  1        2 0.30643015E+00 0.19786882E+04</pdfrwt>
<pdfrwt beam="2">  1       -2 0.65187928E-01 0.19786882E+04</pdfrwt>
<totfact> 0.13683400E+01</totfact>
</mgrwt>
</event>
<event>
 4    1  0.5080671E-005  0.7680356E+03  0.7818608E-02  0.9607473E-01
          2   -1    0    0  501    0  0.00000000000E+00  0.00000000000E+00  0.86394248714E+03  0.86394248715E+03  0.25500000000E-02 0.  1.
         -2   -1    0    0    0  501 -0.00000000000E+00 -0.00000000000E+00 -0.17069386676E+03  0.17069386678E+03  0.25500000000E-02 0. -1.
    5000001    1    1    2    0    0  0.19005727163E+03  0.22834923824E+03  0.53523818859E+03  0.64369718007E+03  0.19900000000E+03 0.  0.
   -5000001    1    1    2    0    0 -0.19005727163E+03 -0.22834923824E+03  0.15801043179E+03  0.39093917386E+03  0.19900000000E+03 0.  0.
<mgrwt>
<rscale>  0 0.76803563E+03</rscale>
<asrwt>0</asrwt>
<pdfrwt beam="1">  1        2 0.12342035E+00 0.76803563E+03</pdfrwt>
<pdfrwt beam="2">  1       -2 0.24384838E-01 0.76803563E+03</pdfrwt>
<totfact> 0.51667084E+02</totfact>
</mgrwt>
</event>
<event>
 4    1  0.5080671E-005  0.4335408E+03  0.7818608E-02  0.1032747E+00
          2   -1    0    0  501    0  0.00000000000E+00  0.00000000000E+00  0.18782033703E+03  0.18782033705E+03  0.25500000000E-02 0.  1.
         -2   -1    0    0    0  501 -0.00000000000E+00 -0.00000000000E+00 -0.25018278246E+03  0.25018278247E+03  0.25500000000E-02 0. -1.
    5000001    1    1    2    0    0 -0.61127229689E+02  0.50497130609E+02 -0.64718010193E+02  0.22377649397E+03  0.19900000000E+03 0.  0.
   -5000001    1    1    2    0    0  0.61127229689E+02 -0.50497130609E+02  0.23555647680E+01  0.21422662555E+03  0.19900000000E+03 0.  0.
<mgrwt>
<rscale>  0 0.43354084E+03</rscale>
<asrwt>0</asrwt>
<pdfrwt beam="1">  1        2 0.26831477E-01 0.43354084E+03</pdfrwt>
<pdfrwt beam="2">  1       -2 0.35740397E-01 0.43354084E+03</pdfrwt>
<totfact> 0.14793024E+03</totfact>
</mgrwt>
</event>
<event>
 4    1  0.5080671E-005  0.4934954E+03  0.7818608E-02  0.1015491E+00
         -2   -1    0    0    0  501 -0.00000000000E+00  0.00000000000E+00  0.37473691555E+02  0.37473691642E+02  0.25500000000E-02 0.  1.
          2   -1    0    0  501    0  0.00000000000E+00 -0.00000000000E+00 -0.16247244551E+04  0.16247244551E+04  0.25500000000E-02 0. -1.
    5000001    1    1    2    0    0  0.13440402978E+03  0.51153407394E+02 -0.71096273149E+03  0.75216362573E+03  0.19900000000E+03 0.  0.
   -5000001    1    1    2    0    0 -0.13440402978E+03 -0.51153407394E+02 -0.87628803205E+03  0.91003452101E+03  0.19900000000E+03 0.  0.
<mgrwt>
<rscale>  0 0.49349538E+03</rscale>
<asrwt>0</asrwt>
<pdfrwt beam="1">  1        2 0.23210345E+00 0.49349538E+03</pdfrwt>
<pdfrwt beam="2">  1       -2 0.53533855E-02 0.49349538E+03</pdfrwt>
<totfact> 0.23716690E+03</totfact>
</mgrwt>
</event>
<event>
 4    1  0.5080671E-005  0.8267080E+03  0.7818608E-02  0.9522143E-01
          2   -1    0    0  501    0  0.00000000000E+00  0.00000000000E+00  0.55485349438E+03  0.55485349438E+03  0.25500000000E-02 0.  1.
         -2   -1    0    0    0  501 -0.00000000000E+00 -0.00000000000E+00 -0.30793988552E+03  0.30793988553E+03  0.25500000000E-02 0. -1.
    5000001    1    1    2    0    0  0.16323597066E+03 -0.30233195451E+03  0.24340809104E+03  0.46572426566E+03  0.19900000000E+03 0.  0.
   -5000001    1    1    2    0    0 -0.16323597066E+03  0.30233195451E+03  0.35055178155E+01  0.39706911425E+03  0.19900000000E+03 0.  0.
<mgrwt>
<rscale>  0 0.82670798E+03</rscale>
<asrwt>0</asrwt>
<pdfrwt beam="1">  1        2 0.79264784E-01 0.82670798E+03</pdfrwt>
<pdfrwt beam="2">  1       -2 0.43991413E-01 0.82670798E+03</pdfrwt>
<totfact> 0.29296615E+02</totfact>
</mgrwt>
</event>
<event>
 4    1  0.5080671E-005  0.6241374E+03  0.7818608E-02  0.9856556E-01
          2   -1    0    0  501    0  0.00000000000E+00  0.00000000000E+00  0.15935913595E+04  0.15935913595E+04  0.25500000000E-02 0.  1.
         -2   -1    0    0    0  501 -0.00000000000E+00 -0.00000000000E+00 -0.61111573857E+02  0.61111573911E+02  0.25500000000E-02 0. -1.
    5000001    1    1    2    0    0  0.44360715907E+02  0.21407683828E+03  0.10312138723E+04  0.10727533809E+04  0.19900000000E+03 0.  0.
   -5000001    1    1    2    0    0 -0.44360715907E+02 -0.21407683828E+03  0.50126591341E+03  0.58194955258E+03  0.19900000000E+03 0.  0.
<mgrwt>
<rscale>  0 0.62413741E+03</rscale>
<asrwt>0</asrwt>
<pdfrwt beam="1">  1        2 0.22765590E+00 0.62413741E+03</pdfrwt>
<pdfrwt beam="2">  1       -2 0.87302251E-02 0.62413741E+03</pdfrwt>
<totfact> 0.11333105E+03</totfact>
</mgrwt>
</event>
<event>
 4    1  0.5080671E-005  0.4604276E+03  0.7818608E-02  0.1024657E+00
          2   -1    0    0  501    0  0.00000000000E+00  0.00000000000E+00  0.12319650812E+03  0.12319650814E+03  0.25500000000E-02 0.  1.
         -2   -1    0    0    0  501 -0.00000000000E+00 -0.00000000000E+00 -0.43019388929E+03  0.43019388930E+03  0.25500000000E-02 0. -1.
    5000001    1    1    2    0    0  0.82599255277E+02  0.64558744772E+02 -0.94532806267E+02  0.24398344198E+03  0.19900000000E+03 0.  0.
   -5000001    1    1    2    0    0 -0.82599255277E+02 -0.64558744772E+02 -0.21246457491E+03  0.30940695547E+03  0.19900000000E+03 0.  0.
<mgrwt>
<rscale>  0 0.46042756E+03</rscale>
<asrwt>0</asrwt>
<pdfrwt beam="1">  1        2 0.17599501E-01 0.46042756E+03</pdfrwt>
<pdfrwt beam="2">  1       -2 0.61456269E-01 0.46042756E+03</pdfrwt>
<totfact> 0.81715477E+02</totfact>
</mgrwt>
</event>
<event>
 4    1  0.5080671E-005  0.6553033E+03  0.7818608E-02  0.9796878E-01
          2   -1    0    0  501    0  0.00000000000E+00  0.00000000000E+00  0.77253767496E+03  0.77253767497E+03  0.25500000000E-02 0. -1.
         -2   -1    0    0    0  501 -0.00000000000E+00 -0.00000000000E+00 -0.13896488693E+03  0.13896488696E+03  0.25500000000E-02 0.  1.
    5000001    1    1    2    0    0 -0.52057467721E+02 -0.17533567519E+03  0.57440394468E+03  0.63481766721E+03  0.19900000000E+03 0.  0.
   -5000001    1    1    2    0    0  0.52057467721E+02  0.17533567519E+03  0.59168843347E+02  0.27668489471E+03  0.19900000000E+03 0.  0.
<mgrwt>
<rscale>  0 0.65530332E+03</rscale>
<asrwt>0</asrwt>
<pdfrwt beam="1">  1        2 0.11036253E+00 0.65530332E+03</pdfrwt>
<pdfrwt beam="2">  1       -2 0.19852126E-01 0.65530332E+03</pdfrwt>
<totfact> 0.86217091E+02</totfact>
</mgrwt>
</event>
<event>
 4    1  0.5080671E-005  0.1758288E+04  0.7818608E-02  0.8728801E-01
         -2   -1    0    0    0  501 -0.00000000000E+00  0.00000000000E+00  0.24296602826E+03  0.24296602827E+03  0.25500000000E-02 0. -1.
          2   -1    0    0  501    0  0.00000000000E+00 -0.00000000000E+00 -0.31810789966E+04  0.31810789966E+04  0.25500000000E-02 0.  1.
    5000001    1    1    2    0    0 -0.84196618974E+03 -0.14149034769E+03 -0.15977386910E+04  0.18224424567E+04  0.19900000000E+03 0.  0.
   -5000001    1    1    2    0    0  0.84196618974E+03  0.14149034769E+03 -0.13403742773E+04  0.16016025682E+04  0.19900000000E+03 0.  0.
<mgrwt>
<rscale>  0 0.17582880E+04</rscale>
<asrwt>0</asrwt>
<pdfrwt beam="1">  1        2 0.45443983E+00 0.17582880E+04</pdfrwt>
<pdfrwt beam="2">  1       -2 0.34709435E-01 0.17582880E+04</pdfrwt>
<totfact> 0.13800105E+01</totfact>
</mgrwt>
</event>
<event>
 4    1  0.5080671E-005  0.6613207E+03  0.7818608E-02  0.9785766E-01
          2   -1    0    0  501    0  0.00000000000E+00  0.00000000000E+00  0.71077800886E+03  0.71077800886E+03  0.25500000000E-02 0.  1.
         -2   -1    0    0    0  501 -0.00000000000E+00 -0.00000000000E+00 -0.15382616058E+03  0.15382616060E+03  0.25500000000E-02 0. -1.
    5000001    1    1    2    0    0  0.24804321283E+02 -0.26277822709E+03  0.28922527619E+03  0.43922649211E+03  0.19900000000E+03 0.  0.
   -5000001    1    1    2    0    0 -0.24804321283E+02  0.26277822709E+03  0.26772657209E+03  0.42537767735E+03  0.19900000000E+03 0.  0.
<mgrwt>
<rscale>  0 0.66132065E+03</rscale>
<asrwt>0</asrwt>
<pdfrwt beam="1">  1        2 0.10153972E+00 0.66132065E+03</pdfrwt>
<pdfrwt beam="2">  1       -2 0.21975166E-01 0.66132065E+03</pdfrwt>
<totfact> 0.80040381E+02</totfact>
</mgrwt>
</event>
<event>
 4    1  0.5080671E-005  0.6287008E+03  0.7818608E-02  0.9847587E-01
          2   -1    0    0  501    0  0.00000000000E+00  0.00000000000E+00  0.14649885111E+04  0.14649885111E+04  0.25500000000E-02 0.  1.
         -2   -1    0    0    0  501 -0.00000000000E+00 -0.00000000000E+00 -0.67451852108E+02  0.67451852156E+02  0.25500000000E-02 0. -1.
    5000001    1    1    2    0    0  0.88279951446E+02  0.67131076733E+02  0.12267229417E+04  0.12476979230E+04  0.19900000000E+03 0.  0.
   -5000001    1    1    2    0    0 -0.88279951446E+02 -0.67131076733E+02  0.17081371731E+03  0.28474244031E+03  0.19900000000E+03 0.  0.
<mgrwt>
<rscale>  0 0.62870085E+03</rscale>
<asrwt>0</asrwt>
<pdfrwt beam="1">  1        2 0.20928406E+00 0.62870085E+03</pdfrwt>
<pdfrwt beam="2">  1       -2 0.96359794E-02 0.62870085E+03</pdfrwt>
<totfact> 0.11272974E+03</totfact>
</mgrwt>
</event>
<event>
 4    1  0.5080671E-005  0.1224800E+04  0.7818608E-02  0.9091422E-01
          2   -1    0    0  501    0  0.00000000000E+00  0.00000000000E+00  0.70517799761E+03  0.70517799762E+03  0.25500000000E-02 0.  1.
         -2   -1    0    0    0  501 -0.00000000000E+00 -0.00000000000E+00 -0.53182831537E+03  0.53182831537E+03  0.25500000000E-02 0. -1.
    5000001    1    1    2    0    0 -0.40911007103E+03  0.39215725723E+03 -0.33990805888E+02  0.60159350022E+03  0.19900000000E+03 0.  0.
   -5000001    1    1    2    0    0  0.40911007103E+03 -0.39215725723E+03  0.20734048814E+03  0.63541281277E+03  0.19900000000E+03 0.  0.
<mgrwt>
<rscale>  0 0.12247998E+04</rscale>
<asrwt>0</asrwt>
<pdfrwt beam="1">  1        2 0.10073971E+00 0.12247998E+04</pdfrwt>
<pdfrwt beam="2">  1       -2 0.75975474E-01 0.12247998E+04</pdfrwt>
<totfact> 0.68265214E+01</totfact>
</mgrwt>
</event>
<event>
 4    1  0.5080671E-005  0.5219336E+03  0.7818608E-02  0.1008207E+00
         -2   -1    0    0    0  501 -0.00000000000E+00  0.00000000000E+00  0.24709930941E+03  0.24709930942E+03  0.25500000000E-02 0. -1.
          2   -1    0    0  501    0  0.00000000000E+00 -0.00000000000E+00 -0.27561254655E+03  0.27561254656E+03  0.25500000000E-02 0.  1.
    5000001    1    1    2    0    0  0.58700294528E+02  0.15436836461E+03 -0.49342460622E+02  0.26326981405E+03  0.19900000000E+03 0.  0.
   -5000001    1    1    2    0    0 -0.58700294528E+02 -0.15436836461E+03  0.20829223480E+02  0.25944204193E+03  0.19900000000E+03 0.  0.
<mgrwt>
<rscale>  0 0.52193360E+03</rscale>
<asrwt>0</asrwt>
<pdfrwt beam="1">  1        2 0.39373221E-01 0.52193360E+03</pdfrwt>
<pdfrwt beam="2">  1       -2 0.35299902E-01 0.52193360E+03</pdfrwt>
<totfact> 0.98960645E+02</totfact>
</mgrwt>
</event>
<event>
 4    1  0.5080671E-005  0.6572502E+03  0.7818608E-02  0.9793269E-01
          2   -1    0    0  501    0  0.00000000000E+00  0.00000000000E+00  0.14992499027E+04  0.14992499027E+04  0.25500000000E-02 0.  1.
         -2   -1    0    0    0  501 -0.00000000000E+00 -0.00000000000E+00 -0.72032324455E+02  0.72032324500E+02  0.25500000000E-02 0. -1.
    5000001    1    1    2    0    0 -0.33464363936E+01 -0.20958674355E+03  0.10874723272E+04  0.11252265834E+04  0.19900000000E+03 0.  0.
   -5000001    1    1    2    0    0  0.33464363936E+01  0.20958674355E+03  0.33974525108E+03  0.44605564377E+03  0.19900000000E+03 0.  0.
<mgrwt>
<rscale>  0 0.65725020E+03</rscale>
<asrwt>0</asrwt>
<pdfrwt beam="1">  1        2 0.21417856E+00 0.65725020E+03</pdfrwt>
<pdfrwt beam="2">  1       -2 0.10290332E-01 0.65725020E+03</pdfrwt>
<totfact> 0.97114511E+02</totfact>
</mgrwt>
</event>
<event>
 4    1  0.5080671E-005  0.7046913E+03  0.7818608E-02  0.9709243E-01
          2   -1    0    0  501    0  0.00000000000E+00  0.00000000000E+00  0.96052688049E+03  0.96052688049E+03  0.25500000000E-02 0.  1.
         -2   -1    0    0    0  501 -0.00000000000E+00 -0.00000000000E+00 -0.12924932208E+03  0.12924932211E+03  0.25500000000E-02 0. -1.
    5000001    1    1    2    0    0  0.28576778064E+03  0.26498643274E+02  0.48786099359E+03  0.59997895931E+03  0.19900000000E+03 0.  0.
   -5000001    1    1    2    0    0 -0.28576778064E+03 -0.26498643274E+02  0.34341656482E+03  0.48979724329E+03  0.19900000000E+03 0.  0.
<mgrwt>
<rscale>  0 0.70469127E+03</rscale>
<asrwt>0</asrwt>
<pdfrwt beam="1">  1        2 0.13721813E+00 0.70469127E+03</pdfrwt>
<pdfrwt beam="2">  1       -2 0.18464189E-01 0.70469127E+03</pdfrwt>
<totfact> 0.73226481E+02</totfact>
</mgrwt>
</event>
<event>
 4    1  0.5080671E-005  0.1418315E+04  0.7818608E-02  0.8940667E-01
          2   -1    0    0  501    0  0.00000000000E+00  0.00000000000E+00  0.12555709692E+04  0.12555709692E+04  0.25500000000E-02 0.  1.
         -2   -1    0    0    0  501 -0.00000000000E+00 -0.00000000000E+00 -0.40053865038E+03  0.40053865038E+03  0.25500000000E-02 0. -1.
    5000001    1    1    2    0    0  0.29565800732E+03  0.29478098490E+03 -0.20019638961E+03  0.50397329370E+03  0.19900000000E+03 0.  0.
   -5000001    1    1    2    0    0 -0.29565800732E+03 -0.29478098490E+03  0.10552287085E+04  0.11521363259E+04  0.19900000000E+03 0.  0.
<mgrwt>
<rscale>  0 0.14183155E+04</rscale>
<asrwt>0</asrwt>
<pdfrwt beam="1">  1        2 0.17936728E+00 0.14183155E+04</pdfrwt>
<pdfrwt beam="2">  1       -2 0.57219808E-01 0.14183155E+04</pdfrwt>
<totfact> 0.55364816E+01</totfact>
</mgrwt>
</event>
<event>
 4    1  0.5080671E-005  0.6623312E+03  0.7818608E-02  0.9783912E-01
          2   -1    0    0  501    0  0.00000000000E+00  0.00000000000E+00  0.10715550073E+04  0.10715550074E+04  0.25500000000E-02 0.  1.
         -2   -1    0    0    0  501 -0.00000000000E+00 -0.00000000000E+00 -0.10234720602E+03  0.10234720606E+03  0.25500000000E-02 0. -1.
    5000001    1    1    2    0    0 -0.25560682383E+03 -0.50474655791E+02  0.40171560964E+03  0.51851612346E+03  0.19900000000E+03 0.  0.
   -5000001    1    1    2    0    0  0.25560682383E+03  0.50474655791E+02  0.56749219169E+03  0.65538608994E+03  0.19900000000E+03 0.  0.
<mgrwt>
<rscale>  0 0.66233122E+03</rscale>
<asrwt>0</asrwt>
<pdfrwt beam="1">  1        2 0.15307928E+00 0.66233122E+03</pdfrwt>
<pdfrwt beam="2">  1       -2 0.14621030E-01 0.66233122E+03</pdfrwt>
<totfact> 0.93446605E+02</totfact>
</mgrwt>
</event>
<event>
 4    1  0.5080671E-005  0.6472865E+03  0.7818608E-02  0.9811884E-01
         -2   -1    0    0    0  501 -0.00000000000E+00  0.00000000000E+00  0.33064500645E+03  0.33064500646E+03  0.25500000000E-02 0. -1.
          2   -1    0    0  501    0  0.00000000000E+00 -0.00000000000E+00 -0.31678975489E+03  0.31678975490E+03  0.25500000000E-02 0.  1.
    5000001    1    1    2    0    0  0.20462413296E+03  0.80418634564E+02 -0.12273909329E+03  0.32094248332E+03  0.19900000000E+03 0.  0.
   -5000001    1    1    2    0    0 -0.20462413296E+03 -0.80418634564E+02  0.13659434485E+03  0.32649227804E+03  0.19900000000E+03 0.  0.
<mgrwt>
<rscale>  0 0.64728649E+03</rscale>
<asrwt>0</asrwt>
<pdfrwt beam="1">  1        2 0.45255679E-01 0.64728649E+03</pdfrwt>
<pdfrwt beam="2">  1       -2 0.47235001E-01 0.64728649E+03</pdfrwt>
<totfact> 0.48050068E+02</totfact>
</mgrwt>
</event>
<event>
 4    1  0.5080671E-005  0.4763797E+03  0.7818608E-02  0.1020135E+00
         -2   -1    0    0    0  501 -0.00000000000E+00  0.00000000000E+00  0.77882339776E+03  0.77882339776E+03  0.25500000000E-02 0. -1.
          2   -1    0    0  501    0  0.00000000000E+00 -0.00000000000E+00 -0.72846299556E+02  0.72846299600E+02  0.25500000000E-02 0.  1.
    5000001    1    1    2    0    0 -0.72169533581E+02 -0.58402313446E+02  0.51795214488E+03  0.56257861333E+03  0.19900000000E+03 0.  0.
   -5000001    1    1    2    0    0  0.72169533581E+02  0.58402313446E+02  0.18802495332E+03  0.28909108403E+03  0.19900000000E+03 0.  0.
<mgrwt>
<rscale>  0 0.47637969E+03</rscale>
<asrwt>0</asrwt>
<pdfrwt beam="1">  1        2 0.10406614E-01 0.47637969E+03</pdfrwt>
<pdfrwt beam="2">  1       -2 0.11126049E+00 0.47637969E+03</pdfrwt>
<totfact> 0.40814874E+02</totfact>
</mgrwt>
</event>
<event>
 4    1  0.5080671E-005  0.5215441E+03  0.7818608E-02  0.1008304E+00
          2   -1    0    0  501    0  0.00000000000E+00  0.00000000000E+00  0.28410882356E+03  0.28410882357E+03  0.25500000000E-02 0.  1.
         -2   -1    0    0    0  501 -0.00000000000E+00 -0.00000000000E+00 -0.23935212829E+03  0.23935212830E+03  0.25500000000E-02 0. -1.
    5000001    1    1    2    0    0 -0.15738854791E+02  0.16177263421E+03 -0.22315701414E+02  0.25790906781E+03  0.19900000000E+03 0.  0.
   -5000001    1    1    2    0    0  0.15738854791E+02 -0.16177263421E+03  0.67072396688E+02  0.26555188406E+03  0.19900000000E+03 0.  0.
<mgrwt>
<rscale>  0 0.52154406E+03</rscale>
<asrwt>0</asrwt>
<pdfrwt beam="1">  1        2 0.40586975E-01 0.52154406E+03</pdfrwt>
<pdfrwt beam="2">  1       -2 0.34193161E-01 0.52154406E+03</pdfrwt>
<totfact> 0.10163958E+03</totfact>
</mgrwt>
</event>
<event>
 4    1  0.5080671E-005  0.7855442E+03  0.7818608E-02  0.9581180E-01
          2   -1    0    0  501    0  0.00000000000E+00  0.00000000000E+00  0.30332347919E+03  0.30332347920E+03  0.25500000000E-02 0.  1.
         -2   -1    0    0    0  501 -0.00000000000E+00 -0.00000000000E+00 -0.50859871723E+03  0.50859871724E+03  0.25500000000E-02 0. -1.
    5000001    1    1    2    0    0 -0.13818982684E+03  0.30770888007E+03 -0.13343323856E+03  0.41374703899E+03  0.19900000000E+03 0.  0.
   -5000001    1    1    2    0    0  0.13818982684E+03 -0.30770888007E+03 -0.71841999478E+02  0.39817515745E+03  0.19900000000E+03 0.  0.
<mgrwt>
<rscale>  0 0.78554423E+03</rscale>
<asrwt>0</asrwt>
<pdfrwt beam="1">  1        2 0.43331926E-01 0.78554423E+03</pdfrwt>
<pdfrwt beam="2">  1       -2 0.72656959E-01 0.78554423E+03</pdfrwt>
<totfact> 0.20334440E+02</totfact>
</mgrwt>
</event>
<event>
 4    1  0.5080671E-005  0.8321193E+03  0.7818608E-02  0.9514655E-01
          2   -1    0    0  501    0  0.00000000000E+00  0.00000000000E+00  0.12865471572E+04  0.12865471572E+04  0.25500000000E-02 0.  1.
         -2   -1    0    0    0  501 -0.00000000000E+00 -0.00000000000E+00 -0.13455056918E+03  0.13455056920E+03  0.25500000000E-02 0. -1.
    5000001    1    1    2    0    0 -0.12957701199E+03  0.20849512086E+03  0.10381930862E+04  0.10852217753E+04  0.19900000000E+03 0.  0.
   -5000001    1    1    2    0    0  0.12957701199E+03 -0.20849512086E+03  0.11380350179E+03  0.33587595102E+03  0.19900000000E+03 0.  0.
<mgrwt>
<rscale>  0 0.83211935E+03</rscale>
<asrwt>0</asrwt>
<pdfrwt beam="1">  1        2 0.18379245E+00 0.83211935E+03</pdfrwt>
<pdfrwt beam="2">  1       -2 0.19221510E-01 0.83211935E+03</pdfrwt>
<totfact> 0.43835669E+02</totfact>
</mgrwt>
</event>
<event>
 4    1  0.5080671E-005  0.5396063E+03  0.7818608E-02  0.1003929E+00
         -2   -1    0    0    0  501 -0.00000000000E+00  0.00000000000E+00  0.71509125709E+02  0.71509125754E+02  0.25500000000E-02 0.  1.
          2   -1    0    0  501    0  0.00000000000E+00 -0.00000000000E+00 -0.10179644687E+04  0.10179644687E+04  0.25500000000E-02 0. -1.
    5000001    1    1    2    0    0 -0.18198241470E+03 -0.84955586796E+01 -0.46974499718E+03  0.54171130333E+03  0.19900000000E+03 0.  0.
   -5000001    1    1    2    0    0  0.18198241470E+03  0.84955586796E+01 -0.47671034579E+03  0.54776229111E+03  0.19900000000E+03 0.  0.
<mgrwt>
<rscale>  0 0.53960633E+03</rscale>
<asrwt>0</asrwt>
<pdfrwt beam="1">  1        2 0.14542349E+00 0.53960633E+03</pdfrwt>
<pdfrwt beam="2">  1       -2 0.10215590E-01 0.53960633E+03</pdfrwt>
<totfact> 0.18219765E+03</totfact>
</mgrwt>
</event>
<event>
 4    1  0.5080671E-005  0.7585787E+03  0.7818608E-02  0.9621987E-01
          2   -1    0    0  501    0  0.00000000000E+00  0.00000000000E+00  0.49630236542E+03  0.49630236542E+03  0.25500000000E-02 0.  1.
         -2   -1    0    0    0  501 -0.00000000000E+00 -0.00000000000E+00 -0.28986447499E+03  0.28986447500E+03  0.25500000000E-02 0. -1.
    5000001    1    1    2    0    0  0.46003152176E+02  0.31844848388E+03  0.75146991773E+02  0.38571206524E+03  0.19900000000E+03 0.  0.
   -5000001    1    1    2    0    0 -0.46003152176E+02 -0.31844848388E+03  0.13129089866E+03  0.40045477518E+03  0.19900000000E+03 0.  0.
<mgrwt>
<rscale>  0 0.75857874E+03</rscale>
<asrwt>0</asrwt>
<pdfrwt beam="1">  1        2 0.70900338E-01 0.75857874E+03</pdfrwt>
<pdfrwt beam="2">  1       -2 0.41409211E-01 0.75857874E+03</pdfrwt>
<totfact> 0.37639522E+02</totfact>
</mgrwt>
</event>
<event>
 4    1  0.5080671E-005  0.5875099E+03  0.7818608E-02  0.9931663E-01
         -2   -1    0    0    0  501 -0.00000000000E+00  0.00000000000E+00  0.48144576319E+02  0.48144576386E+02  0.25500000000E-02 0. -1.
          2   -1    0    0  501    0  0.00000000000E+00 -0.00000000000E+00 -0.17923506051E+04  0.17923506051E+04  0.25500000000E-02 0.  1.
    5000001    1    1    2    0    0 -0.13025996202E+03 -0.13713364651E+03 -0.11994319663E+04  0.12304516799E+04  0.19900000000E+03 0.  0.
   -5000001    1    1    2    0    0  0.13025996202E+03  0.13713364651E+03 -0.54477406245E+03  0.61004350159E+03  0.19900000000E+03 0.  0.
<mgrwt>
<rscale>  0 0.58750987E+03</rscale>
<asrwt>0</asrwt>
<pdfrwt beam="1">  1        2 0.25605004E+00 0.58750987E+03</pdfrwt>
<pdfrwt beam="2">  1       -2 0.68777978E-02 0.58750987E+03</pdfrwt>
<totfact> 0.13139647E+03</totfact>
</mgrwt>
</event>
<event>
 4    1  0.5080671E-005  0.4498443E+03  0.7818608E-02  0.1027768E+00
          2   -1    0    0  501    0  0.00000000000E+00  0.00000000000E+00  0.89669336347E+03  0.89669336347E+03  0.25500000000E-02 0.  1.
         -2   -1    0    0    0  501 -0.00000000000E+00 -0.00000000000E+00 -0.56418356291E+02  0.56418356349E+02  0.25500000000E-02 0. -1.
    5000001    1    1    2    0    0 -0.84965953370E+02 -0.56136780276E+02  0.47282667939E+03  0.52300728491E+03  0.19900000000E+03 0.  0.
   -5000001    1    1    2    0    0  0.84965953370E+02  0.56136780276E+02  0.36744832779E+03  0.43010443491E+03  0.19900000000E+03 0.  0.
<mgrwt>
<rscale>  0 0.44984427E+03</rscale>
<asrwt>0</asrwt>
<pdfrwt beam="1">  1        2 0.12809906E+00 0.44984427E+03</pdfrwt>
<pdfrwt beam="2">  1       -2 0.80597647E-02 0.44984427E+03</pdfrwt>
<totfact> 0.31658738E+03</totfact>
</mgrwt>
</event>
<event>
 4    1  0.5080671E-005  0.7069571E+03  0.7818608E-02  0.9705408E-01
         -2   -1    0    0    0  501 -0.00000000000E+00  0.00000000000E+00  0.99559486638E+02  0.99559486671E+02  0.25500000000E-02 0. -1.
          2   -1    0    0  501    0  0.00000000000E+00 -0.00000000000E+00 -0.12549992240E+04  0.12549992240E+04  0.25500000000E-02 0.  1.
    5000001    1    1    2    0    0  0.29101099066E+03  0.17595666301E+02 -0.54192145794E+03  0.64674328039E+03  0.19900000000E+03 0.  0.
   -5000001    1    1    2    0    0 -0.29101099066E+03 -0.17595666301E+02 -0.61351827938E+03  0.70781543024E+03  0.19900000000E+03 0.  0.
<mgrwt>
<rscale>  0 0.70695708E+03</rscale>
<asrwt>0</asrwt>
<pdfrwt beam="1">  1        2 0.17928559E+00 0.70695708E+03</pdfrwt>
<pdfrwt beam="2">  1       -2 0.14222785E-01 0.70695708E+03</pdfrwt>
<totfact> 0.76789376E+02</totfact>
</mgrwt>
</event>
<event>
 4    1  0.5080671E-005  0.7197598E+03  0.7818608E-02  0.9684025E-01
          2   -1    0    0  501    0  0.00000000000E+00  0.00000000000E+00  0.29837458852E+03  0.29837458853E+03  0.25500000000E-02 0.  1.
         -2   -1    0    0    0  501 -0.00000000000E+00 -0.00000000000E+00 -0.43406358076E+03  0.43406358077E+03  0.25500000000E-02 0. -1.
    5000001    1    1    2    0    0  0.93923994979E+02 -0.26904474031E+03 -0.16279265704E+03  0.38380885647E+03  0.19900000000E+03 0.  0.
   -5000001    1    1    2    0    0 -0.93923994979E+02  0.26904474031E+03  0.27103664800E+02  0.34862931283E+03  0.19900000000E+03 0.  0.
<mgrwt>
<rscale>  0 0.71975980E+03</rscale>
<asrwt>0</asrwt>
<pdfrwt beam="1">  1        2 0.42624941E-01 0.71975980E+03</pdfrwt>
<pdfrwt beam="2">  1       -2 0.62009083E-01 0.71975980E+03</pdfrwt>
<totfact> 0.29229226E+02</totfact>
</mgrwt>
</event>
<event>
 4    1  0.5080671E-005  0.4828865E+03  0.7818608E-02  0.1018345E+00
          2   -1    0    0  501    0  0.00000000000E+00  0.00000000000E+00  0.30825884431E+04  0.30825884431E+04  0.25500000000E-02 0.  1.
         -2   -1    0    0    0  501 -0.00000000000E+00 -0.00000000000E+00 -0.18911005452E+02  0.18911005624E+02  0.25500000000E-02 0. -1.
    5000001    1    1    2    0    0 -0.86321425986E+02  0.93527921749E+02  0.12110192471E+04  0.12338425659E+04  0.19900000000E+03 0.  0.
   -5000001    1    1    2    0    0  0.86321425986E+02 -0.93527921749E+02  0.18526581905E+04  0.18676568827E+04  0.19900000000E+03 0.  0.
<mgrwt>
<rscale>  0 0.48288652E+03</rscale>
<asrwt>0</asrwt>
<pdfrwt beam="1">  1        2 0.44037013E+00 0.48288652E+03</pdfrwt>
<pdfrwt beam="2">  1       -2 0.27015701E-02 0.48288652E+03</pdfrwt>
<totfact> 0.12096061E+03</totfact>
</mgrwt>
</event>
<event>
 4    1  0.5080671E-005  0.7548456E+03  0.7818608E-02  0.9627779E-01
          2   -1    0    0  501    0  0.00000000000E+00  0.00000000000E+00  0.21192142921E+04  0.21192142921E+04  0.25500000000E-02 0.  1.
         -2   -1    0    0    0  501 -0.00000000000E+00 -0.00000000000E+00 -0.67217345084E+02  0.67217345133E+02  0.25500000000E-02 0. -1.
    5000001    1    1    2    0    0 -0.15323513479E+03 -0.27954391749E+03  0.11272175374E+04  0.11882113385E+04  0.19900000000E+03 0.  0.
   -5000001    1    1    2    0    0  0.15323513479E+03  0.27954391749E+03  0.92477940964E+03  0.99822029875E+03  0.19900000000E+03 0.  0.
<mgrwt>
<rscale>  0 0.75484557E+03</rscale>
<asrwt>0</asrwt>
<pdfrwt beam="1">  1        2 0.30274481E+00 0.75484557E+03</pdfrwt>
<pdfrwt beam="2">  1       -2 0.96024806E-02 0.75484557E+03</pdfrwt>
<totfact> 0.52194128E+02</totfact>
</mgrwt>
</event>
<event>
 4    1  0.5080671E-005  0.5502526E+03  0.7818608E-02  0.1001435E+00
         -2   -1    0    0    0  501 -0.00000000000E+00  0.00000000000E+00  0.27522533226E+02  0.27522533345E+02  0.25500000000E-02 0. -1.
          2   -1    0    0  501    0  0.00000000000E+00 -0.00000000000E+00 -0.27502731618E+04  0.27502731618E+04  0.25500000000E-02 0.  1.
    5000001    1    1    2    0    0 -0.52242443434E+02 -0.10613223090E+03 -0.61090086906E+03  0.65329487611E+03  0.19900000000E+03 0.  0.
   -5000001    1    1    2    0    0  0.52242443434E+02  0.10613223090E+03 -0.21118497595E+04  0.21245008191E+04  0.19900000000E+03 0.  0.
<mgrwt>
<rscale>  0 0.55025261E+03</rscale>
<asrwt>0</asrwt>
<pdfrwt beam="1">  1        2 0.39289599E+00 0.55025261E+03</pdfrwt>
<pdfrwt beam="2">  1       -2 0.39317922E-02 0.55025261E+03</pdfrwt>
<totfact> 0.10241890E+03</totfact>
</mgrwt>
</event>
<event>
 4    1  0.5080671E-005  0.5112100E+03  0.7818608E-02  0.1010894E+00
          2   -1    0    0  501    0  0.00000000000E+00  0.00000000000E+00  0.14852779574E+03  0.14852779576E+03  0.25500000000E-02 0.  1.
         -2   -1    0    0    0  501 -0.00000000000E+00 -0.00000000000E+00 -0.43987665105E+03  0.43987665106E+03  0.25500000000E-02 0. -1.
    5000001    1    1    2    0    0  0.14681065538E+03 -0.11063106215E+02 -0.21898845573E+03  0.33050371344E+03  0.19900000000E+03 0.  0.
   -5000001    1    1    2    0    0 -0.14681065538E+03  0.11063106215E+02 -0.72360399573E+02  0.25790073338E+03  0.19900000000E+03 0.  0.
<mgrwt>
<rscale>  0 0.51120997E+03</rscale>
<asrwt>0</asrwt>
<pdfrwt beam="1">  1        2 0.21218257E-01 0.51120997E+03</pdfrwt>
<pdfrwt beam="2">  1       -2 0.62839521E-01 0.51120997E+03</pdfrwt>
<totfact> 0.62650420E+02</totfact>
</mgrwt>
</event>
<event>
 4    1  0.5080671E-005  0.4651968E+03  0.7818608E-02  0.1023285E+00
         -2   -1    0    0    0  501 -0.00000000000E+00  0.00000000000E+00  0.19711837843E+03  0.19711837845E+03  0.25500000000E-02 0. -1.
          2   -1    0    0  501    0  0.00000000000E+00 -0.00000000000E+00 -0.27446462384E+03  0.27446462385E+03  0.25500000000E-02 0.  1.
    5000001    1    1    2    0    0 -0.94216809356E+02  0.16514557188E+02 -0.11283120822E+03  0.24795447024E+03  0.19900000000E+03 0.  0.
   -5000001    1    1    2    0    0  0.94216809356E+02 -0.16514557188E+02  0.35484962813E+02  0.22362853206E+03  0.19900000000E+03 0.  0.
<mgrwt>
<rscale>  0 0.46519683E+03</rscale>
<asrwt>0</asrwt>
<pdfrwt beam="1">  1        2 0.39209232E-01 0.46519683E+03</pdfrwt>
<pdfrwt beam="2">  1       -2 0.28159768E-01 0.46519683E+03</pdfrwt>
<totfact> 0.15114304E+03</totfact>
</mgrwt>
</event>
<event>
 4    1  0.5080671E-005  0.7082087E+03  0.7818608E-02  0.9703296E-01
          2   -1    0    0  501    0  0.00000000000E+00  0.00000000000E+00  0.39421264790E+03  0.39421264791E+03  0.25500000000E-02 0.  1.
         -2   -1    0    0    0  501 -0.00000000000E+00 -0.00000000000E+00 -0.31807678877E+03  0.31807678878E+03  0.25500000000E-02 0. -1.
    5000001    1    1    2    0    0 -0.16614257164E+03  0.12013640149E+03 -0.17230898849E+03  0.33365775368E+03  0.19900000000E+03 0.  0.
   -5000001    1    1    2    0    0  0.16614257164E+03 -0.12013640149E+03  0.24844484761E+03  0.37863168301E+03  0.19900000000E+03 0.  0.
<mgrwt>
<rscale>  0 0.70820871E+03</rscale>
<asrwt>0</asrwt>
<pdfrwt beam="1">  1        2 0.56316092E-01 0.70820871E+03</pdfrwt>
<pdfrwt beam="2">  1       -2 0.45439542E-01 0.70820871E+03</pdfrwt>
<totfact> 0.40675170E+02</totfact>
</mgrwt>
</event>
<event>
 4    1  0.5080671E-005  0.1308592E+04  0.7818608E-02  0.9022779E-01
         -2   -1    0    0    0  501 -0.00000000000E+00  0.00000000000E+00  0.98677373982E+03  0.98677373982E+03  0.25500000000E-02 0. -1.
          2   -1    0    0  501    0  0.00000000000E+00 -0.00000000000E+00 -0.43384135753E+03  0.43384135753E+03  0.25500000000E-02 0.  1.
    5000001    1    1    2    0    0 -0.42008666894E+03 -0.45155714796E+03  0.37432493965E+03  0.74839617032E+03  0.19900000000E+03 0.  0.
   -5000001    1    1    2    0    0  0.42008666894E+03  0.45155714796E+03  0.17860744264E+03  0.67221892704E+03  0.19900000000E+03 0.  0.
<mgrwt>
<rscale>  0 0.13085920E+04</rscale>
<asrwt>0</asrwt>
<pdfrwt beam="1">  1        2 0.61977338E-01 0.13085920E+04</pdfrwt>
<pdfrwt beam="2">  1       -2 0.14096767E+00 0.13085920E+04</pdfrwt>
<totfact> 0.27291697E+01</totfact>
</mgrwt>
</event>
<event>
 4    1  0.5080671E-005  0.7020083E+03  0.7818608E-02  0.9713804E-01
         -2   -1    0    0    0  501 -0.00000000000E+00  0.00000000000E+00  0.17890841226E+03  0.17890841228E+03  0.25500000000E-02 0. -1.
          2   -1    0    0  501    0  0.00000000000E+00 -0.00000000000E+00 -0.68864235887E+03  0.68864235887E+03  0.25500000000E-02 0.  1.
    5000001    1    1    2    0    0  0.20556255163E+03 -0.17442776833E+03 -0.38401916959E+03  0.50965942708E+03  0.19900000000E+03 0.  0.
   -5000001    1    1    2    0    0 -0.20556255163E+03  0.17442776833E+03 -0.12571477701E+03  0.35789134407E+03  0.19900000000E+03 0.  0.
<mgrwt>
<rscale>  0 0.70200829E+03</rscale>
<asrwt>0</asrwt>
<pdfrwt beam="1">  1        2 0.98377478E-01 0.70200829E+03</pdfrwt>
<pdfrwt beam="2">  1       -2 0.25558345E-01 0.70200829E+03</pdfrwt>
<totfact> 0.63471625E+02</totfact>
</mgrwt>
</event>
<event>
 4    1  0.5080671E-005  0.4927747E+03  0.7818608E-02  0.1015682E+00
          2   -1    0    0  501    0  0.00000000000E+00  0.00000000000E+00  0.72377508274E+03  0.72377508275E+03  0.25500000000E-02 0.  1.
         -2   -1    0    0    0  501 -0.00000000000E+00 -0.00000000000E+00 -0.83875139911E+02  0.83875139950E+02  0.25500000000E-02 0. -1.
    5000001    1    1    2    0    0 -0.44729709855E+02 -0.13744122066E+03  0.34397662883E+03  0.42286139249E+03  0.19900000000E+03 0.  0.
   -5000001    1    1    2    0    0  0.44729709855E+02  0.13744122066E+03  0.29592331401E+03  0.38478883021E+03  0.19900000000E+03 0.  0.
<mgrwt>
<rscale>  0 0.49277474E+03</rscale>
<asrwt>0</asrwt>
<pdfrwt beam="1">  1        2 0.10339644E+00 0.49277474E+03</pdfrwt>
<pdfrwt beam="2">  1       -2 0.11982163E-01 0.49277474E+03</pdfrwt>
<totfact> 0.21963882E+03</totfact>
</mgrwt>
</event>
<event>
 4    1  0.5080671E-005  0.9861184E+03  0.7818608E-02  0.9323902E-01
         -2   -1    0    0    0  501 -0.00000000000E+00  0.00000000000E+00  0.13285087224E+04  0.13285087224E+04  0.25500000000E-02 0. -1.
          2   -1    0    0  501    0  0.00000000000E+00 -0.00000000000E+00 -0.18299267267E+03  0.18299267268E+03  0.25500000000E-02 0.  1.
    5000001    1    1    2    0    0 -0.16240680647E+03  0.41970911459E+03  0.62061044144E+03  0.79201643397E+03  0.19900000000E+03 0.  0.
   -5000001    1    1    2    0    0  0.16240680647E+03 -0.41970911459E+03  0.52490560831E+03  0.71948496113E+03  0.19900000000E+03 0.  0.
<mgrwt>
<rscale>  0 0.98611837E+03</rscale>
<asrwt>0</asrwt>
<pdfrwt beam="1">  1        2 0.26141809E-01 0.98611837E+03</pdfrwt>
<pdfrwt beam="2">  1       -2 0.18978697E+00 0.98611837E+03</pdfrwt>
<totfact> 0.32411734E+01</totfact>
</mgrwt>
</event>
<event>
 4    1  0.5080671E-005  0.8233231E+03  0.7818608E-02  0.9526858E-01
          2   -1    0    0  501    0  0.00000000000E+00  0.00000000000E+00  0.26426968432E+04  0.26426968432E+04  0.25500000000E-02 0.  1.
         -2   -1    0    0    0  501 -0.00000000000E+00 -0.00000000000E+00 -0.64125870759E+02  0.64125870809E+02  0.25500000000E-02 0. -1.
    5000001    1    1    2    0    0 -0.72703483081E+02 -0.35250365061E+03  0.12305089674E+04  0.12974197236E+04  0.19900000000E+03 0.  0.
   -5000001    1    1    2    0    0  0.72703483081E+02  0.35250365061E+03  0.13480620050E+04  0.14094029904E+04  0.19900000000E+03 0.  0.
<mgrwt>
<rscale>  0 0.82332311E+03</rscale>
<asrwt>0</asrwt>
<pdfrwt beam="1">  1        2 0.37752808E+00 0.82332311E+03</pdfrwt>
<pdfrwt beam="2">  1       -2 0.91608397E-02 0.82332311E+03</pdfrwt>
<totfact> 0.30165904E+02</totfact>
</mgrwt>
</event>
<event>
 4    1  0.5080671E-005  0.6531252E+03  0.7818608E-02  0.9800933E-01
         -2   -1    0    0    0  501 -0.00000000000E+00  0.00000000000E+00  0.10435932524E+04  0.10435932524E+04  0.25500000000E-02 0. -1.
          2   -1    0    0  501    0  0.00000000000E+00 -0.00000000000E+00 -0.10218841301E+03  0.10218841304E+03  0.25500000000E-02 0.  1.
    5000001    1    1    2    0    0 -0.13317459230E+03 -0.33423746835E+02  0.85595154433E+02  0.25647641090E+03  0.19900000000E+03 0.  0.
   -5000001    1    1    2    0    0  0.13317459230E+03  0.33423746835E+02  0.85580968494E+03  0.88930525452E+03  0.19900000000E+03 0.  0.
<mgrwt>
<rscale>  0 0.65312522E+03</rscale>
<asrwt>0</asrwt>
<pdfrwt beam="1">  1        2 0.14598345E-01 0.65312522E+03</pdfrwt>
<pdfrwt beam="2">  1       -2 0.14908474E+00 0.65312522E+03</pdfrwt>
<totfact> 0.12809460E+02</totfact>
</mgrwt>
</event>
<event>
 4    1  0.5080671E-005  0.6025250E+03  0.7818608E-02  0.9900181E-01
          2   -1    0    0  501    0  0.00000000000E+00  0.00000000000E+00  0.51666969354E+03  0.51666969355E+03  0.25500000000E-02 0.  1.
         -2   -1    0    0    0  501 -0.00000000000E+00 -0.00000000000E+00 -0.17566175273E+03  0.17566175274E+03  0.25500000000E-02 0. -1.
    5000001    1    1    2    0    0  0.82479503225E+02  0.12280228720E+03 -0.26097237349E+02  0.24932977358E+03  0.19900000000E+03 0.  0.
   -5000001    1    1    2    0    0 -0.82479503225E+02 -0.12280228720E+03  0.36710517817E+03  0.44300167272E+03  0.19900000000E+03 0.  0.
<mgrwt>
<rscale>  0 0.60252503E+03</rscale>
<asrwt>0</asrwt>
<pdfrwt beam="1">  1        2 0.73809956E-01 0.60252503E+03</pdfrwt>
<pdfrwt beam="2">  1       -2 0.25094536E-01 0.60252503E+03</pdfrwt>
<totfact> 0.92267885E+02</totfact>
</mgrwt>
</event>
<event>
 4    1  0.5080671E-005  0.5090711E+03  0.7818608E-02  0.1011438E+00
         -2   -1    0    0    0  501 -0.00000000000E+00  0.00000000000E+00  0.24998758720E+02  0.24998758850E+02  0.25500000000E-02 0. -1.
          2   -1    0    0  501    0  0.00000000000E+00 -0.00000000000E+00 -0.25916628120E+04  0.25916628120E+04  0.25500000000E-02 0.  1.
    5000001    1    1    2    0    0 -0.14227235429E+03  0.58405568423E+02 -0.10819671575E+04  0.11108134691E+04  0.19900000000E+03 0.  0.
   -5000001    1    1    2    0    0  0.14227235429E+03 -0.58405568423E+02 -0.14846968958E+04  0.15058481017E+04  0.19900000000E+03 0.  0.
<mgrwt>
<rscale>  0 0.50907113E+03</rscale>
<asrwt>0</asrwt>
<pdfrwt beam="1">  1        2 0.37023737E+00 0.50907113E+03</pdfrwt>
<pdfrwt beam="2">  1       -2 0.35712529E-02 0.50907113E+03</pdfrwt>
<totfact> 0.14387352E+03</totfact>
</mgrwt>
</event>
<event>
 4    1  0.5080671E-005  0.5169883E+03  0.7818608E-02  0.1009437E+00
          2   -1    0    0  501    0  0.00000000000E+00  0.00000000000E+00  0.69052871154E+03  0.69052871155E+03  0.25500000000E-02 0.  1.
         -2   -1    0    0    0  501 -0.00000000000E+00 -0.00000000000E+00 -0.96765321442E+02  0.96765321475E+02  0.25500000000E-02 0. -1.
    5000001    1    1    2    0    0  0.14075052451E+03  0.65066394539E+02  0.21108867705E+03  0.32894342283E+03  0.19900000000E+03 0.  0.
   -5000001    1    1    2    0    0 -0.14075052451E+03 -0.65066394539E+02  0.38267471306E+03  0.45835061019E+03  0.19900000000E+03 0.  0.
<mgrwt>
<rscale>  0 0.51698833E+03</rscale>
<asrwt>0</asrwt>
<pdfrwt beam="1">  1        2 0.98646958E-01 0.51698833E+03</pdfrwt>
<pdfrwt beam="2">  1       -2 0.13823617E-01 0.51698833E+03</pdfrwt>
<totfact> 0.18371823E+03</totfact>
</mgrwt>
</event>
<event>
 4    1  0.5080671E-005  0.5079958E+03  0.7818608E-02  0.1011713E+00
         -2   -1    0    0    0  501 -0.00000000000E+00  0.00000000000E+00  0.17416560632E+03  0.17416560634E+03  0.25500000000E-02 0. -1.
          2   -1    0    0  501    0  0.00000000000E+00 -0.00000000000E+00 -0.37042297763E+03  0.37042297764E+03  0.25500000000E-02 0.  1.
    5000001    1    1    2    0    0 -0.15283243229E+03  0.37712840029E+02 -0.85722156594E+02  0.26782326037E+03  0.19900000000E+03 0.  0.
   -5000001    1    1    2    0    0  0.15283243229E+03 -0.37712840029E+02 -0.11053521471E+03  0.27676532361E+03  0.19900000000E+03 0.  0.
<mgrwt>
<rscale>  0 0.50799584E+03</rscale>
<asrwt>0</asrwt>
<pdfrwt beam="1">  1        2 0.52917568E-01 0.50799584E+03</pdfrwt>
<pdfrwt beam="2">  1       -2 0.24880801E-01 0.50799584E+03</pdfrwt>
<totfact> 0.13601457E+03</totfact>
</mgrwt>
</event>
<event>
 4    1  0.5080671E-005  0.4650156E+03  0.7818608E-02  0.1023337E+00
          2   -1    0    0  501    0  0.00000000000E+00  0.00000000000E+00  0.22331723769E+03  0.22331723770E+03  0.25500000000E-02 0.  1.
         -2   -1    0    0    0  501 -0.00000000000E+00 -0.00000000000E+00 -0.24207659557E+03  0.24207659558E+03  0.25500000000E-02 0. -1.
    5000001    1    1    2    0    0 -0.12819839460E+00  0.11111602522E+03  0.36615173031E+02  0.23084293013E+03  0.19900000000E+03 0.  0.
   -5000001    1    1    2    0    0  0.12819839460E+00 -0.11111602522E+03 -0.55374530909E+02  0.23455090315E+03  0.19900000000E+03 0.  0.
<mgrwt>
<rscale>  0 0.46501560E+03</rscale>
<asrwt>0</asrwt>
<pdfrwt beam="1">  1        2 0.31902462E-01 0.46501560E+03</pdfrwt>
<pdfrwt beam="2">  1       -2 0.34582371E-01 0.46501560E+03</pdfrwt>
<totfact> 0.12979190E+03</totfact>
</mgrwt>
</event>
<event>
 4    1  0.5080671E-005  0.1035140E+04  0.7818608E-02  0.9270822E-01
         -2   -1    0    0    0  501 -0.00000000000E+00  0.00000000000E+00  0.63704630213E+03  0.63704630214E+03  0.25500000000E-02 0. -1.
          2   -1    0    0  501    0  0.00000000000E+00 -0.00000000000E+00 -0.42050142537E+03  0.42050142538E+03  0.25500000000E-02 0.  1.
    5000001    1    1    2    0    0  0.34524167566E+03 -0.32748137100E+03  0.15212019111E+03  0.53775218782E+03  0.19900000000E+03 0.  0.
   -5000001    1    1    2    0    0 -0.34524167566E+03  0.32748137100E+03  0.64424685657E+02  0.51979553969E+03  0.19900000000E+03 0.  0.
<mgrwt>
<rscale>  0 0.10351403E+04</rscale>
<asrwt>0</asrwt>
<pdfrwt beam="1">  1        2 0.60071633E-01 0.10351403E+04</pdfrwt>
<pdfrwt beam="2">  1       -2 0.91006614E-01 0.10351403E+04</pdfrwt>
<totfact> 0.83990863E+01</totfact>
</mgrwt>
</event>
<event>
 4    1  0.5080671E-005  0.7673106E+03  0.7818608E-02  0.9608577E-01
          2   -1    0    0  501    0  0.00000000000E+00  0.00000000000E+00  0.41751139373E+03  0.41751139374E+03  0.25500000000E-02 0.  1.
         -2   -1    0    0    0  501 -0.00000000000E+00 -0.00000000000E+00 -0.35254462879E+03  0.35254462880E+03  0.25500000000E-02 0. -1.
    5000001    1    1    2    0    0  0.32312633687E+03 -0.55788435885E+02  0.24243025579E+02  0.38433280298E+03  0.19900000000E+03 0.  0.
   -5000001    1    1    2    0    0 -0.32312633687E+03  0.55788435885E+02  0.40723739362E+02  0.38572321956E+03  0.19900000000E+03 0.  0.
<mgrwt>
<rscale>  0 0.76731063E+03</rscale>
<asrwt>0</asrwt>
<pdfrwt beam="1">  1        2 0.59644485E-01 0.76731063E+03</pdfrwt>
<pdfrwt beam="2">  1       -2 0.50363518E-01 0.76731063E+03</pdfrwt>
<totfact> 0.30947530E+02</totfact>
</mgrwt>
</event>
<event>
 4    1  0.5080671E-005  0.4918523E+03  0.7818608E-02  0.1015928E+00
          2   -1    0    0  501    0  0.00000000000E+00  0.00000000000E+00  0.33383696424E+03  0.33383696425E+03  0.25500000000E-02 0.  1.
         -2   -1    0    0    0  501 -0.00000000000E+00 -0.00000000000E+00 -0.18116526827E+03  0.18116526829E+03  0.25500000000E-02 0. -1.
    5000001    1    1    2    0    0 -0.59326868471E+02  0.65230648926E+02 -0.43524496002E+02  0.22196868390E+03  0.19900000000E+03 0.  0.
   -5000001    1    1    2    0    0  0.59326868471E+02 -0.65230648926E+02  0.19619619197E+03  0.29303354864E+03  0.19900000000E+03 0.  0.
<mgrwt>
<rscale>  0 0.49185227E+03</rscale>
<asrwt>0</asrwt>
<pdfrwt beam="1">  1        2 0.47690995E-01 0.49185227E+03</pdfrwt>
<pdfrwt beam="2">  1       -2 0.25880753E-01 0.49185227E+03</pdfrwt>
<totfact> 0.14207961E+03</totfact>
</mgrwt>
</event>
<event>
 4    1  0.5080671E-005  0.9031960E+03  0.7818608E-02  0.9421595E-01
         -2   -1    0    0    0  501 -0.00000000000E+00  0.00000000000E+00  0.10275179758E+03  0.10275179761E+03  0.25500000000E-02 0. -1.
          2   -1    0    0  501    0  0.00000000000E+00 -0.00000000000E+00 -0.19847900672E+04  0.19847900672E+04  0.25500000000E-02 0.  1.
    5000001    1    1    2    0    0 -0.32536286519E+03 -0.24152436992E+03 -0.91321333518E+03  0.10187024153E+04  0.19900000000E+03 0.  0.
   -5000001    1    1    2    0    0  0.32536286519E+03  0.24152436992E+03 -0.96882493444E+03  0.10688394495E+04  0.19900000000E+03 0.  0.
<mgrwt>
<rscale>  0 0.90319599E+03</rscale>
<asrwt>0</asrwt>
<pdfrwt beam="1">  1        2 0.28354142E+00 0.90319599E+03</pdfrwt>
<pdfrwt beam="2">  1       -2 0.14678829E-01 0.90319599E+03</pdfrwt>
<totfact> 0.29951795E+02</totfact>
</mgrwt>
</event>
<event>
 4    1  0.5080671E-005  0.4290944E+03  0.7818608E-02  0.1034146E+00
         -2   -1    0    0    0  501 -0.00000000000E+00  0.00000000000E+00  0.30545073039E+03  0.30545073040E+03  0.25500000000E-02 0. -1.
          2   -1    0    0  501    0  0.00000000000E+00 -0.00000000000E+00 -0.15069697440E+03  0.15069697442E+03  0.25500000000E-02 0.  1.
    5000001    1    1    2    0    0 -0.20544899873E+02  0.20873203845E+02 -0.19731686529E+01  0.20115336672E+03  0.19900000000E+03 0.  0.
   -5000001    1    1    2    0    0  0.20544899873E+02 -0.20873203845E+02  0.15672692464E+03  0.25499433809E+03  0.19900000000E+03 0.  0.
<mgrwt>
<rscale>  0 0.42909440E+03</rscale>
<asrwt>0</asrwt>
<pdfrwt beam="1">  1        2 0.21528140E-01 0.42909440E+03</pdfrwt>
<pdfrwt beam="2">  1       -2 0.43635818E-01 0.42909440E+03</pdfrwt>
<totfact> 0.12943182E+03</totfact>
</mgrwt>
</event>
<event>
 4    1  0.5080671E-005  0.7386955E+03  0.7818608E-02  0.9653254E-01
         -2   -1    0    0    0  501 -0.00000000000E+00  0.00000000000E+00  0.10462707017E+04  0.10462707017E+04  0.25500000000E-02 0. -1.
          2   -1    0    0  501    0  0.00000000000E+00 -0.00000000000E+00 -0.13038476673E+03  0.13038476676E+03  0.25500000000E-02 0.  1.
    5000001    1    1    2    0    0 -0.61713680309E+02 -0.27150781794E+03  0.67918568062E+03  0.76053879736E+03  0.19900000000E+03 0.  0.
   -5000001    1    1    2    0    0  0.61713680309E+02  0.27150781794E+03  0.23670025432E+03  0.41611667106E+03  0.19900000000E+03 0.  0.
<mgrwt>
<rscale>  0 0.73869550E+03</rscale>
<asrwt>0</asrwt>
<pdfrwt beam="1">  1        2 0.18626394E-01 0.73869550E+03</pdfrwt>
<pdfrwt beam="2">  1       -2 0.14946725E+00 0.73869550E+03</pdfrwt>
<totfact> 0.94571334E+01</totfact>
</mgrwt>
</event>
<event>
 4    1  0.5080671E-005  0.5207836E+03  0.7818608E-02  0.1008492E+00
          2   -1    0    0  501    0  0.00000000000E+00  0.00000000000E+00  0.12172123212E+03  0.12172123214E+03  0.25500000000E-02 0.  1.
         -2   -1    0    0    0  501 -0.00000000000E+00 -0.00000000000E+00 -0.55704248684E+03  0.55704248684E+03  0.25500000000E-02 0. -1.
    5000001    1    1    2    0    0 -0.13827418268E+03  0.91347149425E+02 -0.18223329773E+03  0.31666074292E+03  0.19900000000E+03 0.  0.
   -5000001    1    1    2    0    0  0.13827418268E+03 -0.91347149425E+02 -0.25308795699E+03  0.36210297607E+03  0.19900000000E+03 0.  0.
<mgrwt>
<rscale>  0 0.52078363E+03</rscale>
<asrwt>0</asrwt>
<pdfrwt beam="1">  1        2 0.17388748E-01 0.52078363E+03</pdfrwt>
<pdfrwt beam="2">  1       -2 0.79577497E-01 0.52078363E+03</pdfrwt>
<totfact> 0.47356049E+02</totfact>
</mgrwt>
</event>
<event>
 4    1  0.5080671E-005  0.4174497E+03  0.7818608E-02  0.1037900E+00
         -2   -1    0    0    0  501 -0.00000000000E+00  0.00000000000E+00  0.17309118341E+03  0.17309118343E+03  0.25500000000E-02 0. -1.
          2   -1    0    0  501    0  0.00000000000E+00 -0.00000000000E+00 -0.25169424342E+03  0.25169424344E+03  0.25500000000E-02 0.  1.
    5000001    1    1    2    0    0  0.31707051501E+02  0.53968356216E+02 -0.46287585857E+02  0.21368542578E+03  0.19900000000E+03 0.  0.
   -5000001    1    1    2    0    0 -0.31707051501E+02 -0.53968356216E+02 -0.32315474153E+02  0.21110000108E+03  0.19900000000E+03 0.  0.
<mgrwt>
<rscale>  0 0.41744966E+03</rscale>
<asrwt>0</asrwt>
<pdfrwt beam="1">  1        2 0.35956320E-01 0.41744966E+03</pdfrwt>
<pdfrwt beam="2">  1       -2 0.24727312E-01 0.41744966E+03</pdfrwt>
<totfact> 0.20980064E+03</totfact>
</mgrwt>
</event>
<event>
 4    1  0.5080671E-005  0.5035216E+03  0.7818608E-02  0.1012864E+00
         -2   -1    0    0    0  501 -0.00000000000E+00  0.00000000000E+00  0.65917668397E+02  0.65917668446E+02  0.25500000000E-02 0. -1.
          2   -1    0    0  501    0  0.00000000000E+00 -0.00000000000E+00 -0.96155560600E+03  0.96155560600E+03  0.25500000000E-02 0.  1.
    5000001    1    1    2    0    0  0.14404082131E+03  0.48919782715E+02 -0.39613156900E+03  0.46868125982E+03  0.19900000000E+03 0.  0.
   -5000001    1    1    2    0    0 -0.14404082131E+03 -0.48919782715E+02 -0.49950636860E+03  0.55879201463E+03  0.19900000000E+03 0.  0.
<mgrwt>
<rscale>  0 0.50352161E+03</rscale>
<asrwt>0</asrwt>
<pdfrwt beam="1">  1        2 0.13736508E+00 0.50352161E+03</pdfrwt>
<pdfrwt beam="2">  1       -2 0.94168103E-02 0.50352161E+03</pdfrwt>
<totfact> 0.22494930E+03</totfact>
</mgrwt>
</event>
<event>
 4    1  0.5080671E-005  0.5661619E+03  0.7818608E-02  0.9978208E-01
         -2   -1    0    0    0  501 -0.00000000000E+00  0.00000000000E+00  0.29118672915E+02  0.29118673027E+02  0.25500000000E-02 0. -1.
          2   -1    0    0  501    0  0.00000000000E+00 -0.00000000000E+00 -0.27520079189E+04  0.27520079189E+04  0.25500000000E-02 0.  1.
    5000001    1    1    2    0    0 -0.34832411941E+02  0.13774363964E+03 -0.20621453721E+04  0.20765912315E+04  0.19900000000E+03 0.  0.
   -5000001    1    1    2    0    0  0.34832411941E+02 -0.13774363964E+03 -0.66074387392E+03  0.70453536044E+03  0.19900000000E+03 0.  0.
<mgrwt>
<rscale>  0 0.56616188E+03</rscale>
<asrwt>0</asrwt>
<pdfrwt beam="1">  1        2 0.39314382E+00 0.56616188E+03</pdfrwt>
<pdfrwt beam="2">  1       -2 0.41598122E-02 0.56616188E+03</pdfrwt>
<totfact> 0.93611656E+02</totfact>
</mgrwt>
</event>
<event>
 4    1  0.5080671E-005  0.5470510E+03  0.7818608E-02  0.1002179E+00
          2   -1    0    0  501    0  0.00000000000E+00  0.00000000000E+00  0.14163913861E+03  0.14163913864E+03  0.25500000000E-02 0.  1.
         -2   -1    0    0    0  501 -0.00000000000E+00 -0.00000000000E+00 -0.52821704868E+03  0.52821704868E+03  0.25500000000E-02 0. -1.
    5000001    1    1    2    0    0 -0.12080489675E+02 -0.18564928304E+03 -0.16320512557E+03  0.31756654033E+03  0.19900000000E+03 0.  0.
   -5000001    1    1    2    0    0  0.12080489675E+02  0.18564928304E+03 -0.22337278450E+03  0.35228964699E+03  0.19900000000E+03 0.  0.
<mgrwt>
<rscale>  0 0.54705103E+03</rscale>
<asrwt>0</asrwt>
<pdfrwt beam="1">  1        2 0.20234163E-01 0.54705103E+03</pdfrwt>
<pdfrwt beam="2">  1       -2 0.75459578E-01 0.54705103E+03</pdfrwt>
<totfact> 0.44563024E+02</totfact>
</mgrwt>
</event>
<event>
 4    1  0.5080671E-005  0.4942142E+03  0.7818608E-02  0.1015300E+00
          2   -1    0    0  501    0  0.00000000000E+00  0.00000000000E+00  0.12668602374E+04  0.12668602374E+04  0.25500000000E-02 0.  1.
         -2   -1    0    0    0  501 -0.00000000000E+00 -0.00000000000E+00 -0.48199405259E+02  0.48199405326E+02  0.25500000000E-02 0. -1.
    5000001    1    1    2    0    0  0.12635191009E+02 -0.12939179416E+03  0.42966425977E+03  0.49103386906E+03  0.19900000000E+03 0.  0.
   -5000001    1    1    2    0    0 -0.12635191009E+02  0.12939179416E+03  0.78899657241E+03  0.82402577370E+03  0.19900000000E+03 0.  0.
<mgrwt>
<rscale>  0 0.49421416E+03</rscale>
<asrwt>0</asrwt>
<pdfrwt beam="1">  1        2 0.18098001E+00 0.49421416E+03</pdfrwt>
<pdfrwt beam="2">  1       -2 0.68856301E-02 0.49421416E+03</pdfrwt>
<totfact> 0.24659098E+03</totfact>
</mgrwt>
</event>
<event>
 4    1  0.5080671E-005  0.7997710E+03  0.7818608E-02  0.9560349E-01
          2   -1    0    0  501    0  0.00000000000E+00  0.00000000000E+00  0.77755991593E+03  0.77755991593E+03  0.25500000000E-02 0.  1.
         -2   -1    0    0    0  501 -0.00000000000E+00 -0.00000000000E+00 -0.20565414945E+03  0.20565414947E+03  0.25500000000E-02 0. -1.
    5000001    1    1    2    0    0 -0.30146393026E+03 -0.14771586082E+03  0.39317579437E+03  0.55397534427E+03  0.19900000000E+03 0.  0.
   -5000001    1    1    2    0    0  0.30146393026E+03  0.14771586082E+03  0.17872997211E+03  0.42923872113E+03  0.19900000000E+03 0.  0.
<mgrwt>
<rscale>  0 0.79977103E+03</rscale>
<asrwt>0</asrwt>
<pdfrwt beam="1">  1        2 0.11107999E+00 0.79977103E+03</pdfrwt>
<pdfrwt beam="2">  1       -2 0.29379164E-01 0.79977103E+03</pdfrwt>
<totfact> 0.42142058E+02</totfact>
</mgrwt>
</event>
<event>
 4    1  0.5080671E-005  0.4844054E+03  0.7818608E-02  0.1017931E+00
         -2   -1    0    0    0  501 -0.00000000000E+00  0.00000000000E+00  0.58027980932E+02  0.58027980988E+02  0.25500000000E-02 0. -1.
          2   -1    0    0  501    0  0.00000000000E+00 -0.00000000000E+00 -0.10109284777E+04  0.10109284777E+04  0.25500000000E-02 0.  1.
    5000001    1    1    2    0    0  0.32267074027E+02  0.66913299170E+02 -0.73325429112E+03  0.76340121110E+03  0.19900000000E+03 0.  0.
   -5000001    1    1    2    0    0 -0.32267074027E+02 -0.66913299170E+02 -0.21964620565E+03  0.30555524759E+03  0.19900000000E+03 0.  0.
<mgrwt>
<rscale>  0 0.48440536E+03</rscale>
<asrwt>0</asrwt>
<pdfrwt beam="1">  1        2 0.14441834E+00 0.48440536E+03</pdfrwt>
<pdfrwt beam="2">  1       -2 0.82897121E-02 0.48440536E+03</pdfrwt>
<totfact> 0.25732165E+03</totfact>
</mgrwt>
</event>
<event>
 4    1  0.5080671E-005  0.6361392E+03  0.7818608E-02  0.9833141E-01
         -2   -1    0    0    0  501 -0.00000000000E+00  0.00000000000E+00  0.23720808256E+03  0.23720808257E+03  0.25500000000E-02 0. -1.
          2   -1    0    0  501    0  0.00000000000E+00 -0.00000000000E+00 -0.42649588307E+03  0.42649588308E+03  0.25500000000E-02 0.  1.
    5000001    1    1    2    0    0  0.38451741723E+02 -0.20606741409E+03 -0.23315553754E+03  0.37135538272E+03  0.19900000000E+03 0.  0.
   -5000001    1    1    2    0    0 -0.38451741723E+02  0.20606741409E+03  0.43867737019E+02  0.29234858293E+03  0.19900000000E+03 0.  0.
<mgrwt>
<rscale>  0 0.63613920E+03</rscale>
<asrwt>0</asrwt>
<pdfrwt beam="1">  1        2 0.60927983E-01 0.63613920E+03</pdfrwt>
<pdfrwt beam="2">  1       -2 0.33886869E-01 0.63613920E+03</pdfrwt>
<totfact> 0.65894718E+02</totfact>
</mgrwt>
</event>
<event>
 4    1  0.5080671E-005  0.4656672E+03  0.7818608E-02  0.1023150E+00
          2   -1    0    0  501    0  0.00000000000E+00  0.00000000000E+00  0.46009652367E+03  0.46009652367E+03  0.25500000000E-02 0.  1.
         -2   -1    0    0    0  501 -0.00000000000E+00 -0.00000000000E+00 -0.11782633135E+03  0.11782633138E+03  0.25500000000E-02 0. -1.
    5000001    1    1    2    0    0  0.64824224517E+02 -0.94396299696E+02  0.12310665258E+03  0.26051696565E+03  0.19900000000E+03 0.  0.
   -5000001    1    1    2    0    0 -0.64824224517E+02  0.94396299696E+02  0.21916353973E+03  0.31740588940E+03  0.19900000000E+03 0.  0.
<mgrwt>
<rscale>  0 0.46566720E+03</rscale>
<asrwt>0</asrwt>
<pdfrwt beam="1">  1        2 0.65728074E-01 0.46566720E+03</pdfrwt>
<pdfrwt beam="2">  1       -2 0.16832333E-01 0.46566720E+03</pdfrwt>
<totfact> 0.21104435E+03</totfact>
</mgrwt>
</event>
<event>
 4    1  0.5080671E-005  0.9592702E+03  0.7818608E-02  0.9354380E-01
         -2   -1    0    0    0  501 -0.00000000000E+00  0.00000000000E+00  0.62555568143E+02  0.62555568195E+02  0.25500000000E-02 0. -1.
          2   -1    0    0  501    0  0.00000000000E+00 -0.00000000000E+00 -0.36775279814E+04  0.36775279814E+04  0.25500000000E-02 0.  1.
    5000001    1    1    2    0    0  0.41302121571E+03 -0.24016104405E+02 -0.12660386560E+04  0.13467064181E+04  0.19900000000E+03 0.  0.
   -5000001    1    1    2    0    0 -0.41302121571E+03  0.24016104405E+02 -0.23489337573E+04  0.23933771316E+04  0.19900000000E+03 0.  0.
<mgrwt>
<rscale>  0 0.95927025E+03</rscale>
<asrwt>0</asrwt>
<pdfrwt beam="1">  1        2 0.52536100E+00 0.95927025E+03</pdfrwt>
<pdfrwt beam="2">  1       -2 0.89365121E-02 0.95927025E+03</pdfrwt>
<totfact> 0.80131646E+01</totfact>
</mgrwt>
</event>
<event>
 4    1  0.5080671E-005  0.5250787E+03  0.7818608E-02  0.1007433E+00
         -2   -1    0    0    0  501 -0.00000000000E+00  0.00000000000E+00  0.10019742475E+03  0.10019742478E+03  0.25500000000E-02 0. -1.
          2   -1    0    0  501    0  0.00000000000E+00 -0.00000000000E+00 -0.68791103867E+03  0.68791103867E+03  0.25500000000E-02 0.  1.
    5000001    1    1    2    0    0  0.15641642020E+03 -0.33002309544E+02 -0.20169083949E+03  0.32532359840E+03  0.19900000000E+03 0.  0.
   -5000001    1    1    2    0    0 -0.15641642020E+03  0.33002309544E+02 -0.38602277443E+03  0.46278486505E+03  0.19900000000E+03 0.  0.
<mgrwt>
<rscale>  0 0.52507872E+03</rscale>
<asrwt>0</asrwt>
<pdfrwt beam="1">  1        2 0.98273003E-01 0.52507872E+03</pdfrwt>
<pdfrwt beam="2">  1       -2 0.14313918E-01 0.52507872E+03</pdfrwt>
<totfact> 0.17414768E+03</totfact>
</mgrwt>
</event>
<event>
 4    1  0.5080671E-005  0.6827341E+03  0.7818608E-02  0.9747223E-01
         -2   -1    0    0    0  501 -0.00000000000E+00  0.00000000000E+00  0.66958012228E+02  0.66958012277E+02  0.25500000000E-02 0. -1.
          2   -1    0    0  501    0  0.00000000000E+00 -0.00000000000E+00 -0.17403661214E+04  0.17403661214E+04  0.25500000000E-02 0.  1.
    5000001    1    1    2    0    0  0.12482541553E+03  0.23519635165E+03 -0.10422959811E+04  0.10940203930E+04  0.19900000000E+03 0.  0.
   -5000001    1    1    2    0    0 -0.12482541553E+03 -0.23519635165E+03 -0.63111212808E+03  0.71330374063E+03  0.19900000000E+03 0.  0.
<mgrwt>
<rscale>  0 0.68273408E+03</rscale>
<asrwt>0</asrwt>
<pdfrwt beam="1">  1        2 0.24862370E+00 0.68273408E+03</pdfrwt>
<pdfrwt beam="2">  1       -2 0.95654314E-02 0.68273408E+03</pdfrwt>
<totfact> 0.82044797E+02</totfact>
</mgrwt>
</event>
<event>
 4    1  0.5080671E-005  0.5113858E+03  0.7818608E-02  0.1010849E+00
         -2   -1    0    0    0  501 -0.00000000000E+00  0.00000000000E+00  0.72300222553E+02  0.72300222598E+02  0.25500000000E-02 0. -1.
          2   -1    0    0  501    0  0.00000000000E+00 -0.00000000000E+00 -0.90426923069E+03  0.90426923069E+03  0.25500000000E-02 0.  1.
    5000001    1    1    2    0    0  0.10700627969E+03  0.10842813363E+03 -0.31915808319E+03  0.40579537469E+03  0.19900000000E+03 0.  0.
   -5000001    1    1    2    0    0 -0.10700627969E+03 -0.10842813363E+03 -0.51281092495E+03  0.57077407860E+03  0.19900000000E+03 0.  0.
<mgrwt>
<rscale>  0 0.51138583E+03</rscale>
<asrwt>0</asrwt>
<pdfrwt beam="1">  1        2 0.12918131E+00 0.51138583E+03</pdfrwt>
<pdfrwt beam="2">  1       -2 0.10328604E-01 0.51138583E+03</pdfrwt>
<totfact> 0.21054880E+03</totfact>
</mgrwt>
</event>
<event>
 4    1  0.5080671E-005  0.4554575E+03  0.7818608E-02  0.1026107E+00
         -2   -1    0    0    0  501 -0.00000000000E+00  0.00000000000E+00  0.20704745592E+03  0.20704745593E+03  0.25500000000E-02 0. -1.
          2   -1    0    0  501    0  0.00000000000E+00 -0.00000000000E+00 -0.25047583087E+03  0.25047583088E+03  0.25500000000E-02 0.  1.
    5000001    1    1    2    0    0 -0.67513849035E+02 -0.85156054112E+02 -0.41163169327E+00  0.22673959249E+03  0.19900000000E+03 0.  0.
   -5000001    1    1    2    0    0  0.67513849035E+02  0.85156054112E+02 -0.43016743260E+02  0.23078369432E+03  0.19900000000E+03 0.  0.
<mgrwt>
<rscale>  0 0.45545750E+03</rscale>
<asrwt>0</asrwt>
<pdfrwt beam="1">  1        2 0.35782261E-01 0.45545750E+03</pdfrwt>
<pdfrwt beam="2">  1       -2 0.29578208E-01 0.45545750E+03</pdfrwt>
<totfact> 0.15278307E+03</totfact>
</mgrwt>
</event>
<event>
 4    1  0.5080671E-005  0.5140595E+03  0.7818608E-02  0.1010173E+00
          2   -1    0    0  501    0  0.00000000000E+00  0.00000000000E+00  0.92178109781E+03  0.92178109782E+03  0.25500000000E-02 0.  1.
         -2   -1    0    0    0  501 -0.00000000000E+00 -0.00000000000E+00 -0.71670263503E+02  0.71670263548E+02  0.25500000000E-02 0. -1.
    5000001    1    1    2    0    0  0.30183613832E+02 -0.15886879996E+03  0.45924307424E+03  0.52598055799E+03  0.19900000000E+03 0.  0.
   -5000001    1    1    2    0    0 -0.30183613832E+02  0.15886879996E+03  0.39086776007E+03  0.46747080337E+03  0.19900000000E+03 0.  0.
<mgrwt>
<rscale>  0 0.51405951E+03</rscale>
<asrwt>0</asrwt>
<pdfrwt beam="1">  1        2 0.13168301E+00 0.51405951E+03</pdfrwt>
<pdfrwt beam="2">  1       -2 0.10238609E-01 0.51405951E+03</pdfrwt>
<totfact> 0.20813933E+03</totfact>
</mgrwt>
</event>
<event>
 4    1  0.5080671E-005  0.5519722E+03  0.7818608E-02  0.1001038E+00
          2   -1    0    0  501    0  0.00000000000E+00  0.00000000000E+00  0.44053941952E+03  0.44053941953E+03  0.25500000000E-02 0.  1.
         -2   -1    0    0    0  501 -0.00000000000E+00 -0.00000000000E+00 -0.17289784896E+03  0.17289784898E+03  0.25500000000E-02 0. -1.
    5000001    1    1    2    0    0  0.18316009173E+03 -0.54032185857E+02  0.14494665295E+03  0.31157283019E+03  0.19900000000E+03 0.  0.
   -5000001    1    1    2    0    0 -0.18316009173E+03  0.54032185857E+02  0.12269491761E+03  0.30186443831E+03  0.19900000000E+03 0.  0.
<mgrwt>
<rscale>  0 0.55197217E+03</rscale>
<asrwt>0</asrwt>
<pdfrwt beam="1">  1        2 0.62934202E-01 0.55197217E+03</pdfrwt>
<pdfrwt beam="2">  1       -2 0.24699693E-01 0.55197217E+03</pdfrwt>
<totfact> 0.11370671E+03</totfact>
</mgrwt>
</event>
<event>
 4    1  0.5080671E-005  0.7848218E+03  0.7818608E-02  0.9582251E-01
          2   -1    0    0  501    0  0.00000000000E+00  0.00000000000E+00  0.21921021354E+03  0.21921021356E+03  0.25500000000E-02 0.  1.
         -2   -1    0    0    0  501 -0.00000000000E+00 -0.00000000000E+00 -0.70245952623E+03  0.70245952624E+03  0.25500000000E-02 0. -1.
    5000001    1    1    2    0    0 -0.28405466435E+03  0.53369556149E+02 -0.44789246544E+03  0.56898508105E+03  0.19900000000E+03 0.  0.
   -5000001    1    1    2    0    0  0.28405466435E+03 -0.53369556149E+02 -0.35356847249E+02  0.35268465874E+03  0.19900000000E+03 0.  0.
<mgrwt>
<rscale>  0 0.78482177E+03</rscale>
<asrwt>0</asrwt>
<pdfrwt beam="1">  1        2 0.31315745E-01 0.78482177E+03</pdfrwt>
<pdfrwt beam="2">  1       -2 0.10035136E+00 0.78482177E+03</pdfrwt>
<totfact> 0.13994572E+02</totfact>
</mgrwt>
</event>
<event>
 4    1  0.5080671E-005  0.6001235E+03  0.7818608E-02  0.9905150E-01
         -2   -1    0    0    0  501 -0.00000000000E+00  0.00000000000E+00  0.22431562891E+03  0.22431562892E+03  0.25500000000E-02 0. -1.
          2   -1    0    0  501    0  0.00000000000E+00 -0.00000000000E+00 -0.40138551346E+03  0.40138551347E+03  0.25500000000E-02 0.  1.
    5000001    1    1    2    0    0  0.20236997263E+03  0.95375338367E+02 -0.10901873493E+03  0.31864736867E+03  0.19900000000E+03 0.  0.
   -5000001    1    1    2    0    0 -0.20236997263E+03 -0.95375338367E+02 -0.68051149621E+02  0.30705377372E+03  0.19900000000E+03 0.  0.
<mgrwt>
<rscale>  0 0.60012347E+03</rscale>
<asrwt>0</asrwt>
<pdfrwt beam="1">  1        2 0.57340787E-01 0.60012347E+03</pdfrwt>
<pdfrwt beam="2">  1       -2 0.32045090E-01 0.60012347E+03</pdfrwt>
<totfact> 0.78349741E+02</totfact>
</mgrwt>
</event>
<event>
 4    1  0.5080671E-005  0.8230382E+03  0.7818608E-02  0.9527256E-01
          2   -1    0    0  501    0  0.00000000000E+00  0.00000000000E+00  0.16645584368E+04  0.16645584368E+04  0.25500000000E-02 0.  1.
         -2   -1    0    0    0  501 -0.00000000000E+00 -0.00000000000E+00 -0.10173746313E+03  0.10173746316E+03  0.25500000000E-02 0. -1.
    5000001    1    1    2    0    0 -0.30851781820E+03 -0.17030297681E+03  0.62137934804E+03  0.74155218443E+03  0.19900000000E+03 0.  0.
   -5000001    1    1    2    0    0  0.30851781820E+03  0.17030297681E+03  0.94144162566E+03  0.10247437156E+04  0.19900000000E+03 0.  0.
<mgrwt>
<rscale>  0 0.82303816E+03</rscale>
<asrwt>0</asrwt>
<pdfrwt beam="1">  1        2 0.23779404E+00 0.82303816E+03</pdfrwt>
<pdfrwt beam="2">  1       -2 0.14533924E-01 0.82303816E+03</pdfrwt>
<totfact> 0.44618249E+02</totfact>
</mgrwt>
</event>
<event>
 4    1  0.5080671E-005  0.8491106E+03  0.7818608E-02  0.9491531E-01
          2   -1    0    0  501    0  0.00000000000E+00  0.00000000000E+00  0.99096702964E+03  0.99096702964E+03  0.25500000000E-02 0.  1.
         -2   -1    0    0    0  501 -0.00000000000E+00 -0.00000000000E+00 -0.18189021474E+03  0.18189021476E+03  0.25500000000E-02 0. -1.
    5000001    1    1    2    0    0 -0.81572769805E+01  0.37070313930E+03  0.32690561711E+03  0.53287488321E+03  0.19900000000E+03 0.  0.
   -5000001    1    1    2    0    0  0.81572769805E+01 -0.37070313930E+03  0.48217119779E+03  0.63998236119E+03  0.19900000000E+03 0.  0.
<mgrwt>
<rscale>  0 0.84911061E+03</rscale>
<asrwt>0</asrwt>
<pdfrwt beam="1">  1        2 0.14156672E+00 0.84911061E+03</pdfrwt>
<pdfrwt beam="2">  1       -2 0.25984316E-01 0.84911061E+03</pdfrwt>
<totfact> 0.38063144E+02</totfact>
</mgrwt>
</event>
<event>
 4    1  0.5080671E-005  0.1202665E+04  0.7818608E-02  0.9110527E-01
          2   -1    0    0  501    0  0.00000000000E+00  0.00000000000E+00  0.29316666838E+04  0.29316666838E+04  0.25500000000E-02 0.  1.
         -2   -1    0    0    0  501 -0.00000000000E+00 -0.00000000000E+00 -0.12334308520E+03  0.12334308522E+03  0.25500000000E-02 0. -1.
    5000001    1    1    2    0    0  0.49750532509E+03 -0.21076195917E+02  0.20953765818E+04  0.21629054011E+04  0.19900000000E+03 0.  0.
   -5000001    1    1    2    0    0 -0.49750532509E+03  0.21076195917E+02  0.71294701687E+03  0.89210436799E+03  0.19900000000E+03 0.  0.
<mgrwt>
<rscale>  0 0.12026651E+04</rscale>
<asrwt>0</asrwt>
<pdfrwt beam="1">  1        2 0.41880946E+00 0.12026651E+04</pdfrwt>
<pdfrwt beam="2">  1       -2 0.17620444E-01 0.12026651E+04</pdfrwt>
<totfact> 0.68447026E+01</totfact>
</mgrwt>
</event>
<event>
 4    1  0.5080671E-005  0.8454115E+03  0.7818608E-02  0.9496516E-01
          2   -1    0    0  501    0  0.00000000000E+00  0.00000000000E+00  0.20958991527E+03  0.20958991528E+03  0.25500000000E-02 0.  1.
         -2   -1    0    0    0  501 -0.00000000000E+00 -0.00000000000E+00 -0.85252275401E+03  0.85252275401E+03  0.25500000000E-02 0. -1.
    5000001    1    1    2    0    0  0.28971788513E+03 -0.11943019424E+03 -0.67454949095E+02  0.37729457247E+03  0.19900000000E+03 0.  0.
   -5000001    1    1    2    0    0 -0.28971788513E+03  0.11943019424E+03 -0.57547788965E+03  0.68481809682E+03  0.19900000000E+03 0.  0.
<mgrwt>
<rscale>  0 0.84541155E+03</rscale>
<asrwt>0</asrwt>
<pdfrwt beam="1">  1        2 0.29941417E-01 0.84541155E+03</pdfrwt>
<pdfrwt beam="2">  1       -2 0.12178896E+00 0.84541155E+03</pdfrwt>
<totfact> 0.91793644E+01</totfact>
</mgrwt>
</event>
<event>
 4    1  0.5080671E-005  0.4659045E+03  0.7818608E-02  0.1023083E+00
         -2   -1    0    0    0  501 -0.00000000000E+00  0.00000000000E+00  0.38589800768E+02  0.38589800852E+02  0.25500000000E-02 0. -1.
          2   -1    0    0  501    0  0.00000000000E+00 -0.00000000000E+00 -0.14062460927E+04  0.14062460927E+04  0.25500000000E-02 0.  1.
    5000001    1    1    2    0    0  0.34895214071E+02 -0.10453520715E+03 -0.52813752326E+03  0.57504393656E+03  0.19900000000E+03 0.  0.
   -5000001    1    1    2    0    0 -0.34895214071E+02  0.10453520715E+03 -0.83951876864E+03  0.86979195697E+03  0.19900000000E+03 0.  0.
<mgrwt>
<rscale>  0 0.46590453E+03</rscale>
<asrwt>0</asrwt>
<pdfrwt beam="1">  1        2 0.20089227E+00 0.46590453E+03</pdfrwt>
<pdfrwt beam="2">  1       -2 0.55128296E-02 0.46590453E+03</pdfrwt>
<totfact> 0.29393434E+03</totfact>
</mgrwt>
</event>
<event>
 4    1  0.5080671E-005  0.9470062E+03  0.7818608E-02  0.9368657E-01
          2   -1    0    0  501    0  0.00000000000E+00  0.00000000000E+00  0.13386245955E+04  0.13386245955E+04  0.25500000000E-02 0.  1.
         -2   -1    0    0    0  501 -0.00000000000E+00 -0.00000000000E+00 -0.16748920049E+03  0.16748920051E+03  0.25500000000E-02 0. -1.
    5000001    1    1    2    0    0  0.29210679553E+03  0.20545714088E+03  0.20564918647E+03  0.45763697909E+03  0.19900000000E+03 0.  0.
   -5000001    1    1    2    0    0 -0.29210679553E+03 -0.20545714088E+03  0.96548620850E+03  0.10484768169E+04  0.19900000000E+03 0.  0.
<mgrwt>
<rscale>  0 0.94700615E+03</rscale>
<asrwt>0</asrwt>
<pdfrwt beam="1">  1        2 0.19123209E+00 0.94700615E+03</pdfrwt>
<pdfrwt beam="2">  1       -2 0.23927028E-01 0.94700615E+03</pdfrwt>
<totfact> 0.27695316E+02</totfact>
</mgrwt>
</event>
<event>
 4    1  0.5080671E-005  0.4681972E+03  0.7818608E-02  0.1022430E+00
         -2   -1    0    0    0  501 -0.00000000000E+00  0.00000000000E+00  0.92948225281E+02  0.92948225316E+02  0.25500000000E-02 0. -1.
          2   -1    0    0  501    0  0.00000000000E+00 -0.00000000000E+00 -0.58959879429E+03  0.58959879429E+03  0.25500000000E-02 0.  1.
    5000001    1    1    2    0    0  0.11201715131E+02 -0.12201726771E+03 -0.22836489192E+03  0.32674946963E+03  0.19900000000E+03 0.  0.
   -5000001    1    1    2    0    0 -0.11201715131E+02  0.12201726771E+03 -0.26828567709E+03  0.35579754998E+03  0.19900000000E+03 0.  0.
<mgrwt>
<rscale>  0 0.46819723E+03</rscale>
<asrwt>0</asrwt>
<pdfrwt beam="1">  1        2 0.84228397E-01 0.46819723E+03</pdfrwt>
<pdfrwt beam="2">  1       -2 0.13278318E-01 0.46819723E+03</pdfrwt>
<totfact> 0.23677726E+03</totfact>
</mgrwt>
</event>
<event>
 4    1  0.5080671E-005  0.6448834E+03  0.7818608E-02  0.9816428E-01
          2   -1    0    0  501    0  0.00000000000E+00  0.00000000000E+00  0.23391394771E+04  0.23391394771E+04  0.25500000000E-02 0.  1.
         -2   -1    0    0    0  501 -0.00000000000E+00 -0.00000000000E+00 -0.44447397046E+02  0.44447397119E+02  0.25500000000E-02 0. -1.
    5000001    1    1    2    0    0  0.14252088800E+03 -0.17449545729E+03  0.71619677171E+03  0.77672368571E+03  0.19900000000E+03 0.  0.
   -5000001    1    1    2    0    0 -0.14252088800E+03  0.17449545729E+03  0.15784953083E+04  0.16068631885E+04  0.19900000000E+03 0.  0.
<mgrwt>
<rscale>  0 0.64488343E+03</rscale>
<asrwt>0</asrwt>
<pdfrwt beam="1">  1        2 0.33416293E+00 0.64488343E+03</pdfrwt>
<pdfrwt beam="2">  1       -2 0.63496253E-02 0.64488343E+03</pdfrwt>
<totfact> 0.78748572E+02</totfact>
</mgrwt>
</event>
<event>
 4    1  0.5080671E-005  0.7061416E+03  0.7818608E-02  0.9706787E-01
          2   -1    0    0  501    0  0.00000000000E+00  0.00000000000E+00  0.26321431255E+03  0.26321431256E+03  0.25500000000E-02 0.  1.
         -2   -1    0    0    0  501 -0.00000000000E+00 -0.00000000000E+00 -0.47360260332E+03  0.47360260333E+03  0.25500000000E-02 0. -1.
    5000001    1    1    2    0    0  0.15186276376E+02  0.24933488351E+03  0.51875671598E+02  0.32355925644E+03  0.19900000000E+03 0.  0.
   -5000001    1    1    2    0    0 -0.15186276376E+02 -0.24933488351E+03 -0.26226396238E+03  0.41325765944E+03  0.19900000000E+03 0.  0.
<mgrwt>
<rscale>  0 0.70614158E+03</rscale>
<asrwt>0</asrwt>
<pdfrwt beam="1">  1        2 0.37602045E-01 0.70614158E+03</pdfrwt>
<pdfrwt beam="2">  1       -2 0.67657514E-01 0.70614158E+03</pdfrwt>
<totfact> 0.27883052E+02</totfact>
</mgrwt>
</event>
<event>
 4    1  0.5080671E-005  0.5255698E+03  0.7818608E-02  0.1007312E+00
          2   -1    0    0  501    0  0.00000000000E+00  0.00000000000E+00  0.15111612068E+04  0.15111612068E+04  0.25500000000E-02 0.  1.
         -2   -1    0    0    0  501 -0.00000000000E+00 -0.00000000000E+00 -0.45697243430E+02  0.45697243502E+02  0.25500000000E-02 0. -1.
    5000001    1    1    2    0    0  0.30771512849E+02  0.16044941942E+03  0.57699645194E+03  0.63183606082E+03  0.19900000000E+03 0.  0.
   -5000001    1    1    2    0    0 -0.30771512849E+02 -0.16044941942E+03  0.88846751146E+03  0.92502238952E+03  0.19900000000E+03 0.  0.
<mgrwt>
<rscale>  0 0.52556979E+03</rscale>
<asrwt>0</asrwt>
<pdfrwt beam="1">  1        2 0.21588019E+00 0.52556979E+03</pdfrwt>
<pdfrwt beam="2">  1       -2 0.65281771E-02 0.52556979E+03</pdfrwt>
<totfact> 0.19890587E+03</totfact>
</mgrwt>
</event>
<event>
 4    1  0.5080671E-005  0.6531803E+03  0.7818608E-02  0.9800830E-01
         -2   -1    0    0    0  501 -0.00000000000E+00  0.00000000000E+00  0.21202995088E+03  0.21202995089E+03  0.25500000000E-02 0. -1.
          2   -1    0    0  501    0  0.00000000000E+00 -0.00000000000E+00 -0.50304751499E+03  0.50304751499E+03  0.25500000000E-02 0.  1.
    5000001    1    1    2    0    0  0.15175007092E+03 -0.14040256948E+03  0.25215148000E+02  0.28805862117E+03  0.19900000000E+03 0.  0.
   -5000001    1    1    2    0    0 -0.15175007092E+03  0.14040256948E+03 -0.31623271211E+03  0.42701884472E+03  0.19900000000E+03 0.  0.
<mgrwt>
<rscale>  0 0.65318034E+03</rscale>
<asrwt>0</asrwt>
<pdfrwt beam="1">  1        2 0.71863930E-01 0.65318034E+03</pdfrwt>
<pdfrwt beam="2">  1       -2 0.30289993E-01 0.65318034E+03</pdfrwt>
<totfact> 0.67430698E+02</totfact>
</mgrwt>
</event>
<event>
 4    1  0.5080671E-005  0.8538578E+03  0.7818608E-02  0.9485174E-01
         -2   -1    0    0    0  501 -0.00000000000E+00  0.00000000000E+00  0.86354153904E+02  0.86354153942E+02  0.25500000000E-02 0. -1.
          2   -1    0    0  501    0  0.00000000000E+00 -0.00000000000E+00 -0.21107065016E+04  0.21107065016E+04  0.25500000000E-02 0.  1.
    5000001    1    1    2    0    0 -0.21662342382E+03  0.30641655928E+03 -0.90148928132E+03  0.99654439935E+03  0.19900000000E+03 0.  0.
   -5000001    1    1    2    0    0  0.21662342382E+03 -0.30641655928E+03 -0.11228630664E+04  0.12005162562E+04  0.19900000000E+03 0.  0.
<mgrwt>
<rscale>  0 0.85385777E+03</rscale>
<asrwt>0</asrwt>
<pdfrwt beam="1">  1        2 0.30152947E+00 0.85385777E+03</pdfrwt>
<pdfrwt beam="2">  1       -2 0.12336309E-01 0.85385777E+03</pdfrwt>
<totfact> 0.34706990E+02</totfact>
</mgrwt>
</event>
<event>
 4    1  0.5080671E-005  0.5753344E+03  0.7818608E-02  0.9957943E-01
          2   -1    0    0  501    0  0.00000000000E+00  0.00000000000E+00  0.22280747772E+03  0.22280747773E+03  0.25500000000E-02 0.  1.
         -2   -1    0    0    0  501 -0.00000000000E+00 -0.00000000000E+00 -0.37140769461E+03  0.37140769462E+03  0.25500000000E-02 0. -1.
    5000001    1    1    2    0    0 -0.11402570777E+02 -0.20556574301E+03 -0.10284995110E+03  0.30424727733E+03  0.19900000000E+03 0.  0.
   -5000001    1    1    2    0    0  0.11402570777E+02  0.20556574301E+03 -0.45750265784E+02  0.28996789502E+03  0.19900000000E+03 0.  0.
<mgrwt>
<rscale>  0 0.57533438E+03</rscale>
<asrwt>0</asrwt>
<pdfrwt beam="1">  1        2 0.31829640E-01 0.57533438E+03</pdfrwt>
<pdfrwt beam="2">  1       -2 0.53058242E-01 0.57533438E+03</pdfrwt>
<totfact> 0.56167453E+02</totfact>
</mgrwt>
</event>
<event>
 4    1  0.5080671E-005  0.5611499E+03  0.7818608E-02  0.9989456E-01
         -2   -1    0    0    0  501 -0.00000000000E+00  0.00000000000E+00  0.12543229457E+03  0.12543229460E+03  0.25500000000E-02 0. -1.
          2   -1    0    0  501    0  0.00000000000E+00 -0.00000000000E+00 -0.62760799304E+03  0.62760799304E+03  0.25500000000E-02 0.  1.
    5000001    1    1    2    0    0 -0.21615335070E+02 -0.17729351076E+03 -0.36512357974E+03  0.45256650357E+03  0.19900000000E+03 0.  0.
   -5000001    1    1    2    0    0  0.21615335070E+02  0.17729351076E+03 -0.13705211872E+03  0.30047378407E+03  0.19900000000E+03 0.  0.
<mgrwt>
<rscale>  0 0.56114993E+03</rscale>
<asrwt>0</asrwt>
<pdfrwt beam="1">  1        2 0.89658283E-01 0.56114993E+03</pdfrwt>
<pdfrwt beam="2">  1       -2 0.17918900E-01 0.56114993E+03</pdfrwt>
<totfact> 0.13291065E+03</totfact>
</mgrwt>
</event>
<event>
 4    1  0.5080671E-005  0.6345278E+03  0.7818608E-02  0.9836253E-01
         -2   -1    0    0    0  501 -0.00000000000E+00  0.00000000000E+00  0.10185654153E+03  0.10185654156E+03  0.25500000000E-02 0. -1.
          2   -1    0    0  501    0  0.00000000000E+00 -0.00000000000E+00 -0.98821716589E+03  0.98821716589E+03  0.25500000000E-02 0.  1.
    5000001    1    1    2    0    0  0.18373525261E+03  0.90180892984E+02 -0.20535945066E+03  0.35165997851E+03  0.19900000000E+03 0.  0.
   -5000001    1    1    2    0    0 -0.18373525261E+03 -0.90180892984E+02 -0.68100117369E+03  0.73841372894E+03  0.19900000000E+03 0.  0.
<mgrwt>
<rscale>  0 0.63452780E+03</rscale>
<asrwt>0</asrwt>
<pdfrwt beam="1">  1        2 0.14117388E+00 0.63452780E+03</pdfrwt>
<pdfrwt beam="2">  1       -2 0.14550935E-01 0.63452780E+03</pdfrwt>
<totfact> 0.10582724E+03</totfact>
</mgrwt>
</event>
<event>
 4    1  0.5080671E-005  0.6025208E+03  0.7818608E-02  0.9900190E-01
          2   -1    0    0  501    0  0.00000000000E+00  0.00000000000E+00  0.11891662838E+04  0.11891662838E+04  0.25500000000E-02 0.  1.
         -2   -1    0    0    0  501 -0.00000000000E+00 -0.00000000000E+00 -0.76320561654E+02  0.76320561696E+02  0.25500000000E-02 0. -1.
    5000001    1    1    2    0    0  0.31632287515E+02  0.21791649502E+03  0.44792268986E+03  0.53733037929E+03  0.19900000000E+03 0.  0.
   -5000001    1    1    2    0    0 -0.31632287515E+02 -0.21791649502E+03  0.66492303225E+03  0.72815646618E+03  0.19900000000E+03 0.  0.
<mgrwt>
<rscale>  0 0.60252083E+03</rscale>
<asrwt>0</asrwt>
<pdfrwt beam="1">  1        2 0.16988089E+00 0.60252083E+03</pdfrwt>
<pdfrwt beam="2">  1       -2 0.10902938E-01 0.60252083E+03</pdfrwt>
<totfact> 0.13020855E+03</totfact>
</mgrwt>
</event>
<event>
 4    1  0.5080671E-005  0.8111470E+03  0.7818608E-02  0.9544021E-01
          2   -1    0    0  501    0  0.00000000000E+00  0.00000000000E+00  0.17249457558E+04  0.17249457558E+04  0.25500000000E-02 0.  1.
         -2   -1    0    0    0  501 -0.00000000000E+00 -0.00000000000E+00 -0.95359450909E+02  0.95359450943E+02  0.25500000000E-02 0. -1.
    5000001    1    1    2    0    0 -0.15464992656E+02 -0.35228838613E+03  0.86706735081E+03  0.95694987530E+03  0.19900000000E+03 0.  0.
   -5000001    1    1    2    0    0  0.15464992656E+02  0.35228838613E+03  0.76251895410E+03  0.86335533146E+03  0.19900000000E+03 0.  0.
<mgrwt>
<rscale>  0 0.81114704E+03</rscale>
<asrwt>0</asrwt>
<pdfrwt beam="1">  1        2 0.24642081E+00 0.81114704E+03</pdfrwt>
<pdfrwt beam="2">  1       -2 0.13622779E-01 0.81114704E+03</pdfrwt>
<totfact> 0.46349572E+02</totfact>
</mgrwt>
</event>
<event>
 4    1  0.5080671E-005  0.9652285E+03  0.7818608E-02  0.9347526E-01
         -2   -1    0    0    0  501 -0.00000000000E+00  0.00000000000E+00  0.12254572417E+04  0.12254572417E+04  0.25500000000E-02 0. -1.
          2   -1    0    0  501    0  0.00000000000E+00 -0.00000000000E+00 -0.19006496819E+03  0.19006496820E+03  0.25500000000E-02 0.  1.
    5000001    1    1    2    0    0  0.51647301587E+02 -0.28332265733E+03  0.30476787880E+02  0.35138156827E+03  0.19900000000E+03 0.  0.
   -5000001    1    1    2    0    0 -0.51647301587E+02  0.28332265733E+03  0.10049154857E+04  0.10641406417E+04  0.19900000000E+03 0.  0.
<mgrwt>
<rscale>  0 0.96522845E+03</rscale>
<asrwt>0</asrwt>
<pdfrwt beam="1">  1        2 0.27152139E-01 0.96522845E+03</pdfrwt>
<pdfrwt beam="2">  1       -2 0.17506532E+00 0.96522845E+03</pdfrwt>
<totfact> 0.39177936E+01</totfact>
</mgrwt>
</event>
<event>
 4    1  0.5080671E-005  0.6101210E+03  0.7818608E-02  0.9884628E-01
          2   -1    0    0  501    0  0.00000000000E+00  0.00000000000E+00  0.57710923770E+03  0.57710923771E+03  0.25500000000E-02 0.  1.
         -2   -1    0    0    0  501 -0.00000000000E+00 -0.00000000000E+00 -0.16125525410E+03  0.16125525412E+03  0.25500000000E-02 0. -1.
    5000001    1    1    2    0    0 -0.20913362879E+03  0.36102452694E+02  0.31897922051E+03  0.43172792925E+03  0.19900000000E+03 0.  0.
   -5000001    1    1    2    0    0  0.20913362879E+03 -0.36102452694E+02  0.96874763101E+02  0.30663656257E+03  0.19900000000E+03 0.  0.
<mgrwt>
<rscale>  0 0.61012096E+03</rscale>
<asrwt>0</asrwt>
<pdfrwt beam="1">  1        2 0.82444178E-01 0.61012096E+03</pdfrwt>
<pdfrwt beam="2">  1       -2 0.23036464E-01 0.61012096E+03</pdfrwt>
<totfact> 0.94592708E+02</totfact>
</mgrwt>
</event>
<event>
 4    1  0.5080671E-005  0.5671641E+03  0.7818608E-02  0.9975974E-01
         -2   -1    0    0    0  501 -0.00000000000E+00  0.00000000000E+00  0.41434017546E+02  0.41434017624E+02  0.25500000000E-02 0. -1.
          2   -1    0    0  501    0  0.00000000000E+00 -0.00000000000E+00 -0.19408876439E+04  0.19408876439E+04  0.25500000000E-02 0.  1.
    5000001    1    1    2    0    0 -0.21376907213E+02  0.19886411148E+03 -0.10494375217E+04  0.10867032800E+04  0.19900000000E+03 0.  0.
   -5000001    1    1    2    0    0  0.21376907213E+02 -0.19886411148E+03 -0.85001610465E+03  0.89561838143E+03  0.19900000000E+03 0.  0.
<mgrwt>
<rscale>  0 0.56716408E+03</rscale>
<asrwt>0</asrwt>
<pdfrwt beam="1">  1        2 0.27726961E+00 0.56716408E+03</pdfrwt>
<pdfrwt beam="2">  1       -2 0.59191466E-02 0.56716408E+03</pdfrwt>
<totfact> 0.14017221E+03</totfact>
</mgrwt>
</event>
<event>
 4    1  0.5080671E-005  0.5889173E+03  0.7818608E-02  0.9928670E-01
         -2   -1    0    0    0  501 -0.00000000000E+00  0.00000000000E+00  0.13679459907E+03  0.13679459910E+03  0.25500000000E-02 0. -1.
          2   -1    0    0  501    0  0.00000000000E+00 -0.00000000000E+00 -0.63384006196E+03  0.63384006196E+03  0.25500000000E-02 0.  1.
    5000001    1    1    2    0    0  0.20031042505E+03 -0.60961277062E+02 -0.17375868225E+03  0.33709586669E+03  0.19900000000E+03 0.  0.
   -5000001    1    1    2    0    0 -0.20031042505E+03  0.60961277062E+02 -0.32328678064E+03  0.43353879437E+03  0.19900000000E+03 0.  0.
<mgrwt>
<rscale>  0 0.58891730E+03</rscale>
<asrwt>0</asrwt>
<pdfrwt beam="1">  1        2 0.90548579E-01 0.58891730E+03</pdfrwt>
<pdfrwt beam="2">  1       -2 0.19542086E-01 0.58891730E+03</pdfrwt>
<totfact> 0.11307933E+03</totfact>
</mgrwt>
</event>
<event>
 4    1  0.5080671E-005  0.6302004E+03  0.7818608E-02  0.9844658E-01
          2   -1    0    0  501    0  0.00000000000E+00  0.00000000000E+00  0.33142301011E+04  0.33142301011E+04  0.25500000000E-02 0.  1.
         -2   -1    0    0    0  501 -0.00000000000E+00 -0.00000000000E+00 -0.29958130407E+02  0.29958130515E+02  0.25500000000E-02 0. -1.
    5000001    1    1    2    0    0 -0.13762050233E+03 -0.18814315861E+03  0.12539996164E+04  0.12909118051E+04  0.19900000000E+03 0.  0.
   -5000001    1    1    2    0    0  0.13762050233E+03  0.18814315861E+03  0.20302723543E+04  0.20532764264E+04  0.19900000000E+03 0.  0.
<mgrwt>
<rscale>  0 0.63020041E+03</rscale>
<asrwt>0</asrwt>
<pdfrwt beam="1">  1        2 0.47346120E+00 0.63020041E+03</pdfrwt>
<pdfrwt beam="2">  1       -2 0.42797351E-02 0.63020041E+03</pdfrwt>
<totfact> 0.43826757E+02</totfact>
</mgrwt>
</event>
<event>
 4    1  0.5080671E-005  0.4926786E+03  0.7818608E-02  0.1015708E+00
         -2   -1    0    0    0  501 -0.00000000000E+00  0.00000000000E+00  0.10588264126E+03  0.10588264129E+03  0.25500000000E-02 0. -1.
          2   -1    0    0  501    0  0.00000000000E+00 -0.00000000000E+00 -0.57311616340E+03  0.57311616340E+03  0.25500000000E-02 0.  1.
    5000001    1    1    2    0    0 -0.82479314300E+02  0.11165035992E+03 -0.17492817281E+03  0.29911453626E+03  0.19900000000E+03 0.  0.
   -5000001    1    1    2    0    0  0.82479314300E+02 -0.11165035992E+03 -0.29230534933E+03  0.37988426843E+03  0.19900000000E+03 0.  0.
<mgrwt>
<rscale>  0 0.49267861E+03</rscale>
<asrwt>0</asrwt>
<pdfrwt beam="1">  1        2 0.81873736E-01 0.49267861E+03</pdfrwt>
<pdfrwt beam="2">  1       -2 0.15126092E-01 0.49267861E+03</pdfrwt>
<totfact> 0.19703522E+03</totfact>
</mgrwt>
</event>
<event>
 4    1  0.5080671E-005  0.7234958E+03  0.7818608E-02  0.9677874E-01
         -2   -1    0    0    0  501 -0.00000000000E+00  0.00000000000E+00  0.10919252944E+03  0.10919252947E+03  0.25500000000E-02 0. -1.
          2   -1    0    0  501    0  0.00000000000E+00 -0.00000000000E+00 -0.11984476104E+04  0.11984476104E+04  0.25500000000E-02 0.  1.
    5000001    1    1    2    0    0 -0.20398439079E+03  0.21183593548E+03 -0.66953949409E+03  0.75787085272E+03  0.19900000000E+03 0.  0.
   -5000001    1    1    2    0    0  0.20398439079E+03 -0.21183593548E+03 -0.41971558683E+03  0.54976928713E+03  0.19900000000E+03 0.  0.
<mgrwt>
<rscale>  0 0.72349575E+03</rscale>
<asrwt>0</asrwt>
<pdfrwt beam="1">  1        2 0.17120679E+00 0.72349575E+03</pdfrwt>
<pdfrwt beam="2">  1       -2 0.15598933E-01 0.72349575E+03</pdfrwt>
<totfact> 0.70620734E+02</totfact>
</mgrwt>
</event>
<event>
 4    1  0.5080671E-005  0.5078553E+03  0.7818608E-02  0.1011749E+00
         -2   -1    0    0    0  501 -0.00000000000E+00  0.00000000000E+00  0.34685144524E+02  0.34685144618E+02  0.25500000000E-02 0. -1.
          2   -1    0    0  501    0  0.00000000000E+00 -0.00000000000E+00 -0.18589877813E+04  0.18589877813E+04  0.25500000000E-02 0.  1.
    5000001    1    1    2    0    0  0.94353377143E+02  0.79629451676E+02 -0.54614595913E+03  0.59423885604E+03  0.19900000000E+03 0.  0.
   -5000001    1    1    2    0    0 -0.94353377143E+02 -0.79629451676E+02 -0.12781566776E+04  0.12994340698E+04  0.19900000000E+03 0.  0.
<mgrwt>
<rscale>  0 0.50785533E+03</rscale>
<asrwt>0</asrwt>
<pdfrwt beam="1">  1        2 0.26556962E+00 0.50785533E+03</pdfrwt>
<pdfrwt beam="2">  1       -2 0.49550218E-02 0.50785533E+03</pdfrwt>
<totfact> 0.20359147E+03</totfact>
</mgrwt>
</event>
<event>
 4    1  0.5080671E-005  0.5562903E+03  0.7818608E-02  0.1000048E+00
         -2   -1    0    0    0  501 -0.00000000000E+00  0.00000000000E+00  0.49290367020E+02  0.49290367086E+02  0.25500000000E-02 0. -1.
          2   -1    0    0  501    0  0.00000000000E+00 -0.00000000000E+00 -0.15695708516E+04  0.15695708516E+04  0.25500000000E-02 0.  1.
    5000001    1    1    2    0    0 -0.15763253272E+03 -0.59435346254E+02 -0.10420320210E+04  0.10741565568E+04  0.19900000000E+03 0.  0.
   -5000001    1    1    2    0    0  0.15763253272E+03  0.59435346254E+02 -0.47824846362E+03  0.54470466192E+03  0.19900000000E+03 0.  0.
<mgrwt>
<rscale>  0 0.55629030E+03</rscale>
<asrwt>0</asrwt>
<pdfrwt beam="1">  1        2 0.22422438E+00 0.55629030E+03</pdfrwt>
<pdfrwt beam="2">  1       -2 0.70414820E-02 0.55629030E+03</pdfrwt>
<totfact> 0.16458345E+03</totfact>
</mgrwt>
</event>
<event>
 4    1  0.5080671E-005  0.7658400E+03  0.7818608E-02  0.9610823E-01
         -2   -1    0    0    0  501 -0.00000000000E+00  0.00000000000E+00  0.56465049363E+02  0.56465049421E+02  0.25500000000E-02 0. -1.
          2   -1    0    0  501    0  0.00000000000E+00 -0.00000000000E+00 -0.25967871543E+04  0.25967871543E+04  0.25500000000E-02 0.  1.
    5000001    1    1    2    0    0  0.23455838388E+03 -0.11888373807E+02 -0.48113890719E+03  0.57118702445E+03  0.19900000000E+03 0.  0.
   -5000001    1    1    2    0    0 -0.23455838388E+03  0.11888373807E+02 -0.20591831977E+04  0.20820651792E+04  0.19900000000E+03 0.  0.
<mgrwt>
<rscale>  0 0.76583997E+03</rscale>
<asrwt>0</asrwt>
<pdfrwt beam="1">  1        2 0.37096952E+00 0.76583997E+03</pdfrwt>
<pdfrwt beam="2">  1       -2 0.80664372E-02 0.76583997E+03</pdfrwt>
<totfact> 0.39319953E+02</totfact>
</mgrwt>
</event>
<event>
 4    1  0.5080671E-005  0.7926511E+03  0.7818608E-02  0.9570716E-01
          2   -1    0    0  501    0  0.00000000000E+00  0.00000000000E+00  0.54413691478E+03  0.54413691479E+03  0.25500000000E-02 0.  1.
         -2   -1    0    0    0  501 -0.00000000000E+00 -0.00000000000E+00 -0.28866617820E+03  0.28866617821E+03  0.25500000000E-02 0. -1.
    5000001    1    1    2    0    0  0.17028433094E+02 -0.24909710747E+03 -0.11896421306E+03  0.34072396522E+03  0.19900000000E+03 0.  0.
   -5000001    1    1    2    0    0 -0.17028433094E+02  0.24909710747E+03  0.37443494964E+03  0.49207912778E+03  0.19900000000E+03 0.  0.
<mgrwt>
<rscale>  0 0.79265105E+03</rscale>
<asrwt>0</asrwt>
<pdfrwt beam="1">  1        2 0.77733845E-01 0.79265105E+03</pdfrwt>
<pdfrwt beam="2">  1       -2 0.41238025E-01 0.79265105E+03</pdfrwt>
<totfact> 0.34087716E+02</totfact>
</mgrwt>
</event>
<event>
 4    1  0.5080671E-005  0.6282671E+03  0.7818608E-02  0.9848436E-01
         -2   -1    0    0    0  501 -0.00000000000E+00  0.00000000000E+00  0.27134735207E+02  0.27134735327E+02  0.25500000000E-02 0. -1.
          2   -1    0    0  501    0  0.00000000000E+00 -0.00000000000E+00 -0.36366630736E+04  0.36366630736E+04  0.25500000000E-02 0.  1.
    5000001    1    1    2    0    0 -0.15253985284E+03  0.17218134482E+03 -0.13469166452E+04  0.13808331801E+04  0.19900000000E+03 0.  0.
   -5000001    1    1    2    0    0  0.15253985284E+03 -0.17218134482E+03 -0.22626116932E+04  0.22829646288E+04  0.19900000000E+03 0.  0.
<mgrwt>
<rscale>  0 0.62826711E+03</rscale>
<asrwt>0</asrwt>
<pdfrwt beam="1">  1        2 0.51952298E+00 0.62826711E+03</pdfrwt>
<pdfrwt beam="2">  1       -2 0.38763931E-02 0.62826711E+03</pdfrwt>
<totfact> 0.32892048E+02</totfact>
</mgrwt>
</event>
<event>
 4    1  0.5080671E-005  0.6875573E+03  0.7818608E-02  0.9738751E-01
         -2   -1    0    0    0  501 -0.00000000000E+00  0.00000000000E+00  0.52461114725E+02  0.52461114787E+02  0.25500000000E-02 0. -1.
          2   -1    0    0  501    0  0.00000000000E+00 -0.00000000000E+00 -0.22527876918E+04  0.22527876918E+04  0.25500000000E-02 0.  1.
    5000001    1    1    2    0    0  0.49173142964E+02  0.25130701099E+03 -0.14825826939E+04  0.15176381835E+04  0.19900000000E+03 0.  0.
   -5000001    1    1    2    0    0 -0.49173142964E+02 -0.25130701099E+03 -0.71774388316E+03  0.78761062308E+03  0.19900000000E+03 0.  0.
<mgrwt>
<rscale>  0 0.68755728E+03</rscale>
<asrwt>0</asrwt>
<pdfrwt beam="1">  1        2 0.32182675E+00 0.68755728E+03</pdfrwt>
<pdfrwt beam="2">  1       -2 0.74944464E-02 0.68755728E+03</pdfrwt>
<totfact> 0.66815054E+02</totfact>
</mgrwt>
</event>
<event>
 4    1  0.5080671E-005  0.6693260E+03  0.7818608E-02  0.9771176E-01
          2   -1    0    0  501    0  0.00000000000E+00  0.00000000000E+00  0.11711095233E+04  0.11711095233E+04  0.25500000000E-02 0.  1.
         -2   -1    0    0    0  501 -0.00000000000E+00 -0.00000000000E+00 -0.95635224109E+02  0.95635224143E+02  0.25500000000E-02 0. -1.
    5000001    1    1    2    0    0 -0.14753160448E+03 -0.21617807871E+03  0.65592471634E+03  0.73371436509E+03  0.19900000000E+03 0.  0.
   -5000001    1    1    2    0    0  0.14753160448E+03  0.21617807871E+03  0.41954958282E+03  0.53303038232E+03  0.19900000000E+03 0.  0.
<mgrwt>
<rscale>  0 0.66932599E+03</rscale>
<asrwt>0</asrwt>
<pdfrwt beam="1">  1        2 0.16730136E+00 0.66932599E+03</pdfrwt>
<pdfrwt beam="2">  1       -2 0.13662175E-01 0.66932599E+03</pdfrwt>
<totfact> 0.91664709E+02</totfact>
</mgrwt>
</event>
<event>
 4    1  0.5080671E-005  0.1032938E+04  0.7818608E-02  0.9273139E-01
          2   -1    0    0  501    0  0.00000000000E+00  0.00000000000E+00  0.42578416808E+04  0.42578416808E+04  0.25500000000E-02 0.  1.
         -2   -1    0    0    0  501 -0.00000000000E+00 -0.00000000000E+00 -0.62646797690E+02  0.62646797742E+02  0.25500000000E-02 0. -1.
    5000001    1    1    2    0    0  0.18310230014E+03 -0.43977278605E+03  0.20366113343E+04  0.21010267211E+04  0.19900000000E+03 0.  0.
   -5000001    1    1    2    0    0 -0.18310230014E+03  0.43977278605E+03  0.21585835487E+04  0.22194617574E+04  0.19900000000E+03 0.  0.
<mgrwt>
<rscale>  0 0.10329378E+04</rscale>
<asrwt>0</asrwt>
<pdfrwt beam="1">  1        2 0.60826294E+00 0.10329378E+04</pdfrwt>
<pdfrwt beam="2">  1       -2 0.89495448E-02 0.10329378E+04</pdfrwt>
<totfact> 0.32287560E+01</totfact>
</mgrwt>
</event>
<event>
 4    1  0.5080671E-005  0.4823320E+03  0.7818608E-02  0.1018496E+00
         -2   -1    0    0    0  501 -0.00000000000E+00  0.00000000000E+00  0.24571014358E+02  0.24571014490E+02  0.25500000000E-02 0. -1.
          2   -1    0    0  501    0  0.00000000000E+00 -0.00000000000E+00 -0.23670593028E+04  0.23670593028E+04  0.25500000000E-02 0.  1.
    5000001    1    1    2    0    0 -0.62198482416E+02  0.89340056726E+02 -0.76508039994E+03  0.79799706474E+03  0.19900000000E+03 0.  0.
   -5000001    1    1    2    0    0  0.62198482416E+02 -0.89340056726E+02 -0.15774078885E+04  0.15936332525E+04  0.19900000000E+03 0.  0.
<mgrwt>
<rscale>  0 0.48233204E+03</rscale>
<asrwt>0</asrwt>
<pdfrwt beam="1">  1        2 0.33815118E+00 0.48233204E+03</pdfrwt>
<pdfrwt beam="2">  1       -2 0.35101464E-02 0.48233204E+03</pdfrwt>
<totfact> 0.19252889E+03</totfact>
</mgrwt>
</event>
<event>
 4    1  0.5080671E-005  0.6256607E+03  0.7818608E-02  0.9853553E-01
          2   -1    0    0  501    0  0.00000000000E+00  0.00000000000E+00  0.16424189956E+04  0.16424189956E+04  0.25500000000E-02 0.  1.
         -2   -1    0    0    0  501 -0.00000000000E+00 -0.00000000000E+00 -0.59584570261E+02  0.59584570316E+02  0.25500000000E-02 0. -1.
    5000001    1    1    2    0    0  0.21431217482E+03  0.64197499644E+02  0.54491864685E+03  0.62176230098E+03  0.19900000000E+03 0.  0.
   -5000001    1    1    2    0    0 -0.21431217482E+03 -0.64197499644E+02  0.10379157785E+04  0.10802412649E+04  0.19900000000E+03 0.  0.
<mgrwt>
<rscale>  0 0.62566071E+03</rscale>
<asrwt>0</asrwt>
<pdfrwt beam="1">  1        2 0.23463125E+00 0.62566071E+03</pdfrwt>
<pdfrwt beam="2">  1       -2 0.85120826E-02 0.62566071E+03</pdfrwt>
<totfact> 0.11139507E+03</totfact>
</mgrwt>
</event>
<event>
 4    1  0.5080671E-005  0.6371517E+03  0.7818608E-02  0.9831191E-01
         -2   -1    0    0    0  501 -0.00000000000E+00  0.00000000000E+00  0.66842357516E+03  0.66842357517E+03  0.25500000000E-02 0. -1.
          2   -1    0    0  501    0  0.00000000000E+00 -0.00000000000E+00 -0.15183570336E+03  0.15183570338E+03  0.25500000000E-02 0.  1.
    5000001    1    1    2    0    0 -0.12923005920E+03  0.54058752020E+02  0.52296596273E+03  0.57681639630E+03  0.19900000000E+03 0.  0.
   -5000001    1    1    2    0    0  0.12923005920E+03 -0.54058752020E+02 -0.63780909201E+01  0.24344288224E+03  0.19900000000E+03 0.  0.
<mgrwt>
<rscale>  0 0.63715167E+03</rscale>
<asrwt>0</asrwt>
<pdfrwt beam="1">  1        2 0.21690814E-01 0.63715167E+03</pdfrwt>
<pdfrwt beam="2">  1       -2 0.95489086E-01 0.63715167E+03</pdfrwt>
<totfact> 0.24053047E+02</totfact>
</mgrwt>
</event>
<event>
 4    1  0.5080671E-005  0.5589502E+03  0.7818608E-02  0.9994433E-01
         -2   -1    0    0    0  501 -0.00000000000E+00  0.00000000000E+00  0.19379479756E+03  0.19379479758E+03  0.25500000000E-02 0. -1.
          2   -1    0    0  501    0  0.00000000000E+00 -0.00000000000E+00 -0.40303626934E+03  0.40303626934E+03  0.25500000000E-02 0.  1.
    5000001    1    1    2    0    0  0.17524325998E+03 -0.73959594508E+02 -0.53133438361E+02  0.28036473398E+03  0.19900000000E+03 0.  0.
   -5000001    1    1    2    0    0 -0.17524325998E+03  0.73959594508E+02 -0.15610803341E+03  0.31646633294E+03  0.19900000000E+03 0.  0.
<mgrwt>
<rscale>  0 0.55895020E+03</rscale>
<asrwt>0</asrwt>
<pdfrwt beam="1">  1        2 0.57576610E-01 0.55895020E+03</pdfrwt>
<pdfrwt beam="2">  1       -2 0.27684971E-01 0.55895020E+03</pdfrwt>
<totfact> 0.10217469E+03</totfact>
</mgrwt>
</event>
<event>
 4    1  0.5080671E-005  0.9061075E+03  0.7818608E-02  0.9417979E-01
         -2   -1    0    0    0  501 -0.00000000000E+00  0.00000000000E+00  0.51932405815E+02  0.51932405877E+02  0.25500000000E-02 0.  1.
          2   -1    0    0  501    0  0.00000000000E+00 -0.00000000000E+00 -0.39524007563E+04  0.39524007563E+04  0.25500000000E-02 0. -1.
    5000001    1    1    2    0    0 -0.20808566205E+03 -0.29664549948E+03 -0.11310765031E+04  0.12042563061E+04  0.19900000000E+03 0.  0.
   -5000001    1    1    2    0    0  0.20808566205E+03  0.29664549948E+03 -0.27693918474E+04  0.28000768560E+04  0.19900000000E+03 0.  0.
<mgrwt>
<rscale>  0 0.90610746E+03</rscale>
<asrwt>0</asrwt>
<pdfrwt beam="1">  1        2 0.56462849E+00 0.90610746E+03</pdfrwt>
<pdfrwt beam="2">  1       -2 0.74189176E-02 0.90610746E+03</pdfrwt>
<totfact> 0.72343879E+01</totfact>
</mgrwt>
</event>
<event>
 4    1  0.5080671E-005  0.9306633E+03  0.7818608E-02  0.9388042E-01
          2   -1    0    0  501    0  0.00000000000E+00  0.00000000000E+00  0.15624291945E+03  0.15624291947E+03  0.25500000000E-02 0.  1.
         -2   -1    0    0    0  501 -0.00000000000E+00 -0.00000000000E+00 -0.13858773431E+04  0.13858773431E+04  0.25500000000E-02 0. -1.
    5000001    1    1    2    0    0  0.39944355410E+03  0.55456093703E+01 -0.39657786518E+03  0.59704347400E+03  0.19900000000E+03 0.  0.
   -5000001    1    1    2    0    0 -0.39944355410E+03 -0.55456093703E+01 -0.83305655851E+03  0.94507678861E+03  0.19900000000E+03 0.  0.
<mgrwt>
<rscale>  0 0.93066325E+03</rscale>
<asrwt>0</asrwt>
<pdfrwt beam="1">  1        2 0.22320418E-01 0.93066325E+03</pdfrwt>
<pdfrwt beam="2">  1       -2 0.19798247E+00 0.93066325E+03</pdfrwt>
<totfact> 0.34458609E+01</totfact>
</mgrwt>
</event>
<event>
 4    1  0.5080671E-005  0.6520600E+03  0.7818608E-02  0.9802921E-01
         -2   -1    0    0    0  501 -0.00000000000E+00  0.00000000000E+00  0.41460579605E+03  0.41460579606E+03  0.25500000000E-02 0. -1.
          2   -1    0    0  501    0  0.00000000000E+00 -0.00000000000E+00 -0.25637743768E+03  0.25637743769E+03  0.25500000000E-02 0.  1.
    5000001    1    1    2    0    0  0.92300971816E+01  0.18135363592E+03 -0.10984560641E+03  0.29093193913E+03  0.19900000000E+03 0.  0.
   -5000001    1    1    2    0    0 -0.92300971816E+01 -0.18135363592E+03  0.26807396478E+03  0.38005129463E+03  0.19900000000E+03 0.  0.
<mgrwt>
<rscale>  0 0.65206003E+03</rscale>
<asrwt>0</asrwt>
<pdfrwt beam="1">  1        2 0.36625349E-01 0.65206003E+03</pdfrwt>
<pdfrwt beam="2">  1       -2 0.59229399E-01 0.65206003E+03</pdfrwt>
<totfact> 0.38175011E+02</totfact>
</mgrwt>
</event>
<event>
 4    1  0.5080671E-005  0.1194858E+04  0.7818608E-02  0.9117370E-01
         -2   -1    0    0    0  501 -0.00000000000E+00  0.00000000000E+00  0.43638718395E+03  0.43638718396E+03  0.25500000000E-02 0. -1.
          2   -1    0    0  501    0  0.00000000000E+00 -0.00000000000E+00 -0.81790017158E+03  0.81790017159E+03  0.25500000000E-02 0.  1.
    5000001    1    1    2    0    0  0.40644871199E+03 -0.94011630838E+02 -0.58810888337E+03  0.74800521449E+03  0.19900000000E+03 0.  0.
   -5000001    1    1    2    0    0 -0.40644871199E+03  0.94011630838E+02  0.20659589574E+03  0.50628214105E+03  0.19900000000E+03 0.  0.
<mgrwt>
<rscale>  0 0.11948576E+04</rscale>
<asrwt>0</asrwt>
<pdfrwt beam="1">  1        2 0.11684288E+00 0.11948576E+04</pdfrwt>
<pdfrwt beam="2">  1       -2 0.62341026E-01 0.11948576E+04</pdfrwt>
<totfact> 0.87115526E+01</totfact>
</mgrwt>
</event>
<event>
 4    1  0.5080671E-005  0.8591986E+03  0.7818608E-02  0.9478073E-01
          2   -1    0    0  501    0  0.00000000000E+00  0.00000000000E+00  0.17605031892E+04  0.17605031892E+04  0.25500000000E-02 0.  1.
         -2   -1    0    0    0  501 -0.00000000000E+00 -0.00000000000E+00 -0.10483114348E+03  0.10483114351E+03  0.25500000000E-02 0. -1.
    5000001    1    1    2    0    0 -0.27513413254E+03  0.25493637779E+03  0.68608319602E+03  0.80684725907E+03  0.19900000000E+03 0.  0.
   -5000001    1    1    2    0    0  0.27513413254E+03 -0.25493637779E+03  0.96958884969E+03  0.10584870736E+04  0.19900000000E+03 0.  0.
<mgrwt>
<rscale>  0 0.85919861E+03</rscale>
<asrwt>0</asrwt>
<pdfrwt beam="1">  1        2 0.25150042E+00 0.85919861E+03</pdfrwt>
<pdfrwt beam="2">  1       -2 0.14975880E-01 0.85919861E+03</pdfrwt>
<totfact> 0.37782534E+02</totfact>
</mgrwt>
</event>
<event>
 4    1  0.5080671E-005  0.4855253E+03  0.7818608E-02  0.1017628E+00
          2   -1    0    0  501    0  0.00000000000E+00  0.00000000000E+00  0.21912153113E+04  0.21912153113E+04  0.25500000000E-02 0.  1.
         -2   -1    0    0    0  501 -0.00000000000E+00 -0.00000000000E+00 -0.26895441019E+02  0.26895441140E+02  0.25500000000E-02 0. -1.
    5000001    1    1    2    0    0  0.54954567602E+02 -0.34340919498E+02  0.16441641996E+04  0.16574306074E+04  0.19900000000E+03 0.  0.
   -5000001    1    1    2    0    0 -0.54954567602E+02  0.34340919498E+02  0.52015567070E+03  0.56068014502E+03  0.19900000000E+03 0.  0.
<mgrwt>
<rscale>  0 0.48552529E+03</rscale>
<asrwt>0</asrwt>
<pdfrwt beam="1">  1        2 0.31303077E+00 0.48552529E+03</pdfrwt>
<pdfrwt beam="2">  1       -2 0.38422057E-02 0.48552529E+03</pdfrwt>
<totfact> 0.20553338E+03</totfact>
</mgrwt>
</event>
<event>
 4    1  0.5080671E-005  0.8658300E+03  0.7818608E-02  0.9469333E-01
         -2   -1    0    0    0  501 -0.00000000000E+00  0.00000000000E+00  0.88295683215E+02  0.88295683252E+02  0.25500000000E-02 0.  1.
          2   -1    0    0  501    0  0.00000000000E+00 -0.00000000000E+00 -0.21225884814E+04  0.21225884814E+04  0.25500000000E-02 0. -1.
    5000001    1    1    2    0    0 -0.16098094450E+02 -0.30828312790E+03 -0.43197601579E+03  0.56701138773E+03  0.19900000000E+03 0.  0.
   -5000001    1    1    2    0    0  0.16098094450E+02  0.30828312790E+03 -0.16023167824E+04  0.16438727770E+04  0.19900000000E+03 0.  0.
<mgrwt>
<rscale>  0 0.86583001E+03</rscale>
<asrwt>0</asrwt>
<pdfrwt beam="1">  1        2 0.30322689E+00 0.86583001E+03</pdfrwt>
<pdfrwt beam="2">  1       -2 0.12613670E-01 0.86583001E+03</pdfrwt>
<totfact> 0.32957601E+02</totfact>
</mgrwt>
</event>
<event>
 4    1  0.5080671E-005  0.7751376E+03  0.7818608E-02  0.9596718E-01
         -2   -1    0    0    0  501 -0.00000000000E+00  0.00000000000E+00  0.11359107311E+04  0.11359107311E+04  0.25500000000E-02 0. -1.
          2   -1    0    0  501    0  0.00000000000E+00 -0.00000000000E+00 -0.13223712361E+03  0.13223712363E+03  0.25500000000E-02 0.  1.
    5000001    1    1    2    0    0 -0.58645363580E+02  0.30938646683E+03  0.67689426531E+03  0.77262287756E+03  0.19900000000E+03 0.  0.
   -5000001    1    1    2    0    0  0.58645363580E+02 -0.30938646683E+03  0.32677934220E+03  0.49552497718E+03  0.19900000000E+03 0.  0.
<mgrwt>
<rscale>  0 0.77513758E+03</rscale>
<asrwt>0</asrwt>
<pdfrwt beam="1">  1        2 0.18891017E-01 0.77513758E+03</pdfrwt>
<pdfrwt beam="2">  1       -2 0.16227296E+00 0.77513758E+03</pdfrwt>
<totfact> 0.74486543E+01</totfact>
</mgrwt>
</event>
<event>
 4    1  0.5080671E-005  0.7732727E+03  0.7818608E-02  0.9599530E-01
          2   -1    0    0  501    0  0.00000000000E+00  0.00000000000E+00  0.11985893816E+04  0.11985893816E+04  0.25500000000E-02 0.  1.
         -2   -1    0    0    0  501 -0.00000000000E+00 -0.00000000000E+00 -0.12471967629E+03  0.12471967632E+03  0.25500000000E-02 0. -1.
    5000001    1    1    2    0    0 -0.38164257272E+02  0.32848106217E+03  0.57634557217E+03  0.69363645903E+03  0.19900000000E+03 0.  0.
   -5000001    1    1    2    0    0  0.38164257272E+02 -0.32848106217E+03  0.49752413310E+03  0.62967259886E+03  0.19900000000E+03 0.  0.
<mgrwt>
<rscale>  0 0.77327273E+03</rscale>
<asrwt>0</asrwt>
<pdfrwt beam="1">  1        2 0.17122705E+00 0.77327273E+03</pdfrwt>
<pdfrwt beam="2">  1       -2 0.17817097E-01 0.77327273E+03</pdfrwt>
<totfact> 0.56133086E+02</totfact>
</mgrwt>
</event>
<event>
 4    1  0.5080671E-005  0.8170499E+03  0.7818608E-02  0.9535661E-01
         -2   -1    0    0    0  501 -0.00000000000E+00  0.00000000000E+00  0.20379230901E+03  0.20379230902E+03  0.25500000000E-02 0. -1.
          2   -1    0    0  501    0  0.00000000000E+00 -0.00000000000E+00 -0.81893488848E+03  0.81893488848E+03  0.25500000000E-02 0.  1.
    5000001    1    1    2    0    0  0.33143332373E+03 -0.47180308890E+02 -0.46198446085E+03  0.60423891938E+03  0.19900000000E+03 0.  0.
   -5000001    1    1    2    0    0 -0.33143332373E+03  0.47180308890E+02 -0.15315811862E+03  0.41848827812E+03  0.19900000000E+03 0.  0.
<mgrwt>
<rscale>  0 0.81704989E+03</rscale>
<asrwt>0</asrwt>
<pdfrwt beam="1">  1        2 0.11699070E+00 0.81704989E+03</pdfrwt>
<pdfrwt beam="2">  1       -2 0.29113187E-01 0.81704989E+03</pdfrwt>
<totfact> 0.40061672E+02</totfact>
</mgrwt>
</event>
<event>
 4    1  0.5080671E-005  0.4614097E+03  0.7818608E-02  0.1024373E+00
         -2   -1    0    0    0  501 -0.00000000000E+00  0.00000000000E+00  0.44608400136E+02  0.44608400209E+02  0.25500000000E-02 0. -1.
          2   -1    0    0  501    0  0.00000000000E+00 -0.00000000000E+00 -0.11931546433E+04  0.11931546433E+04  0.25500000000E-02 0.  1.
    5000001    1    1    2    0    0 -0.10464979940E+03 -0.46582258500E+02 -0.63439094106E+03  0.67466610514E+03  0.19900000000E+03 0.  0.
   -5000001    1    1    2    0    0  0.10464979940E+03  0.46582258500E+02 -0.51415530206E+03  0.56309693833E+03  0.19900000000E+03 0.  0.
<mgrwt>
<rscale>  0 0.46140967E+03</rscale>
<asrwt>0</asrwt>
<pdfrwt beam="1">  1        2 0.17045064E+00 0.46140967E+03</pdfrwt>
<pdfrwt beam="2">  1       -2 0.63726293E-02 0.46140967E+03</pdfrwt>
<totfact> 0.30568063E+03</totfact>
</mgrwt>
</event>
<event>
 4    1  0.5080671E-005  0.4776411E+03  0.7818608E-02  0.1019785E+00
         -2   -1    0    0    0  501 -0.00000000000E+00  0.00000000000E+00  0.15517101946E+03  0.15517101949E+03  0.25500000000E-02 0. -1.
          2   -1    0    0  501    0  0.00000000000E+00 -0.00000000000E+00 -0.36756389472E+03  0.36756389473E+03  0.25500000000E-02 0.  1.
    5000001    1    1    2    0    0  0.12435030260E+03  0.23445024032E+02 -0.64932745170E+02  0.24460157052E+03  0.19900000000E+03 0.  0.
   -5000001    1    1    2    0    0 -0.12435030260E+03 -0.23445024032E+02 -0.14746013009E+03  0.27813334369E+03  0.19900000000E+03 0.  0.
<mgrwt>
<rscale>  0 0.47764114E+03</rscale>
<asrwt>0</asrwt>
<pdfrwt beam="1">  1        2 0.52509127E-01 0.47764114E+03</pdfrwt>
<pdfrwt beam="2">  1       -2 0.22167289E-01 0.47764114E+03</pdfrwt>
<totfact> 0.16828788E+03</totfact>
</mgrwt>
</event>
<event>
 4    1  0.5080671E-005  0.4612094E+03  0.7818608E-02  0.1024431E+00
         -2   -1    0    0    0  501 -0.00000000000E+00  0.00000000000E+00  0.34532682451E+03  0.34532682452E+03  0.25500000000E-02 0. -1.
          2   -1    0    0  501    0  0.00000000000E+00 -0.00000000000E+00 -0.15399479524E+03  0.15399479527E+03  0.25500000000E-02 0.  1.
    5000001    1    1    2    0    0  0.11182844306E+03 -0.25906650273E+02  0.73992249169E+02  0.24135577089E+03  0.19900000000E+03 0.  0.
   -5000001    1    1    2    0    0 -0.11182844306E+03  0.25906650273E+02  0.11733978010E+03  0.25796584890E+03  0.19900000000E+03 0.  0.
<mgrwt>
<rscale>  0 0.46120943E+03</rscale>
<asrwt>0</asrwt>
<pdfrwt beam="1">  1        2 0.21999257E-01 0.46120943E+03</pdfrwt>
<pdfrwt beam="2">  1       -2 0.49332403E-01 0.46120943E+03</pdfrwt>
<totfact> 0.98994194E+02</totfact>
</mgrwt>
</event>
<event>
 4    1  0.5080671E-005  0.6776314E+03  0.7818608E-02  0.9756269E-01
          2   -1    0    0  501    0  0.00000000000E+00  0.00000000000E+00  0.38718919358E+04  0.38718919358E+04  0.25500000000E-02 0.  1.
         -2   -1    0    0    0  501 -0.00000000000E+00 -0.00000000000E+00 -0.29648575769E+02  0.29648575878E+02  0.25500000000E-02 0. -1.
    5000001    1    1    2    0    0  0.88931840414E+02 -0.25613339208E+03  0.21572467041E+04  0.21833065587E+04  0.19900000000E+03 0.  0.
   -5000001    1    1    2    0    0 -0.88931840414E+02  0.25613339208E+03  0.16849966559E+04  0.17182339530E+04  0.19900000000E+03 0.  0.
<mgrwt>
<rscale>  0 0.67763141E+03</rscale>
<asrwt>0</asrwt>
<pdfrwt beam="1">  1        2 0.55312718E+00 0.67763141E+03</pdfrwt>
<pdfrwt beam="2">  1       -2 0.42355127E-02 0.67763141E+03</pdfrwt>
<totfact> 0.20279624E+02</totfact>
</mgrwt>
</event>
<event>
 4    1  0.5080671E-005  0.5280891E+03  0.7818608E-02  0.1006697E+00
         -2   -1    0    0    0  501 -0.00000000000E+00  0.00000000000E+00  0.68097065615E+02  0.68097065663E+02  0.25500000000E-02 0.  1.
          2   -1    0    0  501    0  0.00000000000E+00 -0.00000000000E+00 -0.10238255882E+04  0.10238255882E+04  0.25500000000E-02 0. -1.
    5000001    1    1    2    0    0  0.23441536272E+01  0.11855107826E+03 -0.73988725963E+03  0.77530252816E+03  0.19900000000E+03 0.  0.
   -5000001    1    1    2    0    0 -0.23441536272E+01 -0.11855107826E+03 -0.21584126299E+03  0.31662012574E+03  0.19900000000E+03 0.  0.
<mgrwt>
<rscale>  0 0.52808908E+03</rscale>
<asrwt>0</asrwt>
<pdfrwt beam="1">  1        2 0.14626079E+00 0.52808908E+03</pdfrwt>
<pdfrwt beam="2">  1       -2 0.97281529E-02 0.52808908E+03</pdfrwt>
<totfact> 0.19561096E+03</totfact>
</mgrwt>
</event>
<event>
 4    1  0.5080671E-005  0.7278112E+03  0.7818608E-02  0.9670819E-01
         -2   -1    0    0    0  501 -0.00000000000E+00  0.00000000000E+00  0.10496592129E+03  0.10496592132E+03  0.25500000000E-02 0. -1.
          2   -1    0    0  501    0  0.00000000000E+00 -0.00000000000E+00 -0.12616217109E+04  0.12616217109E+04  0.25500000000E-02 0.  1.
    5000001    1    1    2    0    0 -0.25445595492E+03 -0.16648344842E+03 -0.54261696234E+03  0.65306870957E+03  0.19900000000E+03 0.  0.
   -5000001    1    1    2    0    0  0.25445595492E+03  0.16648344842E+03 -0.61403882725E+03  0.71351892264E+03  0.19900000000E+03 0.  0.
<mgrwt>
<rscale>  0 0.72781120E+03</rscale>
<asrwt>0</asrwt>
<pdfrwt beam="1">  1        2 0.18023166E+00 0.72781120E+03</pdfrwt>
<pdfrwt beam="2">  1       -2 0.14995132E-01 0.72781120E+03</pdfrwt>
<totfact> 0.69596078E+02</totfact>
</mgrwt>
</event>
<event>
 4    1  0.5080671E-005  0.1319334E+04  0.7818608E-02  0.9014372E-01
          2   -1    0    0  501    0  0.00000000000E+00  0.00000000000E+00  0.24488715404E+04  0.24488715404E+04  0.25500000000E-02 0.  1.
         -2   -1    0    0    0  501 -0.00000000000E+00 -0.00000000000E+00 -0.17769829471E+03  0.17769829473E+03  0.25500000000E-02 0. -1.
    5000001    1    1    2    0    0 -0.25229973035E+03 -0.54617409353E+03  0.77067218002E+03  0.99774641239E+03  0.19900000000E+03 0.  0.
   -5000001    1    1    2    0    0  0.25229973035E+03  0.54617409353E+03  0.15005010656E+04  0.16288234227E+04  0.19900000000E+03 0.  0.
<mgrwt>
<rscale>  0 0.13193336E+04</rscale>
<asrwt>0</asrwt>
<pdfrwt beam="1">  1        2 0.34983876E+00 0.13193336E+04</pdfrwt>
<pdfrwt beam="2">  1       -2 0.25385473E-01 0.13193336E+04</pdfrwt>
<totfact> 0.64265618E+01</totfact>
</mgrwt>
</event>
<event>
 4    1  0.5080671E-005  0.7012449E+03  0.7818608E-02  0.9715106E-01
          2   -1    0    0  501    0  0.00000000000E+00  0.00000000000E+00  0.14153049969E+03  0.14153049971E+03  0.25500000000E-02 0.  1.
         -2   -1    0    0    0  501 -0.00000000000E+00 -0.00000000000E+00 -0.86861917239E+03  0.86861917239E+03  0.25500000000E-02 0. -1.
    5000001    1    1    2    0    0 -0.15303774751E+03 -0.22629274546E+03 -0.49795353651E+03  0.60182030818E+03  0.19900000000E+03 0.  0.
   -5000001    1    1    2    0    0  0.15303774751E+03  0.22629274546E+03 -0.22913513619E+03  0.40832936393E+03  0.19900000000E+03 0.  0.
<mgrwt>
<rscale>  0 0.70124491E+03</rscale>
<asrwt>0</asrwt>
<pdfrwt beam="1">  1        2 0.20218643E-01 0.70124491E+03</pdfrwt>
<pdfrwt beam="2">  1       -2 0.12408845E+00 0.70124491E+03</pdfrwt>
<totfact> 0.13853329E+02</totfact>
</mgrwt>
</event>
<event>
 4    1  0.5080671E-005  0.4792318E+03  0.7818608E-02  0.1019347E+00
          2   -1    0    0  501    0  0.00000000000E+00  0.00000000000E+00  0.16728237154E+04  0.16728237154E+04  0.25500000000E-02 0.  1.
         -2   -1    0    0    0  501 -0.00000000000E+00 -0.00000000000E+00 -0.34322664763E+02  0.34322664858E+02  0.25500000000E-02 0. -1.
    5000001    1    1    2    0    0 -0.35475654427E+02  0.11529668135E+03  0.61576737641E+03  0.65827221469E+03  0.19900000000E+03 0.  0.
   -5000001    1    1    2    0    0  0.35475654427E+02 -0.11529668135E+03  0.10227336742E+04  0.10488741655E+04  0.19900000000E+03 0.  0.
<mgrwt>
<rscale>  0 0.47923175E+03</rscale>
<asrwt>0</asrwt>
<pdfrwt beam="1">  1        2 0.23897485E+00 0.47923175E+03</pdfrwt>
<pdfrwt beam="2">  1       -2 0.49032371E-02 0.47923175E+03</pdfrwt>
<totfact> 0.25689923E+03</totfact>
</mgrwt>
</event>
<event>
 4    1  0.5080671E-005  0.6650291E+03  0.7818608E-02  0.9778980E-01
         -2   -1    0    0    0  501 -0.00000000000E+00  0.00000000000E+00  0.61575372258E+02  0.61575372310E+02  0.25500000000E-02 0. -1.
          2   -1    0    0  501    0  0.00000000000E+00 -0.00000000000E+00 -0.17956193997E+04  0.17956193997E+04  0.25500000000E-02 0.  1.
    5000001    1    1    2    0    0 -0.21206644544E+03  0.92718232805E+02 -0.49868738530E+03  0.58468705837E+03  0.19900000000E+03 0.  0.
   -5000001    1    1    2    0    0  0.21206644544E+03 -0.92718232805E+02 -0.12353566421E+04  0.12725077136E+04  0.19900000000E+03 0.  0.
<mgrwt>
<rscale>  0 0.66502912E+03</rscale>
<asrwt>0</asrwt>
<pdfrwt beam="1">  1        2 0.25651703E+00 0.66502912E+03</pdfrwt>
<pdfrwt beam="2">  1       -2 0.87964828E-02 0.66502912E+03</pdfrwt>
<totfact> 0.88128168E+02</totfact>
</mgrwt>
</event>
<event>
 4    1  0.5080671E-005  0.4708302E+03  0.7818608E-02  0.1021686E+00
         -2   -1    0    0    0  501 -0.00000000000E+00  0.00000000000E+00  0.84271306572E+02  0.84271306610E+02  0.25500000000E-02 0. -1.
          2   -1    0    0  501    0  0.00000000000E+00 -0.00000000000E+00 -0.65764104329E+03  0.65764104329E+03  0.25500000000E-02 0.  1.
    5000001    1    1    2    0    0 -0.11097771932E+03  0.50465810542E+02 -0.23795310747E+03  0.33329496482E+03  0.19900000000E+03 0.  0.
   -5000001    1    1    2    0    0  0.11097771932E+03 -0.50465810542E+02 -0.33541662925E+03  0.40861738509E+03  0.19900000000E+03 0.  0.
<mgrwt>
<rscale>  0 0.47083020E+03</rscale>
<asrwt>0</asrwt>
<pdfrwt beam="1">  1        2 0.93948718E-01 0.47083020E+03</pdfrwt>
<pdfrwt beam="2">  1       -2 0.12038758E-01 0.47083020E+03</pdfrwt>
<totfact> 0.24466445E+03</totfact>
</mgrwt>
</event>
<event>
 4    1  0.5080671E-005  0.5591643E+03  0.7818608E-02  0.9993947E-01
         -2   -1    0    0    0  501 -0.00000000000E+00  0.00000000000E+00  0.19155941577E+03  0.19155941579E+03  0.25500000000E-02 0. -1.
          2   -1    0    0  501    0  0.00000000000E+00 -0.00000000000E+00 -0.40805187488E+03  0.40805187489E+03  0.25500000000E-02 0.  1.
    5000001    1    1    2    0    0 -0.83944006602E+02  0.15392480681E+03 -0.13384077634E+02  0.26555522200E+03  0.19900000000E+03 0.  0.
   -5000001    1    1    2    0    0  0.83944006602E+02 -0.15392480681E+03 -0.20310838148E+03  0.33405606868E+03  0.19900000000E+03 0.  0.
<mgrwt>
<rscale>  0 0.55916430E+03</rscale>
<asrwt>0</asrwt>
<pdfrwt beam="1">  1        2 0.58293125E-01 0.55916430E+03</pdfrwt>
<pdfrwt beam="2">  1       -2 0.27365631E-01 0.55916430E+03</pdfrwt>
<totfact> 0.10293233E+03</totfact>
</mgrwt>
</event>
<event>
 4    1  0.5080671E-005  0.7489196E+03  0.7818608E-02  0.9637047E-01
         -2   -1    0    0    0  501 -0.00000000000E+00  0.00000000000E+00  0.28161653116E+03  0.28161653117E+03  0.25500000000E-02 0. -1.
          2   -1    0    0  501    0  0.00000000000E+00 -0.00000000000E+00 -0.49791158066E+03  0.49791158067E+03  0.25500000000E-02 0.  1.
    5000001    1    1    2    0    0  0.25531723433E+03 -0.14986515952E+03 -0.22670020731E+03  0.42265877511E+03  0.19900000000E+03 0.  0.
   -5000001    1    1    2    0    0 -0.25531723433E+03  0.14986515952E+03  0.10405157810E+02  0.35686933673E+03  0.19900000000E+03 0.  0.
<mgrwt>
<rscale>  0 0.74891957E+03</rscale>
<asrwt>0</asrwt>
<pdfrwt beam="1">  1        2 0.71130225E-01 0.74891957E+03</pdfrwt>
<pdfrwt beam="2">  1       -2 0.40230933E-01 0.74891957E+03</pdfrwt>
<totfact> 0.39690155E+02</totfact>
</mgrwt>
</event>
<event>
 4    1  0.5080671E-005  0.5359501E+03  0.7818608E-02  0.1004799E+00
         -2   -1    0    0    0  501 -0.00000000000E+00  0.00000000000E+00  0.75797645430E+02  0.75797645473E+02  0.25500000000E-02 0.  1.
          2   -1    0    0  501    0  0.00000000000E+00 -0.00000000000E+00 -0.94739924449E+03  0.94739924450E+03  0.25500000000E-02 0. -1.
    5000001    1    1    2    0    0 -0.16393202261E+03  0.64133047622E+02 -0.36903929915E+03  0.45472822669E+03  0.19900000000E+03 0.  0.
   -5000001    1    1    2    0    0  0.16393202261E+03 -0.64133047622E+02 -0.50256229991E+03  0.56846866328E+03  0.19900000000E+03 0.  0.
<mgrwt>
<rscale>  0 0.53595012E+03</rscale>
<asrwt>0</asrwt>
<pdfrwt beam="1">  1        2 0.13534274E+00 0.53595012E+03</pdfrwt>
<pdfrwt beam="2">  1       -2 0.10828236E-01 0.53595012E+03</pdfrwt>
<totfact> 0.18311564E+03</totfact>
</mgrwt>
</event>
<event>
 4    1  0.5080671E-005  0.4724744E+03  0.7818608E-02  0.1021224E+00
         -2   -1    0    0    0  501 -0.00000000000E+00  0.00000000000E+00  0.10273916036E+03  0.10273916039E+03  0.25500000000E-02 0. -1.
          2   -1    0    0  501    0  0.00000000000E+00 -0.00000000000E+00 -0.54320111350E+03  0.54320111351E+03  0.25500000000E-02 0.  1.
    5000001    1    1    2    0    0 -0.93661687991E+02 -0.66272442335E+02 -0.29564077027E+03  0.37439152429E+03  0.19900000000E+03 0.  0.
   -5000001    1    1    2    0    0  0.93661687991E+02  0.66272442335E+02 -0.14482118287E+03  0.27154874962E+03  0.19900000000E+03 0.  0.
<mgrwt>
<rscale>  0 0.47247445E+03</rscale>
<asrwt>0</asrwt>
<pdfrwt beam="1">  1        2 0.77600158E-01 0.47247445E+03</pdfrwt>
<pdfrwt beam="2">  1       -2 0.14677023E-01 0.47247445E+03</pdfrwt>
<totfact> 0.22035825E+03</totfact>
</mgrwt>
</event>
<event>
 4    1  0.5080671E-005  0.6830315E+03  0.7818608E-02  0.9746699E-01
         -2   -1    0    0    0  501 -0.00000000000E+00  0.00000000000E+00  0.74211526994E+02  0.74211527038E+02  0.25500000000E-02 0. -1.
          2   -1    0    0  501    0  0.00000000000E+00 -0.00000000000E+00 -0.15716294183E+04  0.15716294183E+04  0.25500000000E-02 0.  1.
    5000001    1    1    2    0    0 -0.27146924862E+03  0.53515855644E+02 -0.80108790644E+03  0.87057586321E+03  0.19900000000E+03 0.  0.
   -5000001    1    1    2    0    0  0.27146924862E+03 -0.53515855644E+02 -0.69632998485E+03  0.77526508212E+03  0.19900000000E+03 0.  0.
<mgrwt>
<rscale>  0 0.68303153E+03</rscale>
<asrwt>0</asrwt>
<pdfrwt beam="1">  1        2 0.22451847E+00 0.68303153E+03</pdfrwt>
<pdfrwt beam="2">  1       -2 0.10601648E-01 0.68303153E+03</pdfrwt>
<totfact> 0.84725822E+02</totfact>
</mgrwt>
</event>
<event>
 4    1  0.5080671E-005  0.6302814E+03  0.7818608E-02  0.9844500E-01
          2   -1    0    0  501    0  0.00000000000E+00  0.00000000000E+00  0.31377017662E+03  0.31377017663E+03  0.25500000000E-02 0.  1.
         -2   -1    0    0    0  501 -0.00000000000E+00 -0.00000000000E+00 -0.31651716098E+03  0.31651716099E+03  0.25500000000E-02 0. -1.
    5000001    1    1    2    0    0 -0.55918669639E+02 -0.21769454799E+03  0.94517103443E+02  0.31472574836E+03  0.19900000000E+03 0.  0.
   -5000001    1    1    2    0    0  0.55918669639E+02  0.21769454799E+03 -0.97264087807E+02  0.31556158926E+03  0.19900000000E+03 0.  0.
<mgrwt>
<rscale>  0 0.63028135E+03</rscale>
<asrwt>0</asrwt>
<pdfrwt beam="1">  1        2 0.44824311E-01 0.63028135E+03</pdfrwt>
<pdfrwt beam="2">  1       -2 0.45216737E-01 0.63028135E+03</pdfrwt>
<totfact> 0.53004691E+02</totfact>
</mgrwt>
</event>
<event>
 4    1  0.5080671E-005  0.7412491E+03  0.7818608E-02  0.9649180E-01
         -2   -1    0    0    0  501 -0.00000000000E+00  0.00000000000E+00  0.13997550418E+03  0.13997550420E+03  0.25500000000E-02 0. -1.
          2   -1    0    0  501    0  0.00000000000E+00 -0.00000000000E+00 -0.98133283474E+03  0.98133283475E+03  0.25500000000E-02 0.  1.
    5000001    1    1    2    0    0 -0.15293673380E+03 -0.26597328741E+03 -0.32953602385E+03  0.49226662001E+03  0.19900000000E+03 0.  0.
   -5000001    1    1    2    0    0  0.15293673380E+03  0.26597328741E+03 -0.51182130672E+03  0.62904171894E+03  0.19900000000E+03 0.  0.
<mgrwt>
<rscale>  0 0.74124910E+03</rscale>
<asrwt>0</asrwt>
<pdfrwt beam="1">  1        2 0.14019040E+00 0.74124910E+03</pdfrwt>
<pdfrwt beam="2">  1       -2 0.19996501E-01 0.74124910E+03</pdfrwt>
<totfact> 0.61796801E+02</totfact>
</mgrwt>
</event>
<event>
 4    1  0.5080671E-005  0.5728934E+03  0.7818608E-02  0.9963296E-01
         -2   -1    0    0    0  501 -0.00000000000E+00  0.00000000000E+00  0.12578489773E+03  0.12578489775E+03  0.25500000000E-02 0. -1.
          2   -1    0    0  501    0  0.00000000000E+00 -0.00000000000E+00 -0.65231768276E+03  0.65231768276E+03  0.25500000000E-02 0.  1.
    5000001    1    1    2    0    0 -0.20226107440E+03 -0.17972269771E+02 -0.21586220741E+03  0.35697344059E+03  0.19900000000E+03 0.  0.
   -5000001    1    1    2    0    0  0.20226107440E+03  0.17972269771E+02 -0.31067057762E+03  0.42112913993E+03  0.19900000000E+03 0.  0.
<mgrwt>
<rscale>  0 0.57289340E+03</rscale>
<asrwt>0</asrwt>
<pdfrwt beam="1">  1        2 0.93188238E-01 0.57289340E+03</pdfrwt>
<pdfrwt beam="2">  1       -2 0.17969272E-01 0.57289340E+03</pdfrwt>
<totfact> 0.12630957E+03</totfact>
</mgrwt>
</event>
<event>
 4    1  0.5080671E-005  0.7568364E+03  0.7818608E-02  0.9624686E-01
          2   -1    0    0  501    0  0.00000000000E+00  0.00000000000E+00  0.38191242846E+03  0.38191242847E+03  0.25500000000E-02 0.  1.
         -2   -1    0    0    0  501 -0.00000000000E+00 -0.00000000000E+00 -0.37495594948E+03  0.37495594949E+03  0.25500000000E-02 0. -1.
    5000001    1    1    2    0    0  0.27689495002E+03 -0.16049943931E+03  0.37662337949E+02  0.37874837962E+03  0.19900000000E+03 0.  0.
   -5000001    1    1    2    0    0 -0.27689495002E+03  0.16049943931E+03 -0.30705858967E+02  0.37811999834E+03  0.19900000000E+03 0.  0.
<mgrwt>
<rscale>  0 0.75683641E+03</rscale>
<asrwt>0</asrwt>
<pdfrwt beam="1">  1        2 0.54558918E-01 0.75683641E+03</pdfrwt>
<pdfrwt beam="2">  1       -2 0.53565136E-01 0.75683641E+03</pdfrwt>
<totfact> 0.30145556E+02</totfact>
</mgrwt>
</event>
<event>
 4    1  0.5080671E-005  0.5861235E+03  0.7818608E-02  0.9934621E-01
          2   -1    0    0  501    0  0.00000000000E+00  0.00000000000E+00  0.30553231657E+04  0.30553231657E+04  0.25500000000E-02 0.  1.
         -2   -1    0    0    0  501 -0.00000000000E+00 -0.00000000000E+00 -0.28110017353E+02  0.28110017469E+02  0.25500000000E-02 0. -1.
    5000001    1    1    2    0    0  0.20466448700E+03  0.63133921253E+02  0.16202245833E+04  0.16463906415E+04  0.19900000000E+03 0.  0.
   -5000001    1    1    2    0    0 -0.20466448700E+03 -0.63133921253E+02  0.14069885651E+04  0.14370425416E+04  0.19900000000E+03 0.  0.
<mgrwt>
<rscale>  0 0.58612349E+03</rscale>
<asrwt>0</asrwt>
<pdfrwt beam="1">  1        2 0.43647424E+00 0.58612349E+03</pdfrwt>
<pdfrwt beam="2">  1       -2 0.40157213E-02 0.58612349E+03</pdfrwt>
<totfact> 0.67824912E+02</totfact>
</mgrwt>
</event>
<event>
 4    1  0.5080671E-005  0.6768216E+03  0.7818608E-02  0.9757713E-01
          2   -1    0    0  501    0  0.00000000000E+00  0.00000000000E+00  0.10148958502E+04  0.10148958502E+04  0.25500000000E-02 0.  1.
         -2   -1    0    0    0  501 -0.00000000000E+00 -0.00000000000E+00 -0.11284099870E+03  0.11284099873E+03  0.25500000000E-02 0. -1.
    5000001    1    1    2    0    0  0.23777492461E+03 -0.85779089257E+02  0.27606673244E+03  0.42392075638E+03  0.19900000000E+03 0.  0.
   -5000001    1    1    2    0    0 -0.23777492461E+03  0.85779089257E+02  0.62598811902E+03  0.70381609251E+03  0.19900000000E+03 0.  0.
<mgrwt>
<rscale>  0 0.67682158E+03</rscale>
<asrwt>0</asrwt>
<pdfrwt beam="1">  1        2 0.14498511E+00 0.67682158E+03</pdfrwt>
<pdfrwt beam="2">  1       -2 0.16120143E-01 0.67682158E+03</pdfrwt>
<totfact> 0.85627532E+02</totfact>
</mgrwt>
</event>
<event>
 4    1  0.5080671E-005  0.1572293E+04  0.7818608E-02  0.8837752E-01
         -2   -1    0    0    0  501 -0.00000000000E+00  0.00000000000E+00  0.24857385253E+03  0.24857385254E+03  0.25500000000E-02 0. -1.
          2   -1    0    0  501    0  0.00000000000E+00 -0.00000000000E+00 -0.24862893458E+04  0.24862893458E+04  0.25500000000E-02 0.  1.
    5000001    1    1    2    0    0  0.12486658907E+03  0.74583991725E+03 -0.12597035302E+04  0.14826742162E+04  0.19900000000E+03 0.  0.
   -5000001    1    1    2    0    0 -0.12486658907E+03 -0.74583991725E+03 -0.97801196308E+03  0.12521889822E+04  0.19900000000E+03 0.  0.
<mgrwt>
<rscale>  0 0.15722933E+04</rscale>
<asrwt>0</asrwt>
<pdfrwt beam="1">  1        2 0.35518418E+00 0.15722933E+04</pdfrwt>
<pdfrwt beam="2">  1       -2 0.35510552E-01 0.15722933E+04</pdfrwt>
<totfact> 0.32186347E+01</totfact>
</mgrwt>
</event>
<event>
 4    1  0.5080671E-005  0.6086605E+03  0.7818608E-02  0.9887599E-01
         -2   -1    0    0    0  501 -0.00000000000E+00  0.00000000000E+00  0.40600865342E+02  0.40600865422E+02  0.25500000000E-02 0. -1.
          2   -1    0    0  501    0  0.00000000000E+00 -0.00000000000E+00 -0.22811561706E+04  0.22811561706E+04  0.25500000000E-02 0.  1.
    5000001    1    1    2    0    0 -0.18931097837E+03  0.42972661216E+02 -0.64797383309E+03  0.70509317434E+03  0.19900000000E+03 0.  0.
   -5000001    1    1    2    0    0  0.18931097837E+03 -0.42972661216E+02 -0.15925814721E+04  0.16166638616E+04  0.19900000000E+03 0.  0.
<mgrwt>
<rscale>  0 0.60866054E+03</rscale>
<asrwt>0</asrwt>
<pdfrwt beam="1">  1        2 0.32587937E+00 0.60866054E+03</pdfrwt>
<pdfrwt beam="2">  1       -2 0.58001251E-02 0.60866054E+03</pdfrwt>
<totfact> 0.97356054E+02</totfact>
</mgrwt>
</event>
<event>
 4    1  0.5080671E-005  0.7292247E+03  0.7818608E-02  0.9668519E-01
          2   -1    0    0  501    0  0.00000000000E+00  0.00000000000E+00  0.43095928380E+03  0.43095928380E+03  0.25500000000E-02 0.  1.
         -2   -1    0    0    0  501 -0.00000000000E+00 -0.00000000000E+00 -0.30847967681E+03  0.30847967682E+03  0.25500000000E-02 0. -1.
    5000001    1    1    2    0    0 -0.26772720403E+03  0.14246378943E+03  0.98736041039E+02  0.37593030322E+03  0.19900000000E+03 0.  0.
   -5000001    1    1    2    0    0  0.26772720403E+03 -0.14246378943E+03  0.23743565952E+02  0.36350865740E+03  0.19900000000E+03 0.  0.
<mgrwt>
<rscale>  0 0.72922474E+03</rscale>
<asrwt>0</asrwt>
<pdfrwt beam="1">  1        2 0.61565612E-01 0.72922474E+03</pdfrwt>
<pdfrwt beam="2">  1       -2 0.44068525E-01 0.72922474E+03</pdfrwt>
<totfact> 0.39102776E+02</totfact>
</mgrwt>
</event>
<event>
 4    1  0.5080671E-005  0.4262430E+03  0.7818608E-02  0.1035053E+00
         -2   -1    0    0    0  501 -0.00000000000E+00  0.00000000000E+00  0.83463270737E+02  0.83463270776E+02  0.25500000000E-02 0. -1.
          2   -1    0    0  501    0  0.00000000000E+00 -0.00000000000E+00 -0.54420076896E+03  0.54420076897E+03  0.25500000000E-02 0.  1.
    5000001    1    1    2    0    0 -0.39600538290E+02 -0.35480612219E+01 -0.13449473655E+03  0.24345559252E+03  0.19900000000E+03 0.  0.
   -5000001    1    1    2    0    0  0.39600538290E+02  0.35480612219E+01 -0.32624276168E+03  0.38420844722E+03  0.19900000000E+03 0.  0.
<mgrwt>
<rscale>  0 0.42624301E+03</rscale>
<asrwt>0</asrwt>
<pdfrwt beam="1">  1        2 0.77742965E-01 0.42624301E+03</pdfrwt>
<pdfrwt beam="2">  1       -2 0.11923325E-01 0.42624301E+03</pdfrwt>
<totfact> 0.30954966E+03</totfact>
</mgrwt>
</event>
<event>
 4    1  0.5080671E-005  0.5056384E+03  0.7818608E-02  0.1012318E+00
          2   -1    0    0  501    0  0.00000000000E+00  0.00000000000E+00  0.25967630805E+03  0.25967630806E+03  0.25500000000E-02 0.  1.
         -2   -1    0    0    0  501 -0.00000000000E+00 -0.00000000000E+00 -0.24614321005E+03  0.24614321006E+03  0.25500000000E-02 0. -1.
    5000001    1    1    2    0    0 -0.78825668074E+02  0.70747370391E+02 -0.10772042018E+03  0.24984668356E+03  0.19900000000E+03 0.  0.
   -5000001    1    1    2    0    0  0.78825668074E+02 -0.70747370391E+02  0.12125351817E+03  0.25597283456E+03  0.19900000000E+03 0.  0.
<mgrwt>
<rscale>  0 0.50563845E+03</rscale>
<asrwt>0</asrwt>
<pdfrwt beam="1">  1        2 0.37096615E-01 0.50563845E+03</pdfrwt>
<pdfrwt beam="2">  1       -2 0.35163316E-01 0.50563845E+03</pdfrwt>
<totfact> 0.10646206E+03</totfact>
</mgrwt>
</event>
<event>
 4    1  0.5080671E-005  0.6576659E+03  0.7818608E-02  0.9792500E-01
          2   -1    0    0  501    0  0.00000000000E+00  0.00000000000E+00  0.18953482441E+04  0.18953482441E+04  0.25500000000E-02 0.  1.
         -2   -1    0    0    0  501 -0.00000000000E+00 -0.00000000000E+00 -0.57050787821E+02  0.57050787878E+02  0.25500000000E-02 0. -1.
    5000001    1    1    2    0    0 -0.24751902592E+03 -0.40851634911E+02  0.69708069004E+03  0.76710951806E+03  0.19900000000E+03 0.  0.
   -5000001    1    1    2    0    0  0.24751902592E+03  0.40851634911E+02  0.11412167663E+04  0.11852895139E+04  0.19900000000E+03 0.  0.
<mgrwt>
<rscale>  0 0.65766590E+03</rscale>
<asrwt>0</asrwt>
<pdfrwt beam="1">  1        2 0.27076408E+00 0.65766590E+03</pdfrwt>
<pdfrwt beam="2">  1       -2 0.81501113E-02 0.65766590E+03</pdfrwt>
<totfact> 0.88715467E+02</totfact>
</mgrwt>
</event>
<event>
 4    1  0.5080671E-005  0.7570598E+03  0.7818608E-02  0.9624339E-01
         -2   -1    0    0    0  501 -0.00000000000E+00  0.00000000000E+00  0.53363502338E+02  0.53363502399E+02  0.25500000000E-02 0. -1.
          2   -1    0    0  501    0  0.00000000000E+00 -0.00000000000E+00 -0.26850729971E+04  0.26850729971E+04  0.25500000000E-02 0.  1.
    5000001    1    1    2    0    0  0.15100182524E+03 -0.25560367183E+03 -0.86480416373E+03  0.93574677658E+03  0.19900000000E+03 0.  0.
   -5000001    1    1    2    0    0 -0.15100182524E+03  0.25560367183E+03 -0.17669053310E+04  0.18026897229E+04  0.19900000000E+03 0.  0.
<mgrwt>
<rscale>  0 0.75705984E+03</rscale>
<asrwt>0</asrwt>
<pdfrwt beam="1">  1        2 0.38358177E+00 0.75705984E+03</pdfrwt>
<pdfrwt beam="2">  1       -2 0.76233592E-02 0.75705984E+03</pdfrwt>
<totfact> 0.38718594E+02</totfact>
</mgrwt>
</event>
<event>
 4    1  0.5080671E-005  0.4807918E+03  0.7818608E-02  0.1018918E+00
         -2   -1    0    0    0  501 -0.00000000000E+00  0.00000000000E+00  0.87896018983E+02  0.87896019020E+02  0.25500000000E-02 0. -1.
          2   -1    0    0  501    0  0.00000000000E+00 -0.00000000000E+00 -0.65748344981E+03  0.65748344981E+03  0.25500000000E-02 0.  1.
    5000001    1    1    2    0    0  0.37865544834E+02  0.69330415014E+02 -0.45425879993E+03  0.50218777688E+03  0.19900000000E+03 0.  0.
   -5000001    1    1    2    0    0 -0.37865544834E+02 -0.69330415014E+02 -0.11532863089E+03  0.24319169195E+03  0.19900000000E+03 0.  0.
<mgrwt>
<rscale>  0 0.48079175E+03</rscale>
<asrwt>0</asrwt>
<pdfrwt beam="1">  1        2 0.93926204E-01 0.48079175E+03</pdfrwt>
<pdfrwt beam="2">  1       -2 0.12556575E-01 0.48079175E+03</pdfrwt>
<totfact> 0.22842377E+03</totfact>
</mgrwt>
</event>
<event>
 4    1  0.5080671E-005  0.5816083E+03  0.7818608E-02  0.9944315E-01
         -2   -1    0    0    0  501 -0.00000000000E+00  0.00000000000E+00  0.73828436385E+03  0.73828436385E+03  0.25500000000E-02 0. -1.
          2   -1    0    0  501    0  0.00000000000E+00 -0.00000000000E+00 -0.11454537253E+03  0.11454537256E+03  0.25500000000E-02 0.  1.
    5000001    1    1    2    0    0 -0.12869971061E+01 -0.13784391292E+03  0.54814189235E+03  0.59921877043E+03  0.19900000000E+03 0.  0.
   -5000001    1    1    2    0    0  0.12869971061E+01  0.13784391292E+03  0.75597098973E+02  0.25361096598E+03  0.19900000000E+03 0.  0.
<mgrwt>
<rscale>  0 0.58160831E+03</rscale>
<asrwt>0</asrwt>
<pdfrwt beam="1">  1        2 0.16363624E-01 0.58160831E+03</pdfrwt>
<pdfrwt beam="2">  1       -2 0.10546920E+00 0.58160831E+03</pdfrwt>
<totfact> 0.26562812E+02</totfact>
</mgrwt>
</event>
<event>
 4    1  0.5080671E-005  0.1009907E+04  0.7818608E-02  0.9297745E-01
          2   -1    0    0  501    0  0.00000000000E+00  0.00000000000E+00  0.21593600157E+04  0.21593600157E+04  0.25500000000E-02 0.  1.
         -2   -1    0    0    0  501 -0.00000000000E+00 -0.00000000000E+00 -0.11808032831E+03  0.11808032833E+03  0.25500000000E-02 0. -1.
    5000001    1    1    2    0    0  0.19485179543E+03  0.15790013511E+03  0.19012187069E+04  0.19279868376E+04  0.19900000000E+03 0.  0.
   -5000001    1    1    2    0    0 -0.19485179543E+03 -0.15790013511E+03  0.14006098052E+03  0.34945350637E+03  0.19900000000E+03 0.  0.
<mgrwt>
<rscale>  0 0.10099068E+04</rscale>
<asrwt>0</asrwt>
<pdfrwt beam="1">  1        2 0.30847998E+00 0.10099068E+04</pdfrwt>
<pdfrwt beam="2">  1       -2 0.16868620E-01 0.10099068E+04</pdfrwt>
<totfact> 0.19108233E+02</totfact>
</mgrwt>
</event>
<event>
 4    1  0.5080671E-005  0.5864386E+03  0.7818608E-02  0.9933948E-01
         -2   -1    0    0    0  501 -0.00000000000E+00  0.00000000000E+00  0.35064399259E+02  0.35064399351E+02  0.25500000000E-02 0. -1.
          2   -1    0    0  501    0  0.00000000000E+00 -0.00000000000E+00 -0.24519898626E+04  0.24519898626E+04  0.25500000000E-02 0.  1.
    5000001    1    1    2    0    0  0.13388089686E+03  0.14102674886E+03 -0.16009258557E+04  0.16249237625E+04  0.19900000000E+03 0.  0.
   -5000001    1    1    2    0    0 -0.13388089686E+03 -0.14102674886E+03 -0.81599960758E+03  0.86213049941E+03  0.19900000000E+03 0.  0.
<mgrwt>
<rscale>  0 0.58643858E+03</rscale>
<asrwt>0</asrwt>
<pdfrwt beam="1">  1        2 0.35028416E+00 0.58643858E+03</pdfrwt>
<pdfrwt beam="2">  1       -2 0.50092015E-02 0.58643858E+03</pdfrwt>
<totfact> 0.10031261E+03</totfact>
</mgrwt>
</event>
<event>
 4    1  0.5080671E-005  0.5554121E+03  0.7818608E-02  0.1000249E+00
          2   -1    0    0  501    0  0.00000000000E+00  0.00000000000E+00  0.17392346953E+04  0.17392346953E+04  0.25500000000E-02 0.  1.
         -2   -1    0    0    0  501 -0.00000000000E+00 -0.00000000000E+00 -0.44341720237E+02  0.44341720310E+02  0.25500000000E-02 0. -1.
    5000001    1    1    2    0    0 -0.11458302523E+03 -0.17250232148E+02  0.13458948375E+04  0.13654525820E+04  0.19900000000E+03 0.  0.
   -5000001    1    1    2    0    0  0.11458302523E+03  0.17250232148E+02  0.34899813756E+03  0.41812383357E+03  0.19900000000E+03 0.  0.
<mgrwt>
<rscale>  0 0.55541213E+03</rscale>
<asrwt>0</asrwt>
<pdfrwt beam="1">  1        2 0.24846211E+00 0.55541213E+03</pdfrwt>
<pdfrwt beam="2">  1       -2 0.63345312E-02 0.55541213E+03</pdfrwt>
<totfact> 0.15930283E+03</totfact>
</mgrwt>
</event>
<event>
 4    1  0.5080671E-005  0.4650983E+03  0.7818608E-02  0.1023313E+00
          2   -1    0    0  501    0  0.00000000000E+00  0.00000000000E+00  0.40351614724E+04  0.40351614724E+04  0.25500000000E-02 0.  1.
         -2   -1    0    0    0  501 -0.00000000000E+00 -0.00000000000E+00 -0.13401967999E+02  0.13401968242E+02  0.25500000000E-02 0. -1.
    5000001    1    1    2    0    0  0.95217241387E+02 -0.34504369144E+02  0.14453235666E+04  0.14624698584E+04  0.19900000000E+03 0.  0.
   -5000001    1    1    2    0    0 -0.95217241387E+02  0.34504369144E+02  0.25764359378E+04  0.25860935823E+04  0.19900000000E+03 0.  0.
<mgrwt>
<rscale>  0 0.46509829E+03</rscale>
<asrwt>0</asrwt>
<pdfrwt beam="1">  1        2 0.57645176E+00 0.46509829E+03</pdfrwt>
<pdfrwt beam="2">  1       -2 0.19145665E-02 0.46509829E+03</pdfrwt>
<totfact> 0.54427682E+02</totfact>
</mgrwt>
</event>
<event>
 4    1  0.5080671E-005  0.5568313E+03  0.7818608E-02  0.9999250E-01
         -2   -1    0    0    0  501 -0.00000000000E+00  0.00000000000E+00  0.28539221448E+02  0.28539221562E+02  0.25500000000E-02 0. -1.
          2   -1    0    0  501    0  0.00000000000E+00 -0.00000000000E+00 -0.27160961132E+04  0.27160961132E+04  0.25500000000E-02 0.  1.
    5000001    1    1    2    0    0 -0.18365209077E+03 -0.54469285517E+02 -0.15158907339E+04  0.15408506451E+04  0.19900000000E+03 0.  0.
   -5000001    1    1    2    0    0  0.18365209077E+03  0.54469285517E+02 -0.11716661579E+04  0.12037846896E+04  0.19900000000E+03 0.  0.
<mgrwt>
<rscale>  0 0.55683128E+03</rscale>
<asrwt>0</asrwt>
<pdfrwt beam="1">  1        2 0.38801357E+00 0.55683128E+03</pdfrwt>
<pdfrwt beam="2">  1       -2 0.40770334E-02 0.55683128E+03</pdfrwt>
<totfact> 0.10090140E+03</totfact>
</mgrwt>
</event>
<event>
 4    1  0.5080671E-005  0.6584633E+03  0.7818608E-02  0.9791027E-01
          2   -1    0    0  501    0  0.00000000000E+00  0.00000000000E+00  0.19864033690E+03  0.19864033692E+03  0.25500000000E-02 0.  1.
         -2   -1    0    0    0  501 -0.00000000000E+00 -0.00000000000E+00 -0.54567705904E+03  0.54567705905E+03  0.25500000000E-02 0. -1.
    5000001    1    1    2    0    0 -0.37521478578E+02 -0.20150011927E+03  0.11472666386E+02  0.28590694552E+03  0.19900000000E+03 0.  0.
   -5000001    1    1    2    0    0  0.37521478578E+02  0.20150011927E+03 -0.35850938852E+03  0.45841045045E+03  0.19900000000E+03 0.  0.
<mgrwt>
<rscale>  0 0.65846329E+03</rscale>
<asrwt>0</asrwt>
<pdfrwt beam="1">  1        2 0.28377191E-01 0.65846329E+03</pdfrwt>
<pdfrwt beam="2">  1       -2 0.77953865E-01 0.65846329E+03</pdfrwt>
<totfact> 0.28048542E+02</totfact>
</mgrwt>
</event>
<event>
 4    1  0.5080671E-005  0.7046382E+03  0.7818608E-02  0.9709333E-01
          2   -1    0    0  501    0  0.00000000000E+00  0.00000000000E+00  0.66117943072E+03  0.66117943072E+03  0.25500000000E-02 0.  1.
         -2   -1    0    0    0  501 -0.00000000000E+00 -0.00000000000E+00 -0.18773836710E+03  0.18773836712E+03  0.25500000000E-02 0. -1.
    5000001    1    1    2    0    0 -0.72949186923E+02  0.23929695438E+03  0.41518376236E+03  0.52398776014E+03  0.19900000000E+03 0.  0.
   -5000001    1    1    2    0    0  0.72949186923E+02 -0.23929695438E+03  0.58257301256E+02  0.32493003770E+03  0.19900000000E+03 0.  0.
<mgrwt>
<rscale>  0 0.70463820E+03</rscale>
<asrwt>0</asrwt>
<pdfrwt beam="1">  1        2 0.94454202E-01 0.70463820E+03</pdfrwt>
<pdfrwt beam="2">  1       -2 0.26819767E-01 0.70463820E+03</pdfrwt>
<totfact> 0.61113213E+02</totfact>
</mgrwt>
</event>
<event>
 4    1  0.5080671E-005  0.7206398E+03  0.7818608E-02  0.9682572E-01
         -2   -1    0    0    0  501 -0.00000000000E+00  0.00000000000E+00  0.53307809293E+02  0.53307809354E+02  0.25500000000E-02 0. -1.
          2   -1    0    0  501    0  0.00000000000E+00 -0.00000000000E+00 -0.24354859735E+04  0.24354859735E+04  0.25500000000E-02 0.  1.
    5000001    1    1    2    0    0 -0.13195658628E+03 -0.24311370379E+03 -0.78667085784E+03  0.85730324402E+03  0.19900000000E+03 0.  0.
   -5000001    1    1    2    0    0  0.13195658628E+03  0.24311370379E+03 -0.15955073064E+04  0.16314905388E+04  0.19900000000E+03 0.  0.
<mgrwt>
<rscale>  0 0.72063978E+03</rscale>
<asrwt>0</asrwt>
<pdfrwt beam="1">  1        2 0.34792650E+00 0.72063978E+03</pdfrwt>
<pdfrwt beam="2">  1       -2 0.76154029E-02 0.72063978E+03</pdfrwt>
<totfact> 0.52426470E+02</totfact>
</mgrwt>
</event>
<event>
 4    1  0.5080671E-005  0.7711447E+03  0.7818608E-02  0.9602749E-01
          2   -1    0    0  501    0  0.00000000000E+00  0.00000000000E+00  0.57016162543E+03  0.57016162543E+03  0.25500000000E-02 0.  1.
         -2   -1    0    0    0  501 -0.00000000000E+00 -0.00000000000E+00 -0.26074368401E+03  0.26074368402E+03  0.25500000000E-02 0. -1.
    5000001    1    1    2    0    0 -0.17314007937E+03  0.28105531290E+03  0.14418107362E+03  0.41153220771E+03  0.19900000000E+03 0.  0.
   -5000001    1    1    2    0    0  0.17314007937E+03 -0.28105531290E+03  0.16523686779E+03  0.41937310175E+03  0.19900000000E+03 0.  0.
<mgrwt>
<rscale>  0 0.77114471E+03</rscale>
<asrwt>0</asrwt>
<pdfrwt beam="1">  1        2 0.81451662E-01 0.77114471E+03</pdfrwt>
<pdfrwt beam="2">  1       -2 0.37249097E-01 0.77114471E+03</pdfrwt>
<totfact> 0.39356795E+02</totfact>
</mgrwt>
</event>
<event>
 4    1  0.5080671E-005  0.5916124E+03  0.7818608E-02  0.9922962E-01
          2   -1    0    0  501    0  0.00000000000E+00  0.00000000000E+00  0.22907213796E+04  0.22907213796E+04  0.25500000000E-02 0.  1.
         -2   -1    0    0    0  501 -0.00000000000E+00 -0.00000000000E+00 -0.38198147411E+02  0.38198147496E+02  0.25500000000E-02 0. -1.
    5000001    1    1    2    0    0  0.18618493197E+03  0.86216271646E+02  0.14261191710E+04  0.14544809948E+04  0.19900000000E+03 0.  0.
   -5000001    1    1    2    0    0 -0.18618493197E+03 -0.86216271646E+02  0.82640406117E+03  0.87443853226E+03  0.19900000000E+03 0.  0.
<mgrwt>
<rscale>  0 0.59161242E+03</rscale>
<asrwt>0</asrwt>
<pdfrwt beam="1">  1        2 0.32724584E+00 0.59161242E+03</pdfrwt>
<pdfrwt beam="2">  1       -2 0.54568794E-02 0.59161242E+03</pdfrwt>
<totfact> 0.10601052E+03</totfact>
</mgrwt>
</event>
<event>
 4    1  0.5080671E-005  0.5295729E+03  0.7818608E-02  0.1006336E+00
          2   -1    0    0  501    0  0.00000000000E+00  0.00000000000E+00  0.73716501655E+03  0.73716501656E+03  0.25500000000E-02 0.  1.
         -2   -1    0    0    0  501 -0.00000000000E+00 -0.00000000000E+00 -0.95110126537E+02  0.95110126571E+02  0.25500000000E-02 0. -1.
    5000001    1    1    2    0    0  0.12626033680E+03  0.12003643974E+03  0.30112091822E+03  0.40078077163E+03  0.19900000000E+03 0.  0.
   -5000001    1    1    2    0    0 -0.12626033680E+03 -0.12003643974E+03  0.34093397179E+03  0.43149437150E+03  0.19900000000E+03 0.  0.
<mgrwt>
<rscale>  0 0.52957288E+03</rscale>
<asrwt>0</asrwt>
<pdfrwt beam="1">  1        2 0.10530929E+00 0.52957288E+03</pdfrwt>
<pdfrwt beam="2">  1       -2 0.13587161E-01 0.52957288E+03</pdfrwt>
<totfact> 0.17451865E+03</totfact>
</mgrwt>
</event>
<event>
 4    1  0.5080671E-005  0.6069665E+03  0.7818608E-02  0.9891057E-01
         -2   -1    0    0    0  501 -0.00000000000E+00  0.00000000000E+00  0.72598239308E+03  0.72598239308E+03  0.25500000000E-02 0. -1.
          2   -1    0    0  501    0  0.00000000000E+00 -0.00000000000E+00 -0.12686543738E+03  0.12686543741E+03  0.25500000000E-02 0.  1.
    5000001    1    1    2    0    0  0.72154843656E+02 -0.18577846708E+03  0.45840993221E+03  0.53801545168E+03  0.19900000000E+03 0.  0.
   -5000001    1    1    2    0    0 -0.72154843656E+02  0.18577846708E+03  0.14070702348E+03  0.31483237882E+03  0.19900000000E+03 0.  0.
<mgrwt>
<rscale>  0 0.60696647E+03</rscale>
<asrwt>0</asrwt>
<pdfrwt beam="1">  1        2 0.18123634E-01 0.60696647E+03</pdfrwt>
<pdfrwt beam="2">  1       -2 0.10371177E+00 0.60696647E+03</pdfrwt>
<totfact> 0.24463815E+02</totfact>
</mgrwt>
</event>
<event>
 4    1  0.5080671E-005  0.6901393E+03  0.7818608E-02  0.9734245E-01
          2   -1    0    0  501    0  0.00000000000E+00  0.00000000000E+00  0.15159382399E+04  0.15159382399E+04  0.25500000000E-02 0.  1.
         -2   -1    0    0    0  501 -0.00000000000E+00 -0.00000000000E+00 -0.78547445777E+02  0.78547445818E+02  0.25500000000E-02 0. -1.
    5000001    1    1    2    0    0 -0.76640795355E+02 -0.98936955906E+02  0.13023116023E+04  0.13233589242E+04  0.19900000000E+03 0.  0.
   -5000001    1    1    2    0    0  0.76640795355E+02  0.98936955906E+02  0.13507919184E+03  0.27112676154E+03  0.19900000000E+03 0.  0.
<mgrwt>
<rscale>  0 0.69013934E+03</rscale>
<asrwt>0</asrwt>
<pdfrwt beam="1">  1        2 0.21656260E+00 0.69013934E+03</pdfrwt>
<pdfrwt beam="2">  1       -2 0.11221064E-01 0.69013934E+03</pdfrwt>
<totfact> 0.82505166E+02</totfact>
</mgrwt>
</event>
<event>
 4    1  0.5080671E-005  0.8556459E+03  0.7818608E-02  0.9482790E-01
          2   -1    0    0  501    0  0.00000000000E+00  0.00000000000E+00  0.75119266221E+03  0.75119266222E+03  0.25500000000E-02 0.  1.
         -2   -1    0    0    0  501 -0.00000000000E+00 -0.00000000000E+00 -0.24365584033E+03  0.24365584035E+03  0.25500000000E-02 0. -1.
    5000001    1    1    2    0    0 -0.64554557410E+02 -0.35230000784E+03  0.39687292130E+03  0.57043115454E+03  0.19900000000E+03 0.  0.
   -5000001    1    1    2    0    0  0.64554557410E+02  0.35230000784E+03  0.11066390058E+03  0.42441734802E+03  0.19900000000E+03 0.  0.
<mgrwt>
<rscale>  0 0.85564591E+03</rscale>
<asrwt>0</asrwt>
<pdfrwt beam="1">  1        2 0.10731324E+00 0.85564591E+03</pdfrwt>
<pdfrwt beam="2">  1       -2 0.34807977E-01 0.85564591E+03</pdfrwt>
<totfact> 0.31961797E+02</totfact>
</mgrwt>
</event>
<event>
 4    1  0.5080671E-005  0.1228788E+04  0.7818608E-02  0.9088025E-01
         -2   -1    0    0    0  501 -0.00000000000E+00  0.00000000000E+00  0.32689197210E+03  0.32689197211E+03  0.25500000000E-02 0. -1.
          2   -1    0    0  501    0  0.00000000000E+00 -0.00000000000E+00 -0.11547546118E+04  0.11547546118E+04  0.25500000000E-02 0.  1.
    5000001    1    1    2    0    0 -0.39536399536E+03  0.39737694198E+03 -0.22846901717E+03  0.63719715524E+03  0.19900000000E+03 0.  0.
   -5000001    1    1    2    0    0  0.39536399536E+03 -0.39737694198E+03 -0.59939362248E+03  0.84444942863E+03  0.19900000000E+03 0.  0.
<mgrwt>
<rscale>  0 0.12287880E+04</rscale>
<asrwt>0</asrwt>
<pdfrwt beam="1">  1        2 0.16496494E+00 0.12287880E+04</pdfrwt>
<pdfrwt beam="2">  1       -2 0.46698854E-01 0.12287880E+04</pdfrwt>
<totfact> 0.97141194E+01</totfact>
</mgrwt>
</event>
<event>
 4    1  0.5080671E-005  0.4468388E+03  0.7818608E-02  0.1028669E+00
          2   -1    0    0  501    0  0.00000000000E+00  0.00000000000E+00  0.10966786399E+04  0.10966786399E+04  0.25500000000E-02 0.  1.
         -2   -1    0    0    0  501 -0.00000000000E+00 -0.00000000000E+00 -0.45515819047E+02  0.45515819118E+02  0.25500000000E-02 0. -1.
    5000001    1    1    2    0    0  0.48996314822E+02  0.34945327040E+02  0.73470978056E+03  0.76355829928E+03  0.19900000000E+03 0.  0.
   -5000001    1    1    2    0    0 -0.48996314822E+02 -0.34945327040E+02  0.31645304025E+03  0.37863615970E+03  0.19900000000E+03 0.  0.
<mgrwt>
<rscale>  0 0.44683879E+03</rscale>
<asrwt>0</asrwt>
<pdfrwt beam="1">  1        2 0.15666838E+00 0.44683879E+03</pdfrwt>
<pdfrwt beam="2">  1       -2 0.65022596E-02 0.44683879E+03</pdfrwt>
<totfact> 0.33584487E+03</totfact>
</mgrwt>
</event>
<event>
 4    1  0.5080671E-005  0.6991399E+03  0.7818608E-02  0.9718704E-01
         -2   -1    0    0    0  501 -0.00000000000E+00  0.00000000000E+00  0.16268676239E+03  0.16268676241E+03  0.25500000000E-02 0. -1.
          2   -1    0    0  501    0  0.00000000000E+00 -0.00000000000E+00 -0.75113147511E+03  0.75113147512E+03  0.25500000000E-02 0.  1.
    5000001    1    1    2    0    0  0.26257457627E+03  0.10774804653E+03 -0.23514237407E+03  0.41886511638E+03  0.19900000000E+03 0.  0.
   -5000001    1    1    2    0    0 -0.26257457627E+03 -0.10774804653E+03 -0.35330233866E+03  0.49495312115E+03  0.19900000000E+03 0.  0.
<mgrwt>
<rscale>  0 0.69913989E+03</rscale>
<asrwt>0</asrwt>
<pdfrwt beam="1">  1        2 0.10730449E+00 0.69913989E+03</pdfrwt>
<pdfrwt beam="2">  1       -2 0.23240967E-01 0.69913989E+03</pdfrwt>
<totfact> 0.67591093E+02</totfact>
</mgrwt>
</event>
<event>
 4    1  0.5080671E-005  0.4168423E+03  0.7818608E-02  0.1038099E+00
          2   -1    0    0  501    0  0.00000000000E+00  0.00000000000E+00  0.43955488770E+03  0.43955488771E+03  0.25500000000E-02 0.  1.
         -2   -1    0    0    0  501 -0.00000000000E+00 -0.00000000000E+00 -0.98825840057E+02  0.98825840090E+02  0.25500000000E-02 0. -1.
    5000001    1    1    2    0    0 -0.58884367976E+00  0.35783863917E+02  0.10504700041E+03  0.22785237315E+03  0.19900000000E+03 0.  0.
   -5000001    1    1    2    0    0  0.58884367976E+00 -0.35783863917E+02  0.23568204724E+03  0.31052835465E+03  0.19900000000E+03 0.  0.
<mgrwt>
<rscale>  0 0.41684233E+03</rscale>
<asrwt>0</asrwt>
<pdfrwt beam="1">  1        2 0.62793554E-01 0.41684233E+03</pdfrwt>
<pdfrwt beam="2">  1       -2 0.14117977E-01 0.41684233E+03</pdfrwt>
<totfact> 0.29779189E+03</totfact>
</mgrwt>
</event>
<event>
 4    1  0.5080671E-005  0.8032035E+03  0.7818608E-02  0.9555392E-01
          2   -1    0    0  501    0  0.00000000000E+00  0.00000000000E+00  0.98441898542E+03  0.98441898542E+03  0.25500000000E-02 0.  1.
         -2   -1    0    0    0  501 -0.00000000000E+00 -0.00000000000E+00 -0.16383671002E+03  0.16383671004E+03  0.25500000000E-02 0. -1.
    5000001    1    1    2    0    0 -0.26779633339E+02  0.30893866556E+03  0.18190144971E+03  0.41091286819E+03  0.19900000000E+03 0.  0.
   -5000001    1    1    2    0    0  0.26779633339E+02 -0.30893866556E+03  0.63868082569E+03  0.73734282728E+03  0.19900000000E+03 0.  0.
<mgrwt>
<rscale>  0 0.80320351E+03</rscale>
<asrwt>0</asrwt>
<pdfrwt beam="1">  1        2 0.14063129E+00 0.80320351E+03</pdfrwt>
<pdfrwt beam="2">  1       -2 0.23405244E-01 0.80320351E+03</pdfrwt>
<totfact> 0.46471358E+02</totfact>
</mgrwt>
</event>
<event>
 4    1  0.5080671E-005  0.1456586E+04  0.7818608E-02  0.8913847E-01
          2   -1    0    0  501    0  0.00000000000E+00  0.00000000000E+00  0.98236963501E+03  0.98236963501E+03  0.25500000000E-02 0.  1.
         -2   -1    0    0    0  501 -0.00000000000E+00 -0.00000000000E+00 -0.53993001181E+03  0.53993001182E+03  0.25500000000E-02 0. -1.
    5000001    1    1    2    0    0  0.69205450025E+03 -0.52715608722E+02  0.32087072675E+03  0.79011226418E+03  0.19900000000E+03 0.  0.
   -5000001    1    1    2    0    0 -0.69205450025E+03  0.52715608722E+02  0.12156889645E+03  0.73218738265E+03  0.19900000000E+03 0.  0.
<mgrwt>
<rscale>  0 0.14565862E+04</rscale>
<asrwt>0</asrwt>
<pdfrwt beam="1">  1        2 0.14033852E+00 0.14565862E+04</pdfrwt>
<pdfrwt beam="2">  1       -2 0.77132860E-01 0.14565862E+04</pdfrwt>
<totfact> 0.41963756E+01</totfact>
</mgrwt>
</event>
<event>
 4    1  0.5080671E-005  0.4845422E+03  0.7818608E-02  0.1017894E+00
         -2   -1    0    0    0  501 -0.00000000000E+00  0.00000000000E+00  0.23333560337E+02  0.23333560476E+02  0.25500000000E-02 0. -1.
          2   -1    0    0  501    0  0.00000000000E+00 -0.00000000000E+00 -0.25154877430E+04  0.25154877430E+04  0.25500000000E-02 0.  1.
    5000001    1    1    2    0    0  0.58169171098E+02  0.49421653036E+02 -0.64253795522E+03  0.67696541725E+03  0.19900000000E+03 0.  0.
   -5000001    1    1    2    0    0 -0.58169171098E+02 -0.49421653036E+02 -0.18496162274E+04  0.18618558862E+04  0.19900000000E+03 0.  0.
<mgrwt>
<rscale>  0 0.48454220E+03</rscale>
<asrwt>0</asrwt>
<pdfrwt beam="1">  1        2 0.35935522E+00 0.48454220E+03</pdfrwt>
<pdfrwt beam="2">  1       -2 0.33333674E-02 0.48454220E+03</pdfrwt>
<totfact> 0.17509087E+03</totfact>
</mgrwt>
</event>
<event>
 4    1  0.5080671E-005  0.4569610E+03  0.7818608E-02  0.1025666E+00
         -2   -1    0    0    0  501 -0.00000000000E+00  0.00000000000E+00  0.30160629618E+02  0.30160629726E+02  0.25500000000E-02 0. -1.
          2   -1    0    0  501    0  0.00000000000E+00 -0.00000000000E+00 -0.17308436524E+04  0.17308436524E+04  0.25500000000E-02 0.  1.
    5000001    1    1    2    0    0  0.97848193758E+02 -0.65881741694E+01 -0.10608787034E+04  0.10838276138E+04  0.19900000000E+03 0.  0.
   -5000001    1    1    2    0    0 -0.97848193758E+02  0.65881741694E+01 -0.63980431942E+03  0.67717666839E+03  0.19900000000E+03 0.  0.
<mgrwt>
<rscale>  0 0.45696098E+03</rscale>
<asrwt>0</asrwt>
<pdfrwt beam="1">  1        2 0.24726332E+00 0.45696098E+03</pdfrwt>
<pdfrwt beam="2">  1       -2 0.43086625E-02 0.45696098E+03</pdfrwt>
<totfact> 0.29308122E+03</totfact>
</mgrwt>
</event>
<event>
 4    1  0.5080671E-005  0.6971150E+03  0.7818608E-02  0.9722179E-01
          2   -1    0    0  501    0  0.00000000000E+00  0.00000000000E+00  0.79764167662E+03  0.79764167662E+03  0.25500000000E-02 0.  1.
         -2   -1    0    0    0  501 -0.00000000000E+00 -0.00000000000E+00 -0.15231442041E+03  0.15231442043E+03  0.25500000000E-02 0. -1.
    5000001    1    1    2    0    0 -0.21407511434E+03  0.15011111722E+03  0.16415779834E+03  0.36730135427E+03  0.19900000000E+03 0.  0.
   -5000001    1    1    2    0    0  0.21407511434E+03 -0.15011111722E+03  0.48116945787E+03  0.58265474278E+03  0.19900000000E+03 0.  0.
<mgrwt>
<rscale>  0 0.69711500E+03</rscale>
<asrwt>0</asrwt>
<pdfrwt beam="1">  1        2 0.11394881E+00 0.69711500E+03</pdfrwt>
<pdfrwt beam="2">  1       -2 0.21759203E-01 0.69711500E+03</pdfrwt>
<totfact> 0.70395683E+02</totfact>
</mgrwt>
</event>
<event>
 4    1  0.5080671E-005  0.6346964E+03  0.7818608E-02  0.9835927E-01
          2   -1    0    0  501    0  0.00000000000E+00  0.00000000000E+00  0.69515399582E+03  0.69515399583E+03  0.25500000000E-02 0.  1.
         -2   -1    0    0    0  501 -0.00000000000E+00 -0.00000000000E+00 -0.14487418442E+03  0.14487418444E+03  0.25500000000E-02 0. -1.
    5000001    1    1    2    0    0  0.38950847890E+02 -0.23847162921E+03  0.34420366405E+03  0.46525589608E+03  0.19900000000E+03 0.  0.
   -5000001    1    1    2    0    0 -0.38950847890E+02  0.23847162921E+03  0.20607614735E+03  0.37477228419E+03  0.19900000000E+03 0.  0.
<mgrwt>
<rscale>  0 0.63469636E+03</rscale>
<asrwt>0</asrwt>
<pdfrwt beam="1">  1        2 0.99307714E-01 0.63469636E+03</pdfrwt>
<pdfrwt beam="2">  1       -2 0.20696312E-01 0.63469636E+03</pdfrwt>
<totfact> 0.91456552E+02</totfact>
</mgrwt>
</event>
<event>
 4    1  0.5080671E-005  0.6273563E+03  0.7818608E-02  0.9850221E-01
         -2   -1    0    0    0  501 -0.00000000000E+00  0.00000000000E+00  0.24899392960E+03  0.24899392962E+03  0.25500000000E-02 0. -1.
          2   -1    0    0  501    0  0.00000000000E+00 -0.00000000000E+00 -0.39516623998E+03  0.39516623998E+03  0.25500000000E-02 0.  1.
    5000001    1    1    2    0    0 -0.14514196740E+03 -0.16693202650E+03 -0.17504598566E+03  0.34521672796E+03  0.19900000000E+03 0.  0.
   -5000001    1    1    2    0    0  0.14514196740E+03  0.16693202650E+03  0.28873675282E+02  0.29894344164E+03  0.19900000000E+03 0.  0.
<mgrwt>
<rscale>  0 0.62735634E+03</rscale>
<asrwt>0</asrwt>
<pdfrwt beam="1">  1        2 0.56452320E-01 0.62735634E+03</pdfrwt>
<pdfrwt beam="2">  1       -2 0.35570561E-01 0.62735634E+03</pdfrwt>
<totfact> 0.65459731E+02</totfact>
</mgrwt>
</event>
<event>
 4    1  0.5080671E-005  0.1298996E+04  0.7818608E-02  0.9030361E-01
         -2   -1    0    0    0  501 -0.00000000000E+00  0.00000000000E+00  0.96326417190E+03  0.96326417191E+03  0.25500000000E-02 0. -1.
          2   -1    0    0  501    0  0.00000000000E+00 -0.00000000000E+00 -0.43793580080E+03  0.43793580080E+03  0.25500000000E-02 0.  1.
    5000001    1    1    2    0    0 -0.38931711112E+02  0.55637925584E+03  0.55043767578E+03  0.80849006758E+03  0.19900000000E+03 0.  0.
   -5000001    1    1    2    0    0  0.38931711112E+02 -0.55637925584E+03 -0.25109304675E+02  0.59270990513E+03  0.19900000000E+03 0.  0.
<mgrwt>
<rscale>  0 0.12989963E+04</rscale>
<asrwt>0</asrwt>
<pdfrwt beam="1">  1        2 0.62562257E-01 0.12989963E+04</pdfrwt>
<pdfrwt beam="2">  1       -2 0.13760917E+00 0.12989963E+04</pdfrwt>
<totfact> 0.28768544E+01</totfact>
</mgrwt>
</event>
<event>
 4    1  0.5080671E-005  0.7892656E+03  0.7818608E-02  0.9575686E-01
          2   -1    0    0  501    0  0.00000000000E+00  0.00000000000E+00  0.63463917100E+03  0.63463917100E+03  0.25500000000E-02 0.  1.
         -2   -1    0    0    0  501 -0.00000000000E+00 -0.00000000000E+00 -0.24539149225E+03  0.24539149226E+03  0.25500000000E-02 0. -1.
    5000001    1    1    2    0    0 -0.20748155599E+03 -0.81472945236E+02 -0.92794399750E+02  0.31288694045E+03  0.19900000000E+03 0.  0.
   -5000001    1    1    2    0    0  0.20748155599E+03  0.81472945236E+02  0.48204207850E+03  0.56714372281E+03  0.19900000000E+03 0.  0.
<mgrwt>
<rscale>  0 0.78926562E+03</rscale>
<asrwt>0</asrwt>
<pdfrwt beam="1">  1        2 0.90662739E-01 0.78926562E+03</pdfrwt>
<pdfrwt beam="2">  1       -2 0.35055927E-01 0.78926562E+03</pdfrwt>
<totfact> 0.38903398E+02</totfact>
</mgrwt>
</event>
<event>
 4    1  0.5080671E-005  0.6753130E+03  0.7818608E-02  0.9760407E-01
         -2   -1    0    0    0  501 -0.00000000000E+00  0.00000000000E+00  0.90340250788E+03  0.90340250789E+03  0.25500000000E-02 0. -1.
          2   -1    0    0  501    0  0.00000000000E+00 -0.00000000000E+00 -0.12620276597E+03  0.12620276599E+03  0.25500000000E-02 0.  1.
    5000001    1    1    2    0    0  0.20185404931E+03 -0.16049856520E+03  0.52416419757E+03  0.61713365867E+03  0.19900000000E+03 0.  0.
   -5000001    1    1    2    0    0 -0.20185404931E+03  0.16049856520E+03  0.25303554435E+03  0.41247161521E+03  0.19900000000E+03 0.  0.
<mgrwt>
<rscale>  0 0.67531295E+03</rscale>
<asrwt>0</asrwt>
<pdfrwt beam="1">  1        2 0.18028966E-01 0.67531295E+03</pdfrwt>
<pdfrwt beam="2">  1       -2 0.12905751E+00 0.67531295E+03</pdfrwt>
<totfact> 0.14388415E+02</totfact>
</mgrwt>
</event>
<event>
 4    1  0.5080671E-005  0.1109615E+04  0.7818608E-02  0.9195871E-01
         -2   -1    0    0    0  501 -0.00000000000E+00  0.00000000000E+00  0.21227078908E+03  0.21227078909E+03  0.25500000000E-02 0. -1.
          2   -1    0    0  501    0  0.00000000000E+00 -0.00000000000E+00 -0.14500872832E+04  0.14500872832E+04  0.25500000000E-02 0.  1.
    5000001    1    1    2    0    0  0.29635007312E+03  0.42224010306E+03 -0.55025319171E+03  0.78005746292E+03  0.19900000000E+03 0.  0.
   -5000001    1    1    2    0    0 -0.29635007312E+03 -0.42224010306E+03 -0.68756330240E+03  0.88230060936E+03  0.19900000000E+03 0.  0.
<mgrwt>
<rscale>  0 0.11096147E+04</rscale>
<asrwt>0</asrwt>
<pdfrwt beam="1">  1        2 0.20715532E+00 0.11096147E+04</pdfrwt>
<pdfrwt beam="2">  1       -2 0.30324399E-01 0.11096147E+04</pdfrwt>
<totfact> 0.15477308E+02</totfact>
</mgrwt>
</event>
<event>
 4    1  0.5080671E-005  0.6108977E+03  0.7818608E-02  0.9883051E-01
          2   -1    0    0  501    0  0.00000000000E+00  0.00000000000E+00  0.16448927103E+04  0.16448927103E+04  0.25500000000E-02 0.  1.
         -2   -1    0    0    0  501 -0.00000000000E+00 -0.00000000000E+00 -0.56720422560E+02  0.56720422617E+02  0.25500000000E-02 0. -1.
    5000001    1    1    2    0    0 -0.11508174642E+03  0.54226136261E+02  0.25459114205E+03  0.34727788848E+03  0.19900000000E+03 0.  0.
   -5000001    1    1    2    0    0  0.11508174642E+03 -0.54226136261E+02  0.13335811457E+04  0.13543352444E+04  0.19900000000E+03 0.  0.
<mgrwt>
<rscale>  0 0.61089773E+03</rscale>
<asrwt>0</asrwt>
<pdfrwt beam="1">  1        2 0.23498464E+00 0.61089773E+03</pdfrwt>
<pdfrwt beam="2">  1       -2 0.81029185E-02 0.61089773E+03</pdfrwt>
<totfact> 0.12024976E+03</totfact>
</mgrwt>
</event>
<event>
 4    1  0.5080671E-005  0.1312168E+04  0.7818608E-02  0.9019971E-01
         -2   -1    0    0    0  501 -0.00000000000E+00  0.00000000000E+00  0.96454300966E+03  0.96454300966E+03  0.25500000000E-02 0. -1.
          2   -1    0    0  501    0  0.00000000000E+00 -0.00000000000E+00 -0.44626986838E+03  0.44626986839E+03  0.25500000000E-02 0.  1.
    5000001    1    1    2    0    0  0.53231856996E+03 -0.30177993773E+03  0.12139938191E+03  0.65480760584E+03  0.19900000000E+03 0.  0.
   -5000001    1    1    2    0    0 -0.53231856996E+03  0.30177993773E+03  0.39687375937E+03  0.75600527221E+03  0.19900000000E+03 0.  0.
<mgrwt>
<rscale>  0 0.13121684E+04</rscale>
<asrwt>0</asrwt>
<pdfrwt beam="1">  1        2 0.63752838E-01 0.13121684E+04</pdfrwt>
<pdfrwt beam="2">  1       -2 0.13779186E+00 0.13121684E+04</pdfrwt>
<totfact> 0.28040580E+01</totfact>
</mgrwt>
</event>
<event>
 4    1  0.5080671E-005  0.5564593E+03  0.7818608E-02  0.1000010E+00
          2   -1    0    0  501    0  0.00000000000E+00  0.00000000000E+00  0.42226414703E+03  0.42226414704E+03  0.25500000000E-02 0.  1.
         -2   -1    0    0    0  501 -0.00000000000E+00 -0.00000000000E+00 -0.18332535850E+03  0.18332535852E+03  0.25500000000E-02 0. -1.
    5000001    1    1    2    0    0  0.14160663460E+03  0.91654031002E+02  0.14192649709E+02  0.26125721362E+03  0.19900000000E+03 0.  0.
   -5000001    1    1    2    0    0 -0.14160663460E+03 -0.91654031002E+02  0.22474613882E+03  0.34433229194E+03  0.19900000000E+03 0.  0.
<mgrwt>
<rscale>  0 0.55645926E+03</rscale>
<asrwt>0</asrwt>
<pdfrwt beam="1">  1        2 0.60323449E-01 0.55645926E+03</pdfrwt>
<pdfrwt beam="2">  1       -2 0.26189337E-01 0.55645926E+03</pdfrwt>
<totfact> 0.10729766E+03</totfact>
</mgrwt>
</event>
<event>
 4    1  0.5080671E-005  0.1058851E+04  0.7818608E-02  0.9246254E-01
         -2   -1    0    0    0  501 -0.00000000000E+00  0.00000000000E+00  0.14578078392E+03  0.14578078394E+03  0.25500000000E-02 0. -1.
          2   -1    0    0  501    0  0.00000000000E+00 -0.00000000000E+00 -0.19226889708E+04  0.19226889709E+04  0.25500000000E-02 0.  1.
    5000001    1    1    2    0    0  0.69181615149E+02 -0.46878853103E+03 -0.64026420631E+03  0.82102864541E+03  0.19900000000E+03 0.  0.
   -5000001    1    1    2    0    0 -0.69181615149E+02  0.46878853103E+03 -0.11366439806E+04  0.12474411094E+04  0.19900000000E+03 0.  0.
<mgrwt>
<rscale>  0 0.10588505E+04</rscale>
<asrwt>0</asrwt>
<pdfrwt beam="1">  1        2 0.27466984E+00 0.10588505E+04</pdfrwt>
<pdfrwt beam="2">  1       -2 0.20825827E-01 0.10588505E+04</pdfrwt>
<totfact> 0.17425480E+02</totfact>
</mgrwt>
</event>
<event>
 4    1  0.5080671E-005  0.5990460E+03  0.7818608E-02  0.9907387E-01
          2   -1    0    0  501    0  0.00000000000E+00  0.00000000000E+00  0.40190530612E+03  0.40190530613E+03  0.25500000000E-02 0.  1.
         -2   -1    0    0    0  501 -0.00000000000E+00 -0.00000000000E+00 -0.22322182068E+03  0.22322182070E+03  0.25500000000E-02 0. -1.
    5000001    1    1    2    0    0  0.20258573879E+03 -0.61343334719E+02  0.13306230054E+02  0.29082991943E+03  0.19900000000E+03 0.  0.
   -5000001    1    1    2    0    0 -0.20258573879E+03  0.61343334719E+02  0.16537725538E+03  0.33429720740E+03  0.19900000000E+03 0.  0.
<mgrwt>
<rscale>  0 0.59904602E+03</rscale>
<asrwt>0</asrwt>
<pdfrwt beam="1">  1        2 0.57415043E-01 0.59904602E+03</pdfrwt>
<pdfrwt beam="2">  1       -2 0.31888832E-01 0.59904602E+03</pdfrwt>
<totfact> 0.78955388E+02</totfact>
</mgrwt>
</event>
<event>
 4    1  0.5080671E-005  0.4458969E+03  0.7818608E-02  0.1028953E+00
         -2   -1    0    0    0  501 -0.00000000000E+00  0.00000000000E+00  0.86735771162E+02  0.86735771200E+02  0.25500000000E-02 0. -1.
          2   -1    0    0  501    0  0.00000000000E+00 -0.00000000000E+00 -0.57307384812E+03  0.57307384813E+03  0.25500000000E-02 0.  1.
    5000001    1    1    2    0    0  0.33395635084E+02 -0.62410372868E+02 -0.13754989380E+03  0.25205415364E+03  0.19900000000E+03 0.  0.
   -5000001    1    1    2    0    0 -0.33395635084E+02  0.62410372868E+02 -0.34878818316E+03  0.40775546569E+03  0.19900000000E+03 0.  0.
<mgrwt>
<rscale>  0 0.44589686E+03</rscale>
<asrwt>0</asrwt>
<pdfrwt beam="1">  1        2 0.81867691E-01 0.44589686E+03</pdfrwt>
<pdfrwt beam="2">  1       -2 0.12390825E-01 0.44589686E+03</pdfrwt>
<totfact> 0.27409036E+03</totfact>
</mgrwt>
</event>
<event>
 4    1  0.5080671E-005  0.5746161E+03  0.7818608E-02  0.9959516E-01
          2   -1    0    0  501    0  0.00000000000E+00  0.00000000000E+00  0.56001157456E+03  0.56001157456E+03  0.25500000000E-02 0.  1.
         -2   -1    0    0    0  501 -0.00000000000E+00 -0.00000000000E+00 -0.14740036626E+03  0.14740036629E+03  0.25500000000E-02 0. -1.
    5000001    1    1    2    0    0  0.15854730846E+03  0.10501236891E+03  0.30767608872E+03  0.41283219619E+03  0.19900000000E+03 0.  0.
   -5000001    1    1    2    0    0 -0.15854730846E+03 -0.10501236891E+03  0.10493511957E+03  0.29457974466E+03  0.19900000000E+03 0.  0.
<mgrwt>
<rscale>  0 0.57461608E+03</rscale>
<asrwt>0</asrwt>
<pdfrwt beam="1">  1        2 0.80001654E-01 0.57461608E+03</pdfrwt>
<pdfrwt beam="2">  1       -2 0.21057195E-01 0.57461608E+03</pdfrwt>
<totfact> 0.11482288E+03</totfact>
</mgrwt>
</event>
<event>
 4    1  0.5080671E-005  0.5763111E+03  0.7818608E-02  0.9955809E-01
         -2   -1    0    0    0  501 -0.00000000000E+00  0.00000000000E+00  0.39873898611E+02  0.39873898693E+02  0.25500000000E-02 0. -1.
          2   -1    0    0  501    0  0.00000000000E+00 -0.00000000000E+00 -0.20824056473E+04  0.20824056473E+04  0.25500000000E-02 0.  1.
    5000001    1    1    2    0    0  0.39861983312E+02 -0.20337648322E+03 -0.94044642074E+03  0.98335723006E+03  0.19900000000E+03 0.  0.
   -5000001    1    1    2    0    0 -0.39861983312E+02  0.20337648322E+03 -0.11020853280E+04  0.11389223160E+04  0.19900000000E+03 0.  0.
<mgrwt>
<rscale>  0 0.57631114E+03</rscale>
<asrwt>0</asrwt>
<pdfrwt beam="1">  1        2 0.29748645E+00 0.57631114E+03</pdfrwt>
<pdfrwt beam="2">  1       -2 0.56962725E-02 0.57631114E+03</pdfrwt>
<totfact> 0.12633597E+03</totfact>
</mgrwt>
</event>
<event>
 4    1  0.5080671E-005  0.4892567E+03  0.7818608E-02  0.1016622E+00
          2   -1    0    0  501    0  0.00000000000E+00  0.00000000000E+00  0.10872287040E+04  0.10872287040E+04  0.25500000000E-02 0. -1.
         -2   -1    0    0    0  501 -0.00000000000E+00 -0.00000000000E+00 -0.55041794391E+02  0.55041794450E+02  0.25500000000E-02 0.  1.
    5000001    1    1    2    0    0 -0.89606887063E+02  0.38439607074E+02  0.27419467848E+03  0.35254888925E+03  0.19900000000E+03 0.  0.
   -5000001    1    1    2    0    0  0.89606887063E+02 -0.38439607074E+02  0.75799223115E+03  0.78972160923E+03  0.19900000000E+03 0.  0.
<mgrwt>
<rscale>  0 0.48925666E+03</rscale>
<asrwt>0</asrwt>
<pdfrwt beam="1">  1        2 0.15531837E+00 0.48925666E+03</pdfrwt>
<pdfrwt beam="2">  1       -2 0.78631142E-02 0.48925666E+03</pdfrwt>
<totfact> 0.25225786E+03</totfact>
</mgrwt>
</event>
<event>
 4    1  0.5080671E-005  0.5957665E+03  0.7818608E-02  0.9914228E-01
          2   -1    0    0  501    0  0.00000000000E+00  0.00000000000E+00  0.70575384692E+03  0.70575384692E+03  0.25500000000E-02 0.  1.
         -2   -1    0    0    0  501 -0.00000000000E+00 -0.00000000000E+00 -0.12572998028E+03  0.12572998031E+03  0.25500000000E-02 0. -1.
    5000001    1    1    2    0    0  0.19809423666E+02 -0.16787862609E+03  0.89903325316E+02  0.27615078176E+03  0.19900000000E+03 0.  0.
   -5000001    1    1    2    0    0 -0.19809423666E+02  0.16787862609E+03  0.49012054132E+03  0.55533304547E+03  0.19900000000E+03 0.  0.
<mgrwt>
<rscale>  0 0.59576646E+03</rscale>
<asrwt>0</asrwt>
<pdfrwt beam="1">  1        2 0.10082198E+00 0.59576646E+03</pdfrwt>
<pdfrwt beam="2">  1       -2 0.17961426E-01 0.59576646E+03</pdfrwt>
<totfact> 0.11487053E+03</totfact>
</mgrwt>
</event>
<event>
 4    1  0.5080671E-005  0.6905361E+03  0.7818608E-02  0.9733555E-01
         -2   -1    0    0    0  501 -0.00000000000E+00  0.00000000000E+00  0.88779039255E+02  0.88779039292E+02  0.25500000000E-02 0. -1.
          2   -1    0    0  501    0  0.00000000000E+00 -0.00000000000E+00 -0.13427720662E+04  0.13427720662E+04  0.25500000000E-02 0.  1.
    5000001    1    1    2    0    0 -0.25496495495E+03 -0.14498314085E+02 -0.87569681302E+03  0.93362906858E+03  0.19900000000E+03 0.  0.
   -5000001    1    1    2    0    0  0.25496495495E+03  0.14498314085E+02 -0.37829621388E+03  0.49792203687E+03  0.19900000000E+03 0.  0.
<mgrwt>
<rscale>  0 0.69053606E+03</rscale>
<asrwt>0</asrwt>
<pdfrwt beam="1">  1        2 0.19182457E+00 0.69053606E+03</pdfrwt>
<pdfrwt beam="2">  1       -2 0.12682721E-01 0.69053606E+03</pdfrwt>
<totfact> 0.83302662E+02</totfact>
</mgrwt>
</event>
<event>
 4    1  0.5080671E-005  0.4943001E+03  0.7818608E-02  0.1015277E+00
          2   -1    0    0  501    0  0.00000000000E+00  0.00000000000E+00  0.83205778628E+03  0.83205778629E+03  0.25500000000E-02 0.  1.
         -2   -1    0    0    0  501 -0.00000000000E+00 -0.00000000000E+00 -0.73412157931E+02  0.73412157975E+02  0.25500000000E-02 0. -1.
    5000001    1    1    2    0    0  0.57417748839E+02 -0.84992412293E+02  0.18753488869E+03  0.29204595957E+03  0.19900000000E+03 0.  0.
   -5000001    1    1    2    0    0 -0.57417748839E+02  0.84992412293E+02  0.57111073966E+03  0.61342398469E+03  0.19900000000E+03 0.  0.
<mgrwt>
<rscale>  0 0.49430014E+03</rscale>
<asrwt>0</asrwt>
<pdfrwt beam="1">  1        2 0.11886539E+00 0.49430014E+03</pdfrwt>
<pdfrwt beam="2">  1       -2 0.10487452E-01 0.49430014E+03</pdfrwt>
<totfact> 0.22905694E+03</totfact>
</mgrwt>
</event>
<event>
 4    1  0.5080671E-005  0.8544517E+03  0.7818608E-02  0.9484381E-01
         -2   -1    0    0    0  501 -0.00000000000E+00  0.00000000000E+00  0.74694739019E+02  0.74694739063E+02  0.25500000000E-02 0. -1.
          2   -1    0    0  501    0  0.00000000000E+00 -0.00000000000E+00 -0.24435712418E+04  0.24435712418E+04  0.25500000000E-02 0.  1.
    5000001    1    1    2    0    0 -0.22793267108E+03  0.46820865617E+02 -0.20625715819E+04  0.20851733804E+04  0.19900000000E+03 0.  0.
   -5000001    1    1    2    0    0  0.22793267108E+03 -0.46820865617E+02 -0.30630492091E+03  0.43309260047E+03  0.19900000000E+03 0.  0.
<mgrwt>
<rscale>  0 0.85445168E+03</rscale>
<asrwt>0</asrwt>
<pdfrwt beam="1">  1        2 0.34908156E+00 0.85445168E+03</pdfrwt>
<pdfrwt beam="2">  1       -2 0.10670678E-01 0.85445168E+03</pdfrwt>
<totfact> 0.29791025E+02</totfact>
</mgrwt>
</event>
<event>
 4    1  0.5080671E-005  0.5508585E+03  0.7818608E-02  0.1001295E+00
          2   -1    0    0  501    0  0.00000000000E+00  0.00000000000E+00  0.85935456213E+03  0.85935456214E+03  0.25500000000E-02 0.  1.
         -2   -1    0    0    0  501 -0.00000000000E+00 -0.00000000000E+00 -0.88277039259E+02  0.88277039296E+02  0.25500000000E-02 0. -1.
    5000001    1    1    2    0    0 -0.17297878290E+03  0.79559845858E+02  0.39065584865E+03  0.47797951891E+03  0.19900000000E+03 0.  0.
   -5000001    1    1    2    0    0  0.17297878290E+03 -0.79559845858E+02  0.38042167422E+03  0.46965208253E+03  0.19900000000E+03 0.  0.
<mgrwt>
<rscale>  0 0.55085852E+03</rscale>
<asrwt>0</asrwt>
<pdfrwt beam="1">  1        2 0.12276493E+00 0.55085852E+03</pdfrwt>
<pdfrwt beam="2">  1       -2 0.12611007E-01 0.55085852E+03</pdfrwt>
<totfact> 0.16245690E+03</totfact>
</mgrwt>
</event>
<event>
 4    1  0.5080671E-005  0.6003715E+03  0.7818608E-02  0.9904636E-01
         -2   -1    0    0    0  501 -0.00000000000E+00  0.00000000000E+00  0.18235727689E+03  0.18235727691E+03  0.25500000000E-02 0. -1.
          2   -1    0    0  501    0  0.00000000000E+00 -0.00000000000E+00 -0.49414793225E+03  0.49414793226E+03  0.25500000000E-02 0.  1.
    5000001    1    1    2    0    0  0.18104754116E+03  0.94497559807E+02 -0.50176243004E+02  0.28952833425E+03  0.19900000000E+03 0.  0.
   -5000001    1    1    2    0    0 -0.18104754116E+03 -0.94497559807E+02 -0.26161441236E+03  0.38697687492E+03  0.19900000000E+03 0.  0.
<mgrwt>
<rscale>  0 0.60037146E+03</rscale>
<asrwt>0</asrwt>
<pdfrwt beam="1">  1        2 0.70592561E-01 0.60037146E+03</pdfrwt>
<pdfrwt beam="2">  1       -2 0.26051040E-01 0.60037146E+03</pdfrwt>
<totfact> 0.90753552E+02</totfact>
</mgrwt>
</event>
<event>
 4    1  0.5080671E-005  0.4594678E+03  0.7818608E-02  0.1024936E+00
         -2   -1    0    0    0  501 -0.00000000000E+00  0.00000000000E+00  0.17979557945E+02  0.17979558126E+02  0.25500000000E-02 0. -1.
          2   -1    0    0  501    0  0.00000000000E+00 -0.00000000000E+00 -0.29354260138E+04  0.29354260138E+04  0.25500000000E-02 0.  1.
    5000001    1    1    2    0    0  0.82018854508E+02 -0.38907472361E+02 -0.10071316343E+04  0.10306095346E+04  0.19900000000E+03 0.  0.
   -5000001    1    1    2    0    0 -0.82018854508E+02  0.38907472361E+02 -0.19103148216E+04  0.19227960374E+04  0.19900000000E+03 0.  0.
<mgrwt>
<rscale>  0 0.45946779E+03</rscale>
<asrwt>0</asrwt>
<pdfrwt beam="1">  1        2 0.41934627E+00 0.45946779E+03</pdfrwt>
<pdfrwt beam="2">  1       -2 0.25685102E-02 0.45946779E+03</pdfrwt>
<totfact> 0.15709830E+03</totfact>
</mgrwt>
</event>
<event>
 4    1  0.5080671E-005  0.5354514E+03  0.7818608E-02  0.1004919E+00
          2   -1    0    0  501    0  0.00000000000E+00  0.00000000000E+00  0.19066229163E+04  0.19066229163E+04  0.25500000000E-02 0.  1.
         -2   -1    0    0    0  501 -0.00000000000E+00 -0.00000000000E+00 -0.37593727825E+02  0.37593727912E+02  0.25500000000E-02 0. -1.
    5000001    1    1    2    0    0 -0.16164965573E+03 -0.50189471968E+02  0.11470581535E+04  0.11764323193E+04  0.19900000000E+03 0.  0.
   -5000001    1    1    2    0    0  0.16164965573E+03  0.50189471968E+02  0.72197103495E+03  0.76778432493E+03  0.19900000000E+03 0.  0.
<mgrwt>
<rscale>  0 0.53545145E+03</rscale>
<asrwt>0</asrwt>
<pdfrwt beam="1">  1        2 0.27237473E+00 0.53545145E+03</pdfrwt>
<pdfrwt beam="2">  1       -2 0.53705320E-02 0.53545145E+03</pdfrwt>
<totfact> 0.16992905E+03</totfact>
</mgrwt>
</event>
<event>
 4    1  0.5080671E-005  0.6944487E+03  0.7818608E-02  0.9726773E-01
         -2   -1    0    0    0  501 -0.00000000000E+00  0.00000000000E+00  0.20655360485E+04  0.20655360485E+04  0.25500000000E-02 0. -1.
          2   -1    0    0  501    0  0.00000000000E+00 -0.00000000000E+00 -0.58369720650E+02  0.58369720706E+02  0.25500000000E-02 0.  1.
    5000001    1    1    2    0    0  0.20209523252E+03 -0.17109480696E+03  0.68504108353E+03  0.76091931379E+03  0.19900000000E+03 0.  0.
   -5000001    1    1    2    0    0 -0.20209523252E+03  0.17109480696E+03  0.13221252443E+04  0.13629864554E+04  0.19900000000E+03 0.  0.
<mgrwt>
<rscale>  0 0.69444874E+03</rscale>
<asrwt>0</asrwt>
<pdfrwt beam="1">  1        2 0.83385332E-02 0.69444874E+03</pdfrwt>
<pdfrwt beam="2">  1       -2 0.29507652E+00 0.69444874E+03</pdfrwt>
<totfact> 0.29905940E+01</totfact>
</mgrwt>
</event>
<event>
 4    1  0.5080671E-005  0.8161365E+03  0.7818608E-02  0.9536949E-01
          2   -1    0    0  501    0  0.00000000000E+00  0.00000000000E+00  0.25377196690E+04  0.25377196690E+04  0.25500000000E-02 0.  1.
         -2   -1    0    0    0  501 -0.00000000000E+00 -0.00000000000E+00 -0.65617851442E+02  0.65617851491E+02  0.25500000000E-02 0. -1.
    5000001    1    1    2    0    0 -0.13633241788E+03 -0.31778021203E+03  0.96261855892E+03  0.10420202883E+04  0.19900000000E+03 0.  0.
   -5000001    1    1    2    0    0  0.13633241788E+03  0.31778021203E+03  0.15094832586E+04  0.15613172321E+04  0.19900000000E+03 0.  0.
<mgrwt>
<rscale>  0 0.81613654E+03</rscale>
<asrwt>0</asrwt>
<pdfrwt beam="1">  1        2 0.36253131E+00 0.81613654E+03</pdfrwt>
<pdfrwt beam="2">  1       -2 0.93739807E-02 0.81613654E+03</pdfrwt>
<totfact> 0.32992784E+02</totfact>
</mgrwt>
</event>
<event>
 4    1  0.5080671E-005  0.8143044E+03  0.7818608E-02  0.9539540E-01
         -2   -1    0    0    0  501 -0.00000000000E+00  0.00000000000E+00  0.14304392478E+03  0.14304392480E+03  0.25500000000E-02 0. -1.
          2   -1    0    0  501    0  0.00000000000E+00 -0.00000000000E+00 -0.11588952114E+04  0.11588952115E+04  0.25500000000E-02 0.  1.
    5000001    1    1    2    0    0  0.35014674047E+03  0.31736816521E+02 -0.42699936565E+03  0.58782601478E+03  0.19900000000E+03 0.  0.
   -5000001    1    1    2    0    0 -0.35014674047E+03 -0.31736816521E+02 -0.58885192102E+03  0.71411312148E+03  0.19900000000E+03 0.  0.
<mgrwt>
<rscale>  0 0.81430441E+03</rscale>
<asrwt>0</asrwt>
<pdfrwt beam="1">  1        2 0.16555645E+00 0.81430441E+03</pdfrwt>
<pdfrwt beam="2">  1       -2 0.20434847E-01 0.81430441E+03</pdfrwt>
<totfact> 0.46503230E+02</totfact>
</mgrwt>
</event>
<event>
 4    1  0.5080671E-005  0.7403242E+03  0.7818608E-02  0.9650654E-01
          2   -1    0    0  501    0  0.00000000000E+00  0.00000000000E+00  0.15745115261E+04  0.15745115261E+04  0.25500000000E-02 0.  1.
         -2   -1    0    0    0  501 -0.00000000000E+00 -0.00000000000E+00 -0.87023797320E+02  0.87023797358E+02  0.25500000000E-02 0. -1.
    5000001    1    1    2    0    0  0.95237891827E+02  0.28959954476E+03  0.59351050621E+03  0.69627140782E+03  0.19900000000E+03 0.  0.
   -5000001    1    1    2    0    0 -0.95237891827E+02 -0.28959954476E+03  0.89397722258E+03  0.96526391565E+03  0.19900000000E+03 0.  0.
<mgrwt>
<rscale>  0 0.74032418E+03</rscale>
<asrwt>0</asrwt>
<pdfrwt beam="1">  1        2 0.22493021E+00 0.74032418E+03</pdfrwt>
<pdfrwt beam="2">  1       -2 0.12431971E-01 0.74032418E+03</pdfrwt>
<totfact> 0.64791363E+02</totfact>
</mgrwt>
</event>
<event>
 4    1  0.5080671E-005  0.7120342E+03  0.7818608E-02  0.9696871E-01
          2   -1    0    0  501    0  0.00000000000E+00  0.00000000000E+00  0.36778668484E+03  0.36778668485E+03  0.25500000000E-02 0.  1.
         -2   -1    0    0    0  501 -0.00000000000E+00 -0.00000000000E+00 -0.34462412436E+03  0.34462412437E+03  0.25500000000E-02 0. -1.
    5000001    1    1    2    0    0  0.26525102007E+03 -0.46882976130E+02 -0.10927602199E+03  0.35227597999E+03  0.19900000000E+03 0.  0.
   -5000001    1    1    2    0    0 -0.26525102007E+03  0.46882976130E+02  0.13243858247E+03  0.36013482923E+03  0.19900000000E+03 0.  0.
<mgrwt>
<rscale>  0 0.71203417E+03</rscale>
<asrwt>0</asrwt>
<pdfrwt beam="1">  1        2 0.52540955E-01 0.71203417E+03</pdfrwt>
<pdfrwt beam="2">  1       -2 0.49232018E-01 0.71203417E+03</pdfrwt>
<totfact> 0.37403159E+02</totfact>
</mgrwt>
</event>
<event>
 4    1  0.5080671E-005  0.8883417E+03  0.7818608E-02  0.9440273E-01
          2   -1    0    0  501    0  0.00000000000E+00  0.00000000000E+00  0.89436345879E+02  0.89436345915E+02  0.25500000000E-02 0.  1.
         -2   -1    0    0    0  501 -0.00000000000E+00 -0.00000000000E+00 -0.22059014006E+04  0.22059014006E+04  0.25500000000E-02 0. -1.
    5000001    1    1    2    0    0  0.34591518332E+03 -0.17425335496E+03 -0.83201372477E+03  0.93907900837E+03  0.19900000000E+03 0.  0.
   -5000001    1    1    2    0    0 -0.34591518332E+03  0.17425335496E+03 -0.12844513299E+04  0.13562587381E+04  0.19900000000E+03 0.  0.
<mgrwt>
<rscale>  0 0.88834174E+03</rscale>
<asrwt>0</asrwt>
<pdfrwt beam="1">  1        2 0.12776622E-01 0.88834174E+03</pdfrwt>
<pdfrwt beam="2">  1       -2 0.31512874E+00 0.88834174E+03</pdfrwt>
<totfact> 0.12919378E+01</totfact>
</mgrwt>
</event>
<event>
 4    1  0.5080671E-005  0.1008589E+04  0.7818608E-02  0.9299174E-01
         -2   -1    0    0    0  501 -0.00000000000E+00  0.00000000000E+00  0.26402052981E+04  0.26402052981E+04  0.25500000000E-02 0. -1.
          2   -1    0    0  501    0  0.00000000000E+00 -0.00000000000E+00 -0.96323243501E+02  0.96323243535E+02  0.25500000000E-02 0.  1.
    5000001    1    1    2    0    0  0.38608710536E+03  0.20574700204E+02  0.57900280334E+03  0.72410760077E+03  0.19900000000E+03 0.  0.
   -5000001    1    1    2    0    0 -0.38608710536E+03 -0.20574700204E+02  0.19648792513E+04  0.20124209409E+04  0.19900000000E+03 0.  0.
<mgrwt>
<rscale>  0 0.10085894E+04</rscale>
<asrwt>0</asrwt>
<pdfrwt beam="1">  1        2 0.13760464E-01 0.10085894E+04</pdfrwt>
<pdfrwt beam="2">  1       -2 0.37717217E+00 0.10085894E+04</pdfrwt>
<totfact> 0.47875541E+00</totfact>
</mgrwt>
</event>
<event>
 4    1  0.5080671E-005  0.5141823E+03  0.7818608E-02  0.1010142E+00
         -2   -1    0    0    0  501 -0.00000000000E+00  0.00000000000E+00  0.66509941225E+02  0.66509941274E+02  0.25500000000E-02 0. -1.
          2   -1    0    0  501    0  0.00000000000E+00 -0.00000000000E+00 -0.99377402877E+03  0.99377402878E+03  0.25500000000E-02 0.  1.
    5000001    1    1    2    0    0  0.10002815956E+03  0.12532804262E+03 -0.40596381664E+03  0.47970863176E+03  0.19900000000E+03 0.  0.
   -5000001    1    1    2    0    0 -0.10002815956E+03 -0.12532804262E+03 -0.52130027091E+03  0.58057533829E+03  0.19900000000E+03 0.  0.
<mgrwt>
<rscale>  0 0.51418227E+03</rscale>
<asrwt>0</asrwt>
<pdfrwt beam="1">  1        2 0.14196771E+00 0.51418227E+03</pdfrwt>
<pdfrwt beam="2">  1       -2 0.95014208E-02 0.51418227E+03</pdfrwt>
<totfact> 0.21187148E+03</totfact>
</mgrwt>
</event>
<event>
 4    1  0.5080671E-005  0.6339489E+03  0.7818608E-02  0.9837373E-01
          2   -1    0    0  501    0  0.00000000000E+00  0.00000000000E+00  0.32272679229E+03  0.32272679230E+03  0.25500000000E-02 0.  1.
         -2   -1    0    0    0  501 -0.00000000000E+00 -0.00000000000E+00 -0.31132460221E+03  0.31132460222E+03  0.25500000000E-02 0. -1.
    5000001    1    1    2    0    0  0.21185739514E+03  0.81804182206E+02  0.10213406372E+03  0.31875985800E+03  0.19900000000E+03 0.  0.
   -5000001    1    1    2    0    0 -0.21185739514E+03 -0.81804182206E+02 -0.90731873643E+02  0.31529153651E+03  0.19900000000E+03 0.  0.
<mgrwt>
<rscale>  0 0.63394886E+03</rscale>
<asrwt>0</asrwt>
<pdfrwt beam="1">  1        2 0.46103828E-01 0.63394886E+03</pdfrwt>
<pdfrwt beam="2">  1       -2 0.44474943E-01 0.63394886E+03</pdfrwt>
<totfact> 0.53092905E+02</totfact>
</mgrwt>
</event>
<event>
 4    1  0.5080671E-005  0.7700097E+03  0.7818608E-02  0.9604471E-01
         -2   -1    0    0    0  501 -0.00000000000E+00  0.00000000000E+00  0.38949347573E+03  0.38949347573E+03  0.25500000000E-02 0. -1.
          2   -1    0    0  501    0  0.00000000000E+00 -0.00000000000E+00 -0.38056792760E+03  0.38056792761E+03  0.25500000000E-02 0.  1.
    5000001    1    1    2    0    0  0.85128223482E+02  0.31328154966E+03  0.61348763819E+02  0.38569004992E+03  0.19900000000E+03 0.  0.
   -5000001    1    1    2    0    0 -0.85128223482E+02 -0.31328154966E+03 -0.52423215698E+02  0.38437135342E+03  0.19900000000E+03 0.  0.
<mgrwt>
<rscale>  0 0.77000967E+03</rscale>
<asrwt>0</asrwt>
<pdfrwt beam="1">  1        2 0.54366847E-01 0.77000967E+03</pdfrwt>
<pdfrwt beam="2">  1       -2 0.55641925E-01 0.77000967E+03</pdfrwt>
<totfact> 0.27960701E+02</totfact>
</mgrwt>
</event>
<event>
 4    1  0.5080671E-005  0.5951685E+03  0.7818608E-02  0.9915481E-01
         -2   -1    0    0    0  501 -0.00000000000E+00  0.00000000000E+00  0.95130087803E+03  0.95130087803E+03  0.25500000000E-02 0. -1.
          2   -1    0    0  501    0  0.00000000000E+00 -0.00000000000E+00 -0.93089779536E+02  0.93089779571E+02  0.25500000000E-02 0.  1.
    5000001    1    1    2    0    0  0.99060574814E+01  0.17114762310E+03  0.18365088754E+03  0.32049693814E+03  0.19900000000E+03 0.  0.
   -5000001    1    1    2    0    0 -0.99060574814E+01 -0.17114762310E+03  0.67456021096E+03  0.72389371946E+03  0.19900000000E+03 0.  0.
<mgrwt>
<rscale>  0 0.59516851E+03</rscale>
<asrwt>0</asrwt>
<pdfrwt beam="1">  1        2 0.13298540E-01 0.59516851E+03</pdfrwt>
<pdfrwt beam="2">  1       -2 0.13590012E+00 0.59516851E+03</pdfrwt>
<totfact> 0.18292236E+02</totfact>
</mgrwt>
</event>
<event>
 4    1  0.5080671E-005  0.4362994E+03  0.7818608E-02  0.1031888E+00
         -2   -1    0    0    0  501 -0.00000000000E+00  0.00000000000E+00  0.12178987522E+03  0.12178987525E+03  0.25500000000E-02 0. -1.
          2   -1    0    0  501    0  0.00000000000E+00 -0.00000000000E+00 -0.39074921014E+03  0.39074921015E+03  0.25500000000E-02 0.  1.
    5000001    1    1    2    0    0  0.21233658623E+02  0.86635603709E+02 -0.12786539574E+03  0.25279864619E+03  0.19900000000E+03 0.  0.
   -5000001    1    1    2    0    0 -0.21233658623E+02 -0.86635603709E+02 -0.14109393918E+03  0.25974043921E+03  0.19900000000E+03 0.  0.
<mgrwt>
<rscale>  0 0.43629943E+03</rscale>
<asrwt>0</asrwt>
<pdfrwt beam="1">  1        2 0.55821315E-01 0.43629943E+03</pdfrwt>
<pdfrwt beam="2">  1       -2 0.17398554E-01 0.43629943E+03</pdfrwt>
<totfact> 0.23888913E+03</totfact>
</mgrwt>
</event>
<event>
 4    1  0.5080671E-005  0.6000427E+03  0.7818608E-02  0.9905317E-01
          2   -1    0    0  501    0  0.00000000000E+00  0.00000000000E+00  0.85159001750E+02  0.85159001788E+02  0.25500000000E-02 0.  1.
         -2   -1    0    0    0  501 -0.00000000000E+00 -0.00000000000E+00 -0.10569971559E+04  0.10569971559E+04  0.25500000000E-02 0. -1.
    5000001    1    1    2    0    0 -0.14326949355E+03  0.15681969509E+03 -0.62440474677E+03  0.68891280460E+03  0.19900000000E+03 0.  0.
   -5000001    1    1    2    0    0  0.14326949355E+03 -0.15681969509E+03 -0.34743340733E+03  0.45324335305E+03  0.19900000000E+03 0.  0.
<mgrwt>
<rscale>  0 0.60004274E+03</rscale>
<asrwt>0</asrwt>
<pdfrwt beam="1">  1        2 0.12165572E-01 0.60004274E+03</pdfrwt>
<pdfrwt beam="2">  1       -2 0.15099959E+00 0.60004274E+03</pdfrwt>
<totfact> 0.15532850E+02</totfact>
</mgrwt>
</event>
<event>
 4    1  0.5080671E-005  0.1029412E+04  0.7818608E-02  0.9276862E-01
         -2   -1    0    0    0  501 -0.00000000000E+00  0.00000000000E+00  0.12604176467E+03  0.12604176470E+03  0.25500000000E-02 0. -1.
          2   -1    0    0  501    0  0.00000000000E+00 -0.00000000000E+00 -0.21018619110E+04  0.21018619110E+04  0.25500000000E-02 0.  1.
    5000001    1    1    2    0    0  0.44195942920E+03 -0.13118915254E+03 -0.74321929802E+03  0.89694740969E+03  0.19900000000E+03 0.  0.
   -5000001    1    1    2    0    0 -0.44195942920E+03  0.13118915254E+03 -0.12326008483E+04  0.13309562660E+04  0.19900000000E+03 0.  0.
<mgrwt>
<rscale>  0 0.10294122E+04</rscale>
<asrwt>0</asrwt>
<pdfrwt beam="1">  1        2 0.30026596E+00 0.10294122E+04</pdfrwt>
<pdfrwt beam="2">  1       -2 0.18005968E-01 0.10294122E+04</pdfrwt>
<totfact> 0.18242098E+02</totfact>
</mgrwt>
</event>
<event>
 4    1  0.5080671E-005  0.8349255E+03  0.7818608E-02  0.9510796E-01
          2   -1    0    0  501    0  0.00000000000E+00  0.00000000000E+00  0.19443912070E+04  0.19443912070E+04  0.25500000000E-02 0.  1.
         -2   -1    0    0    0  501 -0.00000000000E+00 -0.00000000000E+00 -0.89629677852E+02  0.89629677888E+02  0.25500000000E-02 0. -1.
    5000001    1    1    2    0    0  0.32586257166E+03  0.16866553511E+03  0.91203498005E+03  0.10030170902E+04  0.19900000000E+03 0.  0.
   -5000001    1    1    2    0    0 -0.32586257166E+03 -0.16866553511E+03  0.94272654908E+03  0.10310037947E+04  0.19900000000E+03 0.  0.
<mgrwt>
<rscale>  0 0.83492552E+03</rscale>
<asrwt>0</asrwt>
<pdfrwt beam="1">  1        2 0.27777016E+00 0.83492552E+03</pdfrwt>
<pdfrwt beam="2">  1       -2 0.12804240E-01 0.83492552E+03</pdfrwt>
<totfact> 0.39676412E+02</totfact>
</mgrwt>
</event>
<event>
 4    1  0.5080671E-005  0.5721301E+03  0.7818608E-02  0.9964976E-01
         -2   -1    0    0    0  501 -0.00000000000E+00  0.00000000000E+00  0.47532159322E+02  0.47532159391E+02  0.25500000000E-02 0. -1.
          2   -1    0    0  501    0  0.00000000000E+00 -0.00000000000E+00 -0.17216386327E+04  0.17216386327E+04  0.25500000000E-02 0.  1.
    5000001    1    1    2    0    0 -0.24282109162E+02 -0.19759990488E+03 -0.99463252895E+03  0.10336973497E+04  0.19900000000E+03 0.  0.
   -5000001    1    1    2    0    0  0.24282109162E+02  0.19759990488E+03 -0.67947394439E+03  0.73547344230E+03  0.19900000000E+03 0.  0.
<mgrwt>
<rscale>  0 0.57213006E+03</rscale>
<asrwt>0</asrwt>
<pdfrwt beam="1">  1        2 0.24594834E+00 0.57213006E+03</pdfrwt>
<pdfrwt beam="2">  1       -2 0.67903095E-02 0.57213006E+03</pdfrwt>
<totfact> 0.14568183E+03</totfact>
</mgrwt>
</event>
<event>
 4    1  0.5080671E-005  0.5754928E+03  0.7818608E-02  0.9957597E-01
          2   -1    0    0  501    0  0.00000000000E+00  0.00000000000E+00  0.15902456781E+04  0.15902456781E+04  0.25500000000E-02 0.  1.
         -2   -1    0    0    0  501 -0.00000000000E+00 -0.00000000000E+00 -0.52066163551E+02  0.52066163614E+02  0.25500000000E-02 0. -1.
    5000001    1    1    2    0    0  0.13644200680E+03  0.10473007803E+03  0.43613932165E+03  0.50931652079E+03  0.19900000000E+03 0.  0.
   -5000001    1    1    2    0    0 -0.13644200680E+03 -0.10473007803E+03  0.11020401929E+04  0.11329953209E+04  0.19900000000E+03 0.  0.
<mgrwt>
<rscale>  0 0.57549280E+03</rscale>
<asrwt>0</asrwt>
<pdfrwt beam="1">  1        2 0.22717797E+00 0.57549280E+03</pdfrwt>
<pdfrwt beam="2">  1       -2 0.74380227E-02 0.57549280E+03</pdfrwt>
<totfact> 0.14717658E+03</totfact>
</mgrwt>
</event>
<event>
 4    1  0.5080671E-005  0.8849717E+03  0.7818608E-02  0.9444565E-01
         -2   -1    0    0    0  501 -0.00000000000E+00  0.00000000000E+00  0.91471345987E+02  0.91471346023E+02  0.25500000000E-02 0. -1.
          2   -1    0    0  501    0  0.00000000000E+00 -0.00000000000E+00 -0.21404922745E+04  0.21404922745E+04  0.25500000000E-02 0.  1.
    5000001    1    1    2    0    0 -0.66792373916E+02 -0.38865612258E+03 -0.10901767862E+04  0.11762657982E+04  0.19900000000E+03 0.  0.
   -5000001    1    1    2    0    0  0.66792373916E+02  0.38865612258E+03 -0.95884414234E+03  0.10556978224E+04  0.19900000000E+03 0.  0.
<mgrwt>
<rscale>  0 0.88497166E+03</rscale>
<asrwt>0</asrwt>
<pdfrwt beam="1">  1        2 0.30578458E+00 0.88497166E+03</pdfrwt>
<pdfrwt beam="2">  1       -2 0.13067336E-01 0.88497166E+03</pdfrwt>
<totfact> 0.30385857E+02</totfact>
</mgrwt>
</event>
<event>
 4    1  0.5080671E-005  0.6784420E+03  0.7818608E-02  0.9754826E-01
         -2   -1    0    0    0  501 -0.00000000000E+00  0.00000000000E+00  0.22190901285E+03  0.22190901287E+03  0.25500000000E-02 0. -1.
          2   -1    0    0  501    0  0.00000000000E+00 -0.00000000000E+00 -0.51854988304E+03  0.51854988304E+03  0.25500000000E-02 0.  1.
    5000001    1    1    2    0    0  0.11661913472E+03  0.23464027521E+03 -0.23841182155E+03  0.40632164351E+03  0.19900000000E+03 0.  0.
   -5000001    1    1    2    0    0 -0.11661913472E+03 -0.23464027521E+03 -0.58229048638E+02  0.33413725240E+03  0.19900000000E+03 0.  0.
<mgrwt>
<rscale>  0 0.67844202E+03</rscale>
<asrwt>0</asrwt>
<pdfrwt beam="1">  1        2 0.74078554E-01 0.67844202E+03</pdfrwt>
<pdfrwt beam="2">  1       -2 0.31701288E-01 0.67844202E+03</pdfrwt>
<totfact> 0.59803789E+02</totfact>
</mgrwt>
</event>
<event>
 4    1  0.5080671E-005  0.4749028E+03  0.7818608E-02  0.1020545E+00
         -2   -1    0    0    0  501 -0.00000000000E+00  0.00000000000E+00  0.30896747413E+03  0.30896747414E+03  0.25500000000E-02 0. -1.
          2   -1    0    0  501    0  0.00000000000E+00 -0.00000000000E+00 -0.18248900180E+03  0.18248900181E+03  0.25500000000E-02 0.  1.
    5000001    1    1    2    0    0  0.47476246935E+02  0.10615100160E+03  0.12232709442E+03  0.26093475658E+03  0.19900000000E+03 0.  0.
   -5000001    1    1    2    0    0 -0.47476246935E+02 -0.10615100160E+03  0.41513779192E+01  0.23052171937E+03  0.19900000000E+03 0.  0.
<mgrwt>
<rscale>  0 0.47490279E+03</rscale>
<asrwt>0</asrwt>
<pdfrwt beam="1">  1        2 0.26069857E-01 0.47490279E+03</pdfrwt>
<pdfrwt beam="2">  1       -2 0.44138211E-01 0.47490279E+03</pdfrwt>
<totfact> 0.10177974E+03</totfact>
</mgrwt>
</event>
<event>
 4    1  0.5080671E-005  0.6750168E+03  0.7818608E-02  0.9760937E-01
         -2   -1    0    0    0  501 -0.00000000000E+00  0.00000000000E+00  0.38805626779E+02  0.38805626863E+02  0.25500000000E-02 0. -1.
          2   -1    0    0  501    0  0.00000000000E+00 -0.00000000000E+00 -0.29354484072E+04  0.29354484072E+04  0.25500000000E-02 0.  1.
    5000001    1    1    2    0    0 -0.24163879358E+02  0.26637759255E+03 -0.16802228141E+04  0.17129771218E+04  0.19900000000E+03 0.  0.
   -5000001    1    1    2    0    0  0.24163879358E+02 -0.26637759255E+03 -0.12164199663E+04  0.12612769122E+04  0.19900000000E+03 0.  0.
<mgrwt>
<rscale>  0 0.67501679E+03</rscale>
<asrwt>0</asrwt>
<pdfrwt beam="1">  1        2 0.41934963E+00 0.67501679E+03</pdfrwt>
<pdfrwt beam="2">  1       -2 0.55436628E-02 0.67501679E+03</pdfrwt>
<totfact> 0.47431987E+02</totfact>
</mgrwt>
</event>
<event>
 4    1  0.5080671E-005  0.5582155E+03  0.7818608E-02  0.9996101E-01
          2   -1    0    0  501    0  0.00000000000E+00  0.00000000000E+00  0.19468167553E+04  0.19468167553E+04  0.25500000000E-02 0.  1.
         -2   -1    0    0    0  501 -0.00000000000E+00 -0.00000000000E+00 -0.40014614764E+02  0.40014614845E+02  0.25500000000E-02 0. -1.
    5000001    1    1    2    0    0 -0.82447838384E+02 -0.13852754478E+03  0.13483436576E+04  0.13724500521E+04  0.19900000000E+03 0.  0.
   -5000001    1    1    2    0    0  0.82447838384E+02  0.13852754478E+03  0.55845848296E+03  0.61438131800E+03  0.19900000000E+03 0.  0.
<mgrwt>
<rscale>  0 0.55821545E+03</rscale>
<asrwt>0</asrwt>
<pdfrwt beam="1">  1        2 0.27811665E+00 0.55821545E+03</pdfrwt>
<pdfrwt beam="2">  1       -2 0.57163742E-02 0.55821545E+03</pdfrwt>
<totfact> 0.14706468E+03</totfact>
</mgrwt>
</event>
<event>
 4    1  0.5080671E-005  0.1598736E+04  0.7818608E-02  0.8821325E-01
         -2   -1    0    0    0  501 -0.00000000000E+00  0.00000000000E+00  0.24864133084E+03  0.24864133085E+03  0.25500000000E-02 0. -1.
          2   -1    0    0  501    0  0.00000000000E+00 -0.00000000000E+00 -0.25699244217E+04  0.25699244217E+04  0.25500000000E-02 0.  1.
    5000001    1    1    2    0    0  0.56618101421E+03 -0.49151167922E+03 -0.82040725717E+03  0.11290764984E+04  0.19900000000E+03 0.  0.
   -5000001    1    1    2    0    0 -0.56618101421E+03  0.49151167922E+03 -0.15008758337E+04  0.16894892541E+04  0.19900000000E+03 0.  0.
<mgrwt>
<rscale>  0 0.15987363E+04</rscale>
<asrwt>0</asrwt>
<pdfrwt beam="1">  1        2 0.36713205E+00 0.15987363E+04</pdfrwt>
<pdfrwt beam="2">  1       -2 0.35520192E-01 0.15987363E+04</pdfrwt>
<totfact> 0.29001396E+01</totfact>
</mgrwt>
</event>
<event>
 4    1  0.5080671E-005  0.5392447E+03  0.7818608E-02  0.1004014E+00
          2   -1    0    0  501    0  0.00000000000E+00  0.00000000000E+00  0.93275764579E+03  0.93275764580E+03  0.25500000000E-02 0.  1.
         -2   -1    0    0    0  501 -0.00000000000E+00 -0.00000000000E+00 -0.77936873081E+02  0.77936873123E+02  0.25500000000E-02 0. -1.
    5000001    1    1    2    0    0  0.54272582845E+02 -0.17250191850E+03  0.39026424082E+03  0.47392995558E+03  0.19900000000E+03 0.  0.
   -5000001    1    1    2    0    0 -0.54272582845E+02  0.17250191850E+03  0.46455653189E+03  0.53676456334E+03  0.19900000000E+03 0.  0.
<mgrwt>
<rscale>  0 0.53924471E+03</rscale>
<asrwt>0</asrwt>
<pdfrwt beam="1">  1        2 0.13325110E+00 0.53924471E+03</pdfrwt>
<pdfrwt beam="2">  1       -2 0.11133839E-01 0.53924471E+03</pdfrwt>
<totfact> 0.17873216E+03</totfact>
</mgrwt>
</event>
<event>
 4    1  0.5080671E-005  0.5711250E+03  0.7818608E-02  0.9967192E-01
          2   -1    0    0  501    0  0.00000000000E+00  0.00000000000E+00  0.21699786334E+03  0.21699786336E+03  0.25500000000E-02 0.  1.
         -2   -1    0    0    0  501 -0.00000000000E+00 -0.00000000000E+00 -0.37579147803E+03  0.37579147804E+03  0.25500000000E-02 0. -1.
    5000001    1    1    2    0    0 -0.58923227045E+02  0.19080990088E+03 -0.12655806254E+03  0.30902800545E+03  0.19900000000E+03 0.  0.
   -5000001    1    1    2    0    0  0.58923227045E+02 -0.19080990088E+03 -0.32235552147E+02  0.28376133595E+03  0.19900000000E+03 0.  0.
<mgrwt>
<rscale>  0 0.57112502E+03</rscale>
<asrwt>0</asrwt>
<pdfrwt beam="1">  1        2 0.30999695E-01 0.57112502E+03</pdfrwt>
<pdfrwt beam="2">  1       -2 0.53684497E-01 0.57112502E+03</pdfrwt>
<totfact> 0.56479550E+02</totfact>
</mgrwt>
</event>
<event>
 4    1  0.5080671E-005  0.6884455E+03  0.7818608E-02  0.9737199E-01
         -2   -1    0    0    0  501 -0.00000000000E+00  0.00000000000E+00  0.62474824264E+02  0.62474824316E+02  0.25500000000E-02 0. -1.
          2   -1    0    0  501    0  0.00000000000E+00 -0.00000000000E+00 -0.18965928159E+04  0.18965928159E+04  0.25500000000E-02 0.  1.
    5000001    1    1    2    0    0  0.19517683289E+03  0.19686495719E+03 -0.78857922958E+03  0.85924851399E+03  0.19900000000E+03 0.  0.
   -5000001    1    1    2    0    0 -0.19517683289E+03 -0.19686495719E+03 -0.10455387621E+04  0.10998191263E+04  0.19900000000E+03 0.  0.
<mgrwt>
<rscale>  0 0.68844550E+03</rscale>
<asrwt>0</asrwt>
<pdfrwt beam="1">  1        2 0.27094179E+00 0.68844550E+03</pdfrwt>
<pdfrwt beam="2">  1       -2 0.89249761E-02 0.68844550E+03</pdfrwt>
<totfact> 0.76440471E+02</totfact>
</mgrwt>
</event>
<event>
 4    1  0.5080671E-005  0.4912226E+03  0.7818608E-02  0.1016096E+00
          2   -1    0    0  501    0  0.00000000000E+00  0.00000000000E+00  0.11949495832E+03  0.11949495835E+03  0.25500000000E-02 0.  1.
         -2   -1    0    0    0  501 -0.00000000000E+00 -0.00000000000E+00 -0.50483222420E+03  0.50483222420E+03  0.25500000000E-02 0. -1.
    5000001    1    1    2    0    0  0.12044812819E+03  0.23921167003E+02 -0.28815135707E+03  0.37109591536E+03  0.19900000000E+03 0.  0.
   -5000001    1    1    2    0    0 -0.12044812819E+03 -0.23921167003E+02 -0.97185908804E+02  0.25323126719E+03  0.19900000000E+03 0.  0.
<mgrwt>
<rscale>  0 0.49122258E+03</rscale>
<asrwt>0</asrwt>
<pdfrwt beam="1">  1        2 0.17070709E-01 0.49122258E+03</pdfrwt>
<pdfrwt beam="2">  1       -2 0.72118888E-01 0.49122258E+03</pdfrwt>
<totfact> 0.60152247E+02</totfact>
</mgrwt>
</event>
<event>
 4    1  0.5080671E-005  0.5392282E+03  0.7818608E-02  0.1004018E+00
         -2   -1    0    0    0  501 -0.00000000000E+00  0.00000000000E+00  0.73026315340E+02  0.73026315385E+02  0.25500000000E-02 0. -1.
          2   -1    0    0  501    0  0.00000000000E+00 -0.00000000000E+00 -0.99541890481E+03  0.99541890481E+03  0.25500000000E-02 0.  1.
    5000001    1    1    2    0    0 -0.11756420784E+03  0.12667446009E+03 -0.57368545144E+03  0.63133490241E+03  0.19900000000E+03 0.  0.
   -5000001    1    1    2    0    0  0.11756420784E+03 -0.12667446009E+03 -0.34870713803E+03  0.43711031779E+03  0.19900000000E+03 0.  0.
<mgrwt>
<rscale>  0 0.53922824E+03</rscale>
<asrwt>0</asrwt>
<pdfrwt beam="1">  1        2 0.14220269E+00 0.53922824E+03</pdfrwt>
<pdfrwt beam="2">  1       -2 0.10432331E-01 0.53922824E+03</pdfrwt>
<totfact> 0.18171953E+03</totfact>
</mgrwt>
</event>
<event>
 4    1  0.5080671E-005  0.6138609E+03  0.7818608E-02  0.9877059E-01
         -2   -1    0    0    0  501 -0.00000000000E+00  0.00000000000E+00  0.10334135406E+03  0.10334135410E+03  0.25500000000E-02 0. -1.
          2   -1    0    0  501    0  0.00000000000E+00 -0.00000000000E+00 -0.91160316151E+03  0.91160316151E+03  0.25500000000E-02 0.  1.
    5000001    1    1    2    0    0 -0.20294037537E+03  0.11551886476E+03 -0.38972647167E+03  0.49600113588E+03  0.19900000000E+03 0.  0.
   -5000001    1    1    2    0    0  0.20294037537E+03 -0.11551886476E+03 -0.41853533577E+03  0.51894337973E+03  0.19900000000E+03 0.  0.
<mgrwt>
<rscale>  0 0.61386091E+03</rscale>
<asrwt>0</asrwt>
<pdfrwt beam="1">  1        2 0.13022902E+00 0.61386091E+03</pdfrwt>
<pdfrwt beam="2">  1       -2 0.14763051E-01 0.61386091E+03</pdfrwt>
<totfact> 0.11542728E+03</totfact>
</mgrwt>
</event>
<event>
 4    1  0.5080671E-005  0.4619813E+03  0.7818608E-02  0.1024208E+00
         -2   -1    0    0    0  501 -0.00000000000E+00  0.00000000000E+00  0.74852978165E+03  0.74852978166E+03  0.25500000000E-02 0. -1.
          2   -1    0    0  501    0  0.00000000000E+00 -0.00000000000E+00 -0.71281977928E+02  0.71281977973E+02  0.25500000000E-02 0.  1.
    5000001    1    1    2    0    0  0.11683120626E+03 -0.71036608949E+01  0.35186673309E+03  0.42084580384E+03  0.19900000000E+03 0.  0.
   -5000001    1    1    2    0    0 -0.11683120626E+03  0.71036608949E+01  0.32538107064E+03  0.39896595580E+03  0.19900000000E+03 0.  0.
<mgrwt>
<rscale>  0 0.46198131E+03</rscale>
<asrwt>0</asrwt>
<pdfrwt beam="1">  1        2 0.10183139E-01 0.46198131E+03</pdfrwt>
<pdfrwt beam="2">  1       -2 0.10693283E+00 0.46198131E+03</pdfrwt>
<totfact> 0.46130877E+02</totfact>
</mgrwt>
</event>
<event>
 4    1  0.5080671E-005  0.8875273E+03  0.7818608E-02  0.9441309E-01
         -2   -1    0    0    0  501 -0.00000000000E+00  0.00000000000E+00  0.85380869897E+02  0.85380869935E+02  0.25500000000E-02 0. -1.
          2   -1    0    0  501    0  0.00000000000E+00 -0.00000000000E+00 -0.23064439069E+04  0.23064439069E+04  0.25500000000E-02 0.  1.
    5000001    1    1    2    0    0 -0.26119225688E+03 -0.26677228026E+03 -0.74960850553E+03  0.86075708311E+03  0.19900000000E+03 0.  0.
   -5000001    1    1    2    0    0  0.26119225688E+03  0.26677228026E+03 -0.14714545314E+04  0.15310676937E+04  0.19900000000E+03 0.  0.
<mgrwt>
<rscale>  0 0.88752732E+03</rscale>
<asrwt>0</asrwt>
<pdfrwt beam="1">  1        2 0.32949195E+00 0.88752732E+03</pdfrwt>
<pdfrwt beam="2">  1       -2 0.12197269E-01 0.88752732E+03</pdfrwt>
<totfact> 0.28035150E+02</totfact>
</mgrwt>
</event>
<event>
 4    1  0.5080671E-005  0.5845927E+03  0.7818608E-02  0.9937897E-01
         -2   -1    0    0    0  501 -0.00000000000E+00  0.00000000000E+00  0.76032378748E+02  0.76032378790E+02  0.25500000000E-02 0. -1.
          2   -1    0    0  501    0  0.00000000000E+00 -0.00000000000E+00 -0.11236944820E+04  0.11236944820E+04  0.25500000000E-02 0.  1.
    5000001    1    1    2    0    0  0.80672742580E+01  0.21366270804E+03 -0.50141262271E+03  0.58028652572E+03  0.19900000000E+03 0.  0.
   -5000001    1    1    2    0    0 -0.80672742580E+01 -0.21366270804E+03 -0.54624948055E+03  0.61944033507E+03  0.19900000000E+03 0.  0.
<mgrwt>
<rscale>  0 0.58459273E+03</rscale>
<asrwt>0</asrwt>
<pdfrwt beam="1">  1        2 0.16052777E+00 0.58459273E+03</pdfrwt>
<pdfrwt beam="2">  1       -2 0.10861769E-01 0.58459273E+03</pdfrwt>
<totfact> 0.14280970E+03</totfact>
</mgrwt>
</event>
<event>
 4    1  0.5080671E-005  0.5697267E+03  0.7818608E-02  0.9970284E-01
         -2   -1    0    0    0  501 -0.00000000000E+00  0.00000000000E+00  0.29012383168E+03  0.29012383169E+03  0.25500000000E-02 0. -1.
          2   -1    0    0  501    0  0.00000000000E+00 -0.00000000000E+00 -0.27969821071E+03  0.27969821072E+03  0.25500000000E-02 0.  1.
    5000001    1    1    2    0    0  0.18708485244E+03  0.40675881183E+02  0.75159111778E+02  0.28619077799E+03  0.19900000000E+03 0.  0.
   -5000001    1    1    2    0    0 -0.18708485244E+03 -0.40675881183E+02 -0.64733490808E+02  0.28363126442E+03  0.19900000000E+03 0.  0.
<mgrwt>
<rscale>  0 0.56972666E+03</rscale>
<asrwt>0</asrwt>
<pdfrwt beam="1">  1        2 0.39956887E-01 0.56972666E+03</pdfrwt>
<pdfrwt beam="2">  1       -2 0.41446262E-01 0.56972666E+03</pdfrwt>
<totfact> 0.71500442E+02</totfact>
</mgrwt>
</event>
<event>
 4    1  0.5080671E-005  0.4274631E+03  0.7818608E-02  0.1034664E+00
          2   -1    0    0  501    0  0.00000000000E+00  0.00000000000E+00  0.35761248496E+03  0.35761248497E+03  0.25500000000E-02 0.  1.
         -2   -1    0    0    0  501 -0.00000000000E+00 -0.00000000000E+00 -0.12773929622E+03  0.12773929624E+03  0.25500000000E-02 0. -1.
    5000001    1    1    2    0    0  0.17426362749E+02 -0.54599708021E+02  0.54905400421E+02  0.21424380792E+03  0.19900000000E+03 0.  0.
   -5000001    1    1    2    0    0 -0.17426362749E+02  0.54599708021E+02  0.17496778832E+03  0.27110797330E+03  0.19900000000E+03 0.  0.
<mgrwt>
<rscale>  0 0.42746306E+03</rscale>
<asrwt>0</asrwt>
<pdfrwt beam="1">  1        2 0.51087498E-01 0.42746306E+03</pdfrwt>
<pdfrwt beam="2">  1       -2 0.18248471E-01 0.42746306E+03</pdfrwt>
<totfact> 0.24266888E+03</totfact>
</mgrwt>
</event>
<event>
 4    1  0.5080671E-005  0.5815242E+03  0.7818608E-02  0.9944497E-01
          2   -1    0    0  501    0  0.00000000000E+00  0.00000000000E+00  0.11125378484E+04  0.11125378484E+04  0.25500000000E-02 0.  1.
         -2   -1    0    0    0  501 -0.00000000000E+00 -0.00000000000E+00 -0.75990753613E+02  0.75990753655E+02  0.25500000000E-02 0. -1.
    5000001    1    1    2    0    0  0.18887771684E+03 -0.59503950493E+02  0.67293086727E+03  0.72914502273E+03  0.19900000000E+03 0.  0.
   -5000001    1    1    2    0    0 -0.18887771684E+03  0.59503950493E+02  0.36361622751E+03  0.45938357932E+03  0.19900000000E+03 0.  0.
<mgrwt>
<rscale>  0 0.58152417E+03</rscale>
<asrwt>0</asrwt>
<pdfrwt beam="1">  1        2 0.15893398E+00 0.58152417E+03</pdfrwt>
<pdfrwt beam="2">  1       -2 0.10855822E-01 0.58152417E+03</pdfrwt>
<totfact> 0.14508075E+03</totfact>
</mgrwt>
</event>
<event>
 4    1  0.5080671E-005  0.6258948E+03  0.7818608E-02  0.9853093E-01
          2   -1    0    0  501    0  0.00000000000E+00  0.00000000000E+00  0.85503531723E+03  0.85503531723E+03  0.25500000000E-02 0. -1.
         -2   -1    0    0    0  501 -0.00000000000E+00 -0.00000000000E+00 -0.11454038298E+03  0.11454038301E+03  0.25500000000E-02 0.  1.
    5000001    1    1    2    0    0 -0.20393420086E+03 -0.12865692222E+03  0.39178561940E+03  0.50123720281E+03  0.19900000000E+03 0.  0.
   -5000001    1    1    2    0    0  0.20393420086E+03  0.12865692222E+03  0.34870931485E+03  0.46833849743E+03  0.19900000000E+03 0.  0.
<mgrwt>
<rscale>  0 0.62589479E+03</rscale>
<asrwt>0</asrwt>
<pdfrwt beam="1">  1        2 0.12214790E+00 0.62589479E+03</pdfrwt>
<pdfrwt beam="2">  1       -2 0.16362912E-01 0.62589479E+03</pdfrwt>
<totfact> 0.10558595E+03</totfact>
</mgrwt>
</event>
<event>
 4    1  0.5080671E-005  0.4635887E+03  0.7818608E-02  0.1023746E+00
         -2   -1    0    0    0  501 -0.00000000000E+00  0.00000000000E+00  0.29765585653E+02  0.29765585762E+02  0.25500000000E-02 0. -1.
          2   -1    0    0  501    0  0.00000000000E+00 -0.00000000000E+00 -0.18050583795E+04  0.18050583795E+04  0.25500000000E-02 0.  1.
    5000001    1    1    2    0    0 -0.81103586475E+02 -0.59084655461E+02 -0.11397982040E+04  0.11613826820E+04  0.19900000000E+03 0.  0.
   -5000001    1    1    2    0    0  0.81103586475E+02  0.59084655461E+02 -0.63549458978E+03  0.67344128318E+03  0.19900000000E+03 0.  0.
<mgrwt>
<rscale>  0 0.46358870E+03</rscale>
<asrwt>0</asrwt>
<pdfrwt beam="1">  1        2 0.25786541E+00 0.46358870E+03</pdfrwt>
<pdfrwt beam="2">  1       -2 0.42522277E-02 0.46358870E+03</pdfrwt>
<totfact> 0.27447218E+03</totfact>
</mgrwt>
</event>
<event>
 4    1  0.5080671E-005  0.6482750E+03  0.7818608E-02  0.9810021E-01
         -2   -1    0    0    0  501 -0.00000000000E+00  0.00000000000E+00  0.36620221357E+03  0.36620221358E+03  0.25500000000E-02 0. -1.
          2   -1    0    0  501    0  0.00000000000E+00 -0.00000000000E+00 -0.28690465458E+03  0.28690465459E+03  0.25500000000E-02 0.  1.
    5000001    1    1    2    0    0  0.20287336592E+03  0.15067138300E+03 -0.70788991101E+00  0.32165349270E+03  0.19900000000E+03 0.  0.
   -5000001    1    1    2    0    0 -0.20287336592E+03 -0.15067138300E+03  0.80005448901E+02  0.33145337547E+03  0.19900000000E+03 0.  0.
<mgrwt>
<rscale>  0 0.64827500E+03</rscale>
<asrwt>0</asrwt>
<pdfrwt beam="1">  1        2 0.40986379E-01 0.64827500E+03</pdfrwt>
<pdfrwt beam="2">  1       -2 0.52314602E-01 0.64827500E+03</pdfrwt>
<totfact> 0.43589932E+02</totfact>
</mgrwt>
</event>
<event>
 4    1  0.5080671E-005  0.1188048E+04  0.7818608E-02  0.9123383E-01
         -2   -1    0    0    0  501 -0.00000000000E+00  0.00000000000E+00  0.15992903817E+03  0.15992903819E+03  0.25500000000E-02 0. -1.
          2   -1    0    0  501    0  0.00000000000E+00 -0.00000000000E+00 -0.22063816016E+04  0.22063816016E+04  0.25500000000E-02 0.  1.
    5000001    1    1    2    0    0  0.45842237401E+03  0.16703275983E+03 -0.47698726893E+03  0.71075232717E+03  0.19900000000E+03 0.  0.
   -5000001    1    1    2    0    0 -0.45842237401E+03 -0.16703275983E+03 -0.15694652945E+04  0.16555583126E+04  0.19900000000E+03 0.  0.
<mgrwt>
<rscale>  0 0.11880480E+04</rscale>
<asrwt>0</asrwt>
<pdfrwt beam="1">  1        2 0.31519735E+00 0.11880480E+04</pdfrwt>
<pdfrwt beam="2">  1       -2 0.22847007E-01 0.11880480E+04</pdfrwt>
<totfact> 0.10481224E+02</totfact>
</mgrwt>
</event>
<event>
 4    1  0.5080671E-005  0.5147587E+03  0.7818608E-02  0.1009997E+00
          2   -1    0    0  501    0  0.00000000000E+00  0.00000000000E+00  0.10285845096E+04  0.10285845096E+04  0.25500000000E-02 0.  1.
         -2   -1    0    0    0  501 -0.00000000000E+00 -0.00000000000E+00 -0.64403199161E+02  0.64403199211E+02  0.25500000000E-02 0. -1.
    5000001    1    1    2    0    0  0.15269422720E+03 -0.18648744123E+02  0.59799703556E+03  0.64874090145E+03  0.19900000000E+03 0.  0.
   -5000001    1    1    2    0    0 -0.15269422720E+03  0.18648744123E+02  0.36618427486E+03  0.44424680734E+03  0.19900000000E+03 0.  0.
<mgrwt>
<rscale>  0 0.51475871E+03</rscale>
<asrwt>0</asrwt>
<pdfrwt beam="1">  1        2 0.14694065E+00 0.51475871E+03</pdfrwt>
<pdfrwt beam="2">  1       -2 0.92004566E-02 0.51475871E+03</pdfrwt>
<totfact> 0.21259777E+03</totfact>
</mgrwt>
</event>
<event>
 4    1  0.5080671E-005  0.6417465E+03  0.7818608E-02  0.9822391E-01
          2   -1    0    0  501    0  0.00000000000E+00  0.00000000000E+00  0.27036213400E+04  0.27036213400E+04  0.25500000000E-02 0.  1.
         -2   -1    0    0    0  501 -0.00000000000E+00 -0.00000000000E+00 -0.38082123925E+02  0.38082124010E+02  0.25500000000E-02 0. -1.
    5000001    1    1    2    0    0  0.49067743584E+02  0.24531351316E+03  0.12140440230E+04  0.12554243319E+04  0.19900000000E+03 0.  0.
   -5000001    1    1    2    0    0 -0.49067743584E+02 -0.24531351316E+03  0.14514951930E+04  0.14862791321E+04  0.19900000000E+03 0.  0.
<mgrwt>
<rscale>  0 0.64174650E+03</rscale>
<asrwt>0</asrwt>
<pdfrwt beam="1">  1        2 0.38623167E+00 0.64174650E+03</pdfrwt>
<pdfrwt beam="2">  1       -2 0.54403027E-02 0.64174650E+03</pdfrwt>
<totfact> 0.65096289E+02</totfact>
</mgrwt>
</event>
<event>
 4    1  0.5080671E-005  0.5881708E+03  0.7818608E-02  0.9930256E-01
         -2   -1    0    0    0  501 -0.00000000000E+00  0.00000000000E+00  0.24784030991E+02  0.24784031122E+02  0.25500000000E-02 0. -1.
          2   -1    0    0  501    0  0.00000000000E+00 -0.00000000000E+00 -0.34895949907E+04  0.34895949907E+04  0.25500000000E-02 0.  1.
    5000001    1    1    2    0    0  0.10538731942E+03 -0.13418106534E+03 -0.25290048678E+04  0.25425533754E+04  0.19900000000E+03 0.  0.
   -5000001    1    1    2    0    0 -0.10538731942E+03  0.13418106534E+03 -0.93580609187E+03  0.97182564638E+03  0.19900000000E+03 0.  0.
<mgrwt>
<rscale>  0 0.58817083E+03</rscale>
<asrwt>0</asrwt>
<pdfrwt beam="1">  1        2 0.49851326E+00 0.58817083E+03</pdfrwt>
<pdfrwt beam="2">  1       -2 0.35405781E-02 0.58817083E+03</pdfrwt>
<totfact> 0.46558110E+02</totfact>
</mgrwt>
</event>
<event>
 4    1  0.5080671E-005  0.4779117E+03  0.7818608E-02  0.1019711E+00
         -2   -1    0    0    0  501 -0.00000000000E+00  0.00000000000E+00  0.36584329474E+02  0.36584329563E+02  0.25500000000E-02 0. -1.
          2   -1    0    0  501    0  0.00000000000E+00 -0.00000000000E+00 -0.15607750000E+04  0.15607750000E+04  0.25500000000E-02 0.  1.
    5000001    1    1    2    0    0  0.13201088039E+03 -0.77560132989E+01 -0.77361495023E+03  0.80967161214E+03  0.19900000000E+03 0.  0.
   -5000001    1    1    2    0    0 -0.13201088039E+03  0.77560132989E+01 -0.75057572027E+03  0.78768771740E+03  0.19900000000E+03 0.  0.
<mgrwt>
<rscale>  0 0.47791174E+03</rscale>
<asrwt>0</asrwt>
<pdfrwt beam="1">  1        2 0.22296781E+00 0.47791174E+03</pdfrwt>
<pdfrwt beam="2">  1       -2 0.52263338E-02 0.47791174E+03</pdfrwt>
<totfact> 0.26544880E+03</totfact>
</mgrwt>
</event>
<event>
 4    1  0.5080671E-005  0.1094071E+04  0.7818608E-02  0.9210990E-01
          2   -1    0    0  501    0  0.00000000000E+00  0.00000000000E+00  0.17126860080E+04  0.17126860080E+04  0.25500000000E-02 0.  1.
         -2   -1    0    0    0  501 -0.00000000000E+00 -0.00000000000E+00 -0.17472438287E+03  0.17472438289E+03  0.25500000000E-02 0. -1.
    5000001    1    1    2    0    0 -0.29598723143E+03 -0.39109614319E+03  0.53067376516E+03  0.74952003270E+03  0.19900000000E+03 0.  0.
   -5000001    1    1    2    0    0  0.29598723143E+03  0.39109614319E+03  0.10072878599E+04  0.11378903581E+04  0.19900000000E+03 0.  0.
<mgrwt>
<rscale>  0 0.10940713E+04</rscale>
<asrwt>0</asrwt>
<pdfrwt beam="1">  1        2 0.24466943E+00 0.10940713E+04</pdfrwt>
<pdfrwt beam="2">  1       -2 0.24960626E-01 0.10940713E+04</pdfrwt>
<totfact> 0.16125088E+02</totfact>
</mgrwt>
</event>
<event>
 4    1  0.5080671E-005  0.5167272E+03  0.7818608E-02  0.1009503E+00
          2   -1    0    0  501    0  0.00000000000E+00  0.00000000000E+00  0.31646757759E+03  0.31646757760E+03  0.25500000000E-02 0.  1.
         -2   -1    0    0    0  501 -0.00000000000E+00 -0.00000000000E+00 -0.21092760162E+03  0.21092760163E+03  0.25500000000E-02 0. -1.
    5000001    1    1    2    0    0 -0.78138534119E+02  0.13113240018E+03  0.11609451291E+03  0.27636981170E+03  0.19900000000E+03 0.  0.
   -5000001    1    1    2    0    0  0.78138534119E+02 -0.13113240018E+03 -0.10554536943E+02  0.25102536753E+03  0.19900000000E+03 0.  0.
<mgrwt>
<rscale>  0 0.51672719E+03</rscale>
<asrwt>0</asrwt>
<pdfrwt beam="1">  1        2 0.45209654E-01 0.51672719E+03</pdfrwt>
<pdfrwt beam="2">  1       -2 0.30132515E-01 0.51672719E+03</pdfrwt>
<totfact> 0.11424401E+03</totfact>
</mgrwt>
</event>
<event>
 4    1  0.5080671E-005  0.1286546E+04  0.7818608E-02  0.9040302E-01
          2   -1    0    0  501    0  0.00000000000E+00  0.00000000000E+00  0.20901136700E+04  0.20901136700E+04  0.25500000000E-02 0.  1.
         -2   -1    0    0    0  501 -0.00000000000E+00 -0.00000000000E+00 -0.19797987449E+03  0.19797987451E+03  0.25500000000E-02 0. -1.
    5000001    1    1    2    0    0 -0.42823636086E+03 -0.29246104182E+03  0.36900763205E+03  0.66684891412E+03  0.19900000000E+03 0.  0.
   -5000001    1    1    2    0    0  0.42823636086E+03  0.29246104182E+03  0.15231261634E+04  0.16212446303E+04  0.19900000000E+03 0.  0.
<mgrwt>
<rscale>  0 0.12865465E+04</rscale>
<asrwt>0</asrwt>
<pdfrwt beam="1">  1        2 0.29858767E+00 0.12865465E+04</pdfrwt>
<pdfrwt beam="2">  1       -2 0.28282839E-01 0.12865465E+04</pdfrwt>
<totfact> 0.81004108E+01</totfact>
</mgrwt>
</event>
<event>
 4    1  0.5080671E-005  0.6986865E+03  0.7818608E-02  0.9719481E-01
         -2   -1    0    0    0  501 -0.00000000000E+00  0.00000000000E+00  0.73147359563E+02  0.73147359607E+02  0.25500000000E-02 0. -1.
          2   -1    0    0  501    0  0.00000000000E+00 -0.00000000000E+00 -0.16684227387E+04  0.16684227387E+04  0.25500000000E-02 0.  1.
    5000001    1    1    2    0    0 -0.11413008333E+03  0.22374737180E+03 -0.45089122595E+03  0.55316585211E+03  0.19900000000E+03 0.  0.
   -5000001    1    1    2    0    0  0.11413008333E+03 -0.22374737180E+03 -0.11443841532E+04  0.11884042462E+04  0.19900000000E+03 0.  0.
<mgrwt>
<rscale>  0 0.69868653E+03</rscale>
<asrwt>0</asrwt>
<pdfrwt beam="1">  1        2 0.23834608E+00 0.69868653E+03</pdfrwt>
<pdfrwt beam="2">  1       -2 0.10449624E-01 0.69868653E+03</pdfrwt>
<totfact> 0.77276167E+02</totfact>
</mgrwt>
</event>
<event>
 4    1  0.5080671E-005  0.1300312E+04  0.7818608E-02  0.9029318E-01
          2   -1    0    0  501    0  0.00000000000E+00  0.00000000000E+00  0.18248013385E+04  0.18248013385E+04  0.25500000000E-02 0.  1.
         -2   -1    0    0    0  501 -0.00000000000E+00 -0.00000000000E+00 -0.23164311454E+03  0.23164311455E+03  0.25500000000E-02 0. -1.
    5000001    1    1    2    0    0 -0.48939408720E+03 -0.27561977302E+03  0.38530114606E+03  0.70959904525E+03  0.19900000000E+03 0.  0.
   -5000001    1    1    2    0    0  0.48939408720E+03  0.27561977302E+03  0.12078570779E+04  0.13468454078E+04  0.19900000000E+03 0.  0.
<mgrwt>
<rscale>  0 0.13003118E+04</rscale>
<asrwt>0</asrwt>
<pdfrwt beam="1">  1        2 0.26068589E+00 0.13003118E+04</pdfrwt>
<pdfrwt beam="2">  1       -2 0.33091875E-01 0.13003118E+04</pdfrwt>
<totfact> 0.82575387E+01</totfact>
</mgrwt>
</event>
<event>
 4    1  0.5080671E-005  0.6380799E+03  0.7818608E-02  0.9829407E-01
          2   -1    0    0  501    0  0.00000000000E+00  0.00000000000E+00  0.34385987980E+04  0.34385987980E+04  0.25500000000E-02 0.  1.
         -2   -1    0    0    0  501 -0.00000000000E+00 -0.00000000000E+00 -0.29601157059E+02  0.29601157169E+02  0.25500000000E-02 0. -1.
    5000001    1    1    2    0    0  0.69767115318E+02 -0.19906520012E+03  0.24274457898E+04  0.24447062128E+04  0.19900000000E+03 0.  0.
   -5000001    1    1    2    0    0 -0.69767115318E+02  0.19906520012E+03  0.98155185115E+03  0.10234937424E+04  0.19900000000E+03 0.  0.
<mgrwt>
<rscale>  0 0.63807994E+03</rscale>
<asrwt>0</asrwt>
<pdfrwt beam="1">  1        2 0.49122856E+00 0.63807994E+03</pdfrwt>
<pdfrwt beam="2">  1       -2 0.42287353E-02 0.63807994E+03</pdfrwt>
<totfact> 0.37773158E+02</totfact>
</mgrwt>
</event>
<event>
 4    1  0.5080671E-005  0.5510525E+03  0.7818608E-02  0.1001251E+00
          2   -1    0    0  501    0  0.00000000000E+00  0.00000000000E+00  0.37169918281E+03  0.37169918282E+03  0.25500000000E-02 0.  1.
         -2   -1    0    0    0  501 -0.00000000000E+00 -0.00000000000E+00 -0.20423697128E+03  0.20423697130E+03  0.25500000000E-02 0. -1.
    5000001    1    1    2    0    0 -0.18085881885E+03  0.53428016094E+02  0.11233958415E+03  0.29628642802E+03  0.19900000000E+03 0.  0.
   -5000001    1    1    2    0    0  0.18085881885E+03 -0.53428016094E+02  0.55122627377E+02  0.27964972610E+03  0.19900000000E+03 0.  0.
<mgrwt>
<rscale>  0 0.55105250E+03</rscale>
<asrwt>0</asrwt>
<pdfrwt beam="1">  1        2 0.53099883E-01 0.55105250E+03</pdfrwt>
<pdfrwt beam="2">  1       -2 0.29176710E-01 0.55105250E+03</pdfrwt>
<totfact> 0.10153600E+03</totfact>
</mgrwt>
</event>
<event>
 4    1  0.5080671E-005  0.4871086E+03  0.7818608E-02  0.1017200E+00
          2   -1    0    0  501    0  0.00000000000E+00  0.00000000000E+00  0.18324933542E+04  0.18324933542E+04  0.25500000000E-02 0.  1.
         -2   -1    0    0    0  501 -0.00000000000E+00 -0.00000000000E+00 -0.32370489358E+02  0.32370489458E+02  0.25500000000E-02 0. -1.
    5000001    1    1    2    0    0 -0.11653067958E+03  0.49339670033E+02  0.66706397586E+03  0.70752325066E+03  0.19900000000E+03 0.  0.
   -5000001    1    1    2    0    0  0.11653067958E+03 -0.49339670033E+02  0.11330588890E+04  0.11573405930E+04  0.19900000000E+03 0.  0.
<mgrwt>
<rscale>  0 0.48710864E+03</rscale>
<asrwt>0</asrwt>
<pdfrwt beam="1">  1        2 0.26178481E+00 0.48710864E+03</pdfrwt>
<pdfrwt beam="2">  1       -2 0.46243548E-02 0.48710864E+03</pdfrwt>
<totfact> 0.23365082E+03</totfact>
</mgrwt>
</event>
<event>
 4    1  0.5080671E-005  0.9445248E+03  0.7818608E-02  0.9371573E-01
         -2   -1    0    0    0  501 -0.00000000000E+00  0.00000000000E+00  0.24657384112E+03  0.24657384114E+03  0.25500000000E-02 0. -1.
          2   -1    0    0  501    0  0.00000000000E+00 -0.00000000000E+00 -0.90452318449E+03  0.90452318449E+03  0.25500000000E-02 0.  1.
    5000001    1    1    2    0    0 -0.15344910187E+03 -0.31849872511E+03 -0.62359566370E+03  0.74394933735E+03  0.19900000000E+03 0.  0.
   -5000001    1    1    2    0    0  0.15344910187E+03  0.31849872511E+03 -0.34353679668E+02  0.40714768828E+03  0.19900000000E+03 0.  0.
<mgrwt>
<rscale>  0 0.94452476E+03</rscale>
<asrwt>0</asrwt>
<pdfrwt beam="1">  1        2 0.12921760E+00 0.94452476E+03</pdfrwt>
<pdfrwt beam="2">  1       -2 0.35224835E-01 0.94452476E+03</pdfrwt>
<totfact> 0.24407159E+02</totfact>
</mgrwt>
</event>
<event>
 4    1  0.5080671E-005  0.7425720E+03  0.7818608E-02  0.9647076E-01
          2   -1    0    0  501    0  0.00000000000E+00  0.00000000000E+00  0.16051097152E+04  0.16051097152E+04  0.25500000000E-02 0.  1.
         -2   -1    0    0    0  501 -0.00000000000E+00 -0.00000000000E+00 -0.85884039995E+02  0.85884040033E+02  0.25500000000E-02 0. -1.
    5000001    1    1    2    0    0  0.20195059965E+02  0.27499919634E+03  0.10990618484E+04  0.11504652733E+04  0.19900000000E+03 0.  0.
   -5000001    1    1    2    0    0 -0.20195059965E+02 -0.27499919634E+03  0.42016382679E+03  0.54052848193E+03  0.19900000000E+03 0.  0.
<mgrwt>
<rscale>  0 0.74257204E+03</rscale>
<asrwt>0</asrwt>
<pdfrwt beam="1">  1        2 0.22930137E+00 0.74257204E+03</pdfrwt>
<pdfrwt beam="2">  1       -2 0.12269150E-01 0.74257204E+03</pdfrwt>
<totfact> 0.63840384E+02</totfact>
</mgrwt>
</event>
<event>
 4    1  0.5080671E-005  0.4993422E+03  0.7818608E-02  0.1013951E+00
          2   -1    0    0  501    0  0.00000000000E+00  0.00000000000E+00  0.17853381790E+03  0.17853381792E+03  0.25500000000E-02 0.  1.
         -2   -1    0    0    0  501 -0.00000000000E+00 -0.00000000000E+00 -0.34915328535E+03  0.34915328536E+03  0.25500000000E-02 0. -1.
    5000001    1    1    2    0    0  0.10696161667E+03 -0.10598412524E+03 -0.77039458240E+02  0.26116948591E+03  0.19900000000E+03 0.  0.
   -5000001    1    1    2    0    0 -0.10696161667E+03  0.10598412524E+03 -0.93580009205E+02  0.26651761737E+03  0.19900000000E+03 0.  0.
<mgrwt>
<rscale>  0 0.49934224E+03</rscale>
<asrwt>0</asrwt>
<pdfrwt beam="1">  1        2 0.25504831E-01 0.49934224E+03</pdfrwt>
<pdfrwt beam="2">  1       -2 0.49879041E-01 0.49934224E+03</pdfrwt>
<totfact> 0.81779044E+02</totfact>
</mgrwt>
</event>
<event>
 4    1  0.5080671E-005  0.6494080E+03  0.7818608E-02  0.9807891E-01
          2   -1    0    0  501    0  0.00000000000E+00  0.00000000000E+00  0.17104254303E+04  0.17104254303E+04  0.25500000000E-02 0.  1.
         -2   -1    0    0    0  501 -0.00000000000E+00 -0.00000000000E+00 -0.61641198816E+02  0.61641198869E+02  0.25500000000E-02 0. -1.
    5000001    1    1    2    0    0 -0.22131006431E+03  0.12870198045E+03  0.87080718122E+03  0.92921929123E+03  0.19900000000E+03 0.  0.
   -5000001    1    1    2    0    0  0.22131006431E+03 -0.12870198045E+03  0.77797705030E+03  0.84284733797E+03  0.19900000000E+03 0.  0.
<mgrwt>
<rscale>  0 0.64940796E+03</rscale>
<asrwt>0</asrwt>
<pdfrwt beam="1">  1        2 0.24434649E+00 0.64940796E+03</pdfrwt>
<pdfrwt beam="2">  1       -2 0.88058854E-02 0.64940796E+03</pdfrwt>
<totfact> 0.97275495E+02</totfact>
</mgrwt>
</event>
<event>
 4    1  0.5080671E-005  0.5489885E+03  0.7818608E-02  0.1001728E+00
          2   -1    0    0  501    0  0.00000000000E+00  0.00000000000E+00  0.24924509809E+04  0.24924509809E+04  0.25500000000E-02 0.  1.
         -2   -1    0    0    0  501 -0.00000000000E+00 -0.00000000000E+00 -0.30230115154E+02  0.30230115262E+02  0.25500000000E-02 0. -1.
    5000001    1    1    2    0    0 -0.14843525645E+03  0.10127056222E+03  0.96092032428E+03  0.99762599292E+03  0.19900000000E+03 0.  0.
   -5000001    1    1    2    0    0  0.14843525645E+03 -0.10127056222E+03  0.15013005415E+04  0.15250551033E+04  0.19900000000E+03 0.  0.
<mgrwt>
<rscale>  0 0.54898845E+03</rscale>
<asrwt>0</asrwt>
<pdfrwt beam="1">  1        2 0.35606439E+00 0.54898845E+03</pdfrwt>
<pdfrwt beam="2">  1       -2 0.43185883E-02 0.54898845E+03</pdfrwt>
<totfact> 0.12059861E+03</totfact>
</mgrwt>
</event>
<event>
 4    1  0.5080671E-005  0.5740269E+03  0.7818608E-02  0.9960807E-01
         -2   -1    0    0    0  501 -0.00000000000E+00  0.00000000000E+00  0.38095603172E+02  0.38095603258E+02  0.25500000000E-02 0. -1.
          2   -1    0    0  501    0  0.00000000000E+00 -0.00000000000E+00 -0.21623679848E+04  0.21623679848E+04  0.25500000000E-02 0.  1.
    5000001    1    1    2    0    0 -0.20610448193E+03  0.15874849273E+02 -0.10877494992E+04  0.11249582398E+04  0.19900000000E+03 0.  0.
   -5000001    1    1    2    0    0  0.20610448193E+03 -0.15874849273E+02 -0.10365228824E+04  0.10755053482E+04  0.19900000000E+03 0.  0.
<mgrwt>
<rscale>  0 0.57402687E+03</rscale>
<asrwt>0</asrwt>
<pdfrwt beam="1">  1        2 0.30890964E+00 0.57402687E+03</pdfrwt>
<pdfrwt beam="2">  1       -2 0.54422304E-02 0.57402687E+03</pdfrwt>
<totfact> 0.12368561E+03</totfact>
</mgrwt>
</event>
<event>
 4    1  0.5080671E-005  0.6126649E+03  0.7818608E-02  0.9879473E-01
          2   -1    0    0  501    0  0.00000000000E+00  0.00000000000E+00  0.97280363602E+03  0.97280363603E+03  0.25500000000E-02 0.  1.
         -2   -1    0    0    0  501 -0.00000000000E+00 -0.00000000000E+00 -0.96462997821E+02  0.96462997855E+02  0.25500000000E-02 0. -1.
    5000001    1    1    2    0    0  0.12212520140E+03 -0.18237883282E+03  0.57405461876E+03  0.64600023901E+03  0.19900000000E+03 0.  0.
   -5000001    1    1    2    0    0 -0.12212520140E+03  0.18237883282E+03  0.30228601944E+03  0.42326639487E+03  0.19900000000E+03 0.  0.
<mgrwt>
<rscale>  0 0.61266485E+03</rscale>
<asrwt>0</asrwt>
<pdfrwt beam="1">  1        2 0.13897195E+00 0.61266485E+03</pdfrwt>
<pdfrwt beam="2">  1       -2 0.13780428E-01 0.61266485E+03</pdfrwt>
<totfact> 0.11854911E+03</totfact>
</mgrwt>
</event>
<event>
 4    1  0.5080671E-005  0.6501314E+03  0.7818608E-02  0.9806533E-01
         -2   -1    0    0    0  501 -0.00000000000E+00  0.00000000000E+00  0.18018494381E+03  0.18018494383E+03  0.25500000000E-02 0. -1.
          2   -1    0    0  501    0  0.00000000000E+00 -0.00000000000E+00 -0.58644029699E+03  0.58644029700E+03  0.25500000000E-02 0.  1.
    5000001    1    1    2    0    0 -0.70627425030E+02  0.24274866839E+03 -0.14843124677E+03  0.35432750979E+03  0.19900000000E+03 0.  0.
   -5000001    1    1    2    0    0  0.70627425030E+02 -0.24274866839E+03 -0.25782410641E+03  0.41229773104E+03  0.19900000000E+03 0.  0.
<mgrwt>
<rscale>  0 0.65013141E+03</rscale>
<asrwt>0</asrwt>
<pdfrwt beam="1">  1        2 0.83777184E-01 0.65013141E+03</pdfrwt>
<pdfrwt beam="2">  1       -2 0.25740707E-01 0.65013141E+03</pdfrwt>
<totfact> 0.76047939E+02</totfact>
</mgrwt>
</event>
<event>
 4    1  0.5080671E-005  0.6058187E+03  0.7818608E-02  0.9893407E-01
          2   -1    0    0  501    0  0.00000000000E+00  0.00000000000E+00  0.30612822218E+03  0.30612822219E+03  0.25500000000E-02 0.  1.
         -2   -1    0    0    0  501 -0.00000000000E+00 -0.00000000000E+00 -0.29972430986E+03  0.29972430988E+03  0.25500000000E-02 0. -1.
    5000001    1    1    2    0    0 -0.13138172376E+03  0.18298869882E+03 -0.34310789895E+02  0.30252975315E+03  0.19900000000E+03 0.  0.
   -5000001    1    1    2    0    0  0.13138172376E+03 -0.18298869882E+03  0.40714702210E+02  0.30332277892E+03  0.19900000000E+03 0.  0.
<mgrwt>
<rscale>  0 0.60581869E+03</rscale>
<asrwt>0</asrwt>
<pdfrwt beam="1">  1        2 0.43732603E-01 0.60581869E+03</pdfrwt>
<pdfrwt beam="2">  1       -2 0.42817758E-01 0.60581869E+03</pdfrwt>
<totfact> 0.60693188E+02</totfact>
</mgrwt>
</event>
<event>
 4    1  0.5080671E-005  0.4794108E+03  0.7818608E-02  0.1019297E+00
         -2   -1    0    0    0  501 -0.00000000000E+00  0.00000000000E+00  0.14658823566E+03  0.14658823568E+03  0.25500000000E-02 0. -1.
          2   -1    0    0  501    0  0.00000000000E+00 -0.00000000000E+00 -0.39197330023E+03  0.39197330024E+03  0.25500000000E-02 0.  1.
    5000001    1    1    2    0    0 -0.80487352930E+02  0.10034976507E+03 -0.16334259748E+03  0.28780217769E+03  0.19900000000E+03 0.  0.
   -5000001    1    1    2    0    0  0.80487352930E+02 -0.10034976507E+03 -0.82042467093E+02  0.25075935823E+03  0.19900000000E+03 0.  0.
<mgrwt>
<rscale>  0 0.47941078E+03</rscale>
<asrwt>0</asrwt>
<pdfrwt beam="1">  1        2 0.55996185E-01 0.47941078E+03</pdfrwt>
<pdfrwt beam="2">  1       -2 0.20941177E-01 0.47941078E+03</pdfrwt>
<totfact> 0.17320468E+03</totfact>
</mgrwt>
</event>
<event>
 4    1  0.5080671E-005  0.4425925E+03  0.7818608E-02  0.1029954E+00
         -2   -1    0    0    0  501 -0.00000000000E+00  0.00000000000E+00  0.49870996336E+02  0.49870996401E+02  0.25500000000E-02 0. -1.
          2   -1    0    0  501    0  0.00000000000E+00 -0.00000000000E+00 -0.98197433608E+03  0.98197433608E+03  0.25500000000E-02 0.  1.
    5000001    1    1    2    0    0  0.40010893759E+02  0.83894919968E+02 -0.52911973244E+03  0.57289433622E+03  0.19900000000E+03 0.  0.
   -5000001    1    1    2    0    0 -0.40010893759E+02 -0.83894919968E+02 -0.40298360730E+03  0.45895099626E+03  0.19900000000E+03 0.  0.
<mgrwt>
<rscale>  0 0.44259254E+03</rscale>
<asrwt>0</asrwt>
<pdfrwt beam="1">  1        2 0.14028204E+00 0.44259254E+03</pdfrwt>
<pdfrwt beam="2">  1       -2 0.71244287E-02 0.44259254E+03</pdfrwt>
<totfact> 0.34022822E+03</totfact>
</mgrwt>
</event>
<event>
 4    1  0.5080671E-005  0.8942877E+03  0.7818608E-02  0.9432750E-01
         -2   -1    0    0    0  501 -0.00000000000E+00  0.00000000000E+00  0.11448970746E+03  0.11448970749E+03  0.25500000000E-02 0. -1.
          2   -1    0    0  501    0  0.00000000000E+00 -0.00000000000E+00 -0.17463372084E+04  0.17463372084E+04  0.25500000000E-02 0.  1.
    5000001    1    1    2    0    0  0.32731326416E+03  0.11993279558E+03 -0.12258914980E+04  0.12899336468E+04  0.19900000000E+03 0.  0.
   -5000001    1    1    2    0    0 -0.32731326416E+03 -0.11993279558E+03 -0.40595600299E+03  0.57089326911E+03  0.19900000000E+03 0.  0.
<mgrwt>
<rscale>  0 0.89428773E+03</rscale>
<asrwt>0</asrwt>
<pdfrwt beam="1">  1        2 0.24947673E+00 0.89428773E+03</pdfrwt>
<pdfrwt beam="2">  1       -2 0.16355674E-01 0.89428773E+03</pdfrwt>
<totfact> 0.32997004E+02</totfact>
</mgrwt>
</event>
<event>
 4    1  0.5080671E-005  0.5056766E+03  0.7818608E-02  0.1012308E+00
          2   -1    0    0  501    0  0.00000000000E+00  0.00000000000E+00  0.13946994485E+03  0.13946994487E+03  0.25500000000E-02 0. -1.
         -2   -1    0    0    0  501 -0.00000000000E+00 -0.00000000000E+00 -0.45835834681E+03  0.45835834682E+03  0.25500000000E-02 0.  1.
    5000001    1    1    2    0    0 -0.45220063801E+02 -0.13998777336E+03 -0.98186860850E+02  0.26623878475E+03  0.19900000000E+03 0.  0.
   -5000001    1    1    2    0    0  0.45220063801E+02  0.13998777336E+03 -0.22070154112E+03  0.33158950694E+03  0.19900000000E+03 0.  0.
<mgrwt>
<rscale>  0 0.50567663E+03</rscale>
<asrwt>0</asrwt>
<pdfrwt beam="1">  1        2 0.19924278E-01 0.50567663E+03</pdfrwt>
<pdfrwt beam="2">  1       -2 0.65479763E-01 0.50567663E+03</pdfrwt>
<totfact> 0.61759241E+02</totfact>
</mgrwt>
</event>
<event>
 4    1  0.5080671E-005  0.8286579E+03  0.7818608E-02  0.9519438E-01
          2   -1    0    0  501    0  0.00000000000E+00  0.00000000000E+00  0.10391336895E+04  0.10391336895E+04  0.25500000000E-02 0.  1.
         -2   -1    0    0    0  501 -0.00000000000E+00 -0.00000000000E+00 -0.16520347158E+03  0.16520347159E+03  0.25500000000E-02 0. -1.
    5000001    1    1    2    0    0 -0.20484934582E+02  0.35539222906E+03  0.54321172781E+03  0.67926670038E+03  0.19900000000E+03 0.  0.
   -5000001    1    1    2    0    0  0.20484934582E+02 -0.35539222906E+03  0.33071849013E+03  0.52507046073E+03  0.19900000000E+03 0.  0.
<mgrwt>
<rscale>  0 0.82865793E+03</rscale>
<asrwt>0</asrwt>
<pdfrwt beam="1">  1        2 0.14844767E+00 0.82865793E+03</pdfrwt>
<pdfrwt beam="2">  1       -2 0.23600496E-01 0.82865793E+03</pdfrwt>
<totfact> 0.42343644E+02</totfact>
</mgrwt>
</event>
<event>
 4    1  0.5080671E-005  0.6213626E+03  0.7818608E-02  0.9862051E-01
         -2   -1    0    0    0  501 -0.00000000000E+00  0.00000000000E+00  0.83558591015E+02  0.83558591054E+02  0.25500000000E-02 0. -1.
          2   -1    0    0  501    0  0.00000000000E+00 -0.00000000000E+00 -0.11551518695E+04  0.11551518695E+04  0.25500000000E-02 0.  1.
    5000001    1    1    2    0    0 -0.92474629219E+02  0.15608067037E+03 -0.84469309387E+03  0.88657777749E+03  0.19900000000E+03 0.  0.
   -5000001    1    1    2    0    0  0.92474629219E+02 -0.15608067037E+03 -0.22690018464E+03  0.35213268309E+03  0.19900000000E+03 0.  0.
<mgrwt>
<rscale>  0 0.62136258E+03</rscale>
<asrwt>0</asrwt>
<pdfrwt beam="1">  1        2 0.16502169E+00 0.62136258E+03</pdfrwt>
<pdfrwt beam="2">  1       -2 0.11936942E-01 0.62136258E+03</pdfrwt>
<totfact> 0.11726353E+03</totfact>
</mgrwt>
</event>
<event>
 4    1  0.5080671E-005  0.7990191E+03  0.7818608E-02  0.9561438E-01
         -2   -1    0    0    0  501 -0.00000000000E+00  0.00000000000E+00  0.31112541664E+03  0.31112541665E+03  0.25500000000E-02 0. -1.
          2   -1    0    0  501    0  0.00000000000E+00 -0.00000000000E+00 -0.51300173035E+03  0.51300173035E+03  0.25500000000E-02 0.  1.
    5000001    1    1    2    0    0  0.16672140052E+03 -0.13233875341E+03  0.18095824568E+03  0.34301087114E+03  0.19900000000E+03 0.  0.
   -5000001    1    1    2    0    0 -0.16672140052E+03  0.13233875341E+03 -0.38283455938E+03  0.48111627586E+03  0.19900000000E+03 0.  0.
<mgrwt>
<rscale>  0 0.79901909E+03</rscale>
<asrwt>0</asrwt>
<pdfrwt beam="1">  1        2 0.73285961E-01 0.79901909E+03</pdfrwt>
<pdfrwt beam="2">  1       -2 0.44446488E-01 0.79901909E+03</pdfrwt>
<totfact> 0.31467469E+02</totfact>
</mgrwt>
</event>
<event>
 4    1  0.5080671E-005  0.6627506E+03  0.7818608E-02  0.9783143E-01
          2   -1    0    0  501    0  0.00000000000E+00  0.00000000000E+00  0.30961131344E+03  0.30961131345E+03  0.25500000000E-02 0.  1.
         -2   -1    0    0    0  501 -0.00000000000E+00 -0.00000000000E+00 -0.35466922038E+03  0.35466922039E+03  0.25500000000E-02 0. -1.
    5000001    1    1    2    0    0  0.46112046947E+02 -0.20295962963E+03  0.14183028253E+03  0.32099183974E+03  0.19900000000E+03 0.  0.
   -5000001    1    1    2    0    0 -0.46112046947E+02  0.20295962963E+03 -0.18688818947E+03  0.34328869410E+03  0.19900000000E+03 0.  0.
<mgrwt>
<rscale>  0 0.66275064E+03</rscale>
<asrwt>0</asrwt>
<pdfrwt beam="1">  1        2 0.44230188E-01 0.66275064E+03</pdfrwt>
<pdfrwt beam="2">  1       -2 0.50667032E-01 0.66275064E+03</pdfrwt>
<totfact> 0.42757527E+02</totfact>
</mgrwt>
</event>
<event>
 4    1  0.5080671E-005  0.6138783E+03  0.7818608E-02  0.9877024E-01
          2   -1    0    0  501    0  0.00000000000E+00  0.00000000000E+00  0.40095634562E+03  0.40095634563E+03  0.25500000000E-02 0.  1.
         -2   -1    0    0    0  501 -0.00000000000E+00 -0.00000000000E+00 -0.23496733280E+03  0.23496733281E+03  0.25500000000E-02 0. -1.
    5000001    1    1    2    0    0 -0.13140754227E+03 -0.18128873075E+03  0.15230850696E+03  0.33605420300E+03  0.19900000000E+03 0.  0.
   -5000001    1    1    2    0    0  0.13140754227E+03  0.18128873075E+03  0.13680505861E+02  0.29986947544E+03  0.19900000000E+03 0.  0.
<mgrwt>
<rscale>  0 0.61387830E+03</rscale>
<asrwt>0</asrwt>
<pdfrwt beam="1">  1        2 0.57279478E-01 0.61387830E+03</pdfrwt>
<pdfrwt beam="2">  1       -2 0.33566762E-01 0.61387830E+03</pdfrwt>
<totfact> 0.71893519E+02</totfact>
</mgrwt>
</event>
<event>
 4    1  0.5080671E-005  0.5640405E+03  0.7818608E-02  0.9982954E-01
          2   -1    0    0  501    0  0.00000000000E+00  0.00000000000E+00  0.69856548517E+03  0.69856548517E+03  0.25500000000E-02 0.  1.
         -2   -1    0    0    0  501 -0.00000000000E+00 -0.00000000000E+00 -0.11385535755E+03  0.11385535758E+03  0.25500000000E-02 0. -1.
    5000001    1    1    2    0    0 -0.74950214103E+02 -0.12700244097E+03  0.98107982329E+02  0.26640820333E+03  0.19900000000E+03 0.  0.
   -5000001    1    1    2    0    0  0.74950214103E+02  0.12700244097E+03  0.48660214529E+03  0.54601263942E+03  0.19900000000E+03 0.  0.
<mgrwt>
<rscale>  0 0.56404051E+03</rscale>
<asrwt>0</asrwt>
<pdfrwt beam="1">  1        2 0.99795069E-01 0.56404051E+03</pdfrwt>
<pdfrwt beam="2">  1       -2 0.16265051E-01 0.56404051E+03</pdfrwt>
<totfact> 0.13782346E+03</totfact>
</mgrwt>
</event>
<event>
 4    1  0.5080671E-005  0.4730984E+03  0.7818608E-02  0.1021049E+00
         -2   -1    0    0    0  501 -0.00000000000E+00  0.00000000000E+00  0.85054800617E+02  0.85054800655E+02  0.25500000000E-02 0.  1.
          2   -1    0    0  501    0  0.00000000000E+00 -0.00000000000E+00 -0.65787622348E+03  0.65787622348E+03  0.25500000000E-02 0. -1.
    5000001    1    1    2    0    0 -0.11894636732E+03  0.38546855480E+02 -0.32856033373E+03  0.40396409651E+03  0.19900000000E+03 0.  0.
   -5000001    1    1    2    0    0  0.11894636732E+03 -0.38546855480E+02 -0.24426108913E+03  0.33896692763E+03  0.19900000000E+03 0.  0.
<mgrwt>
<rscale>  0 0.47309843E+03</rscale>
<asrwt>0</asrwt>
<pdfrwt beam="1">  1        2 0.93982314E-01 0.47309843E+03</pdfrwt>
<pdfrwt beam="2">  1       -2 0.12150686E-01 0.47309843E+03</pdfrwt>
<totfact> 0.24088855E+03</totfact>
</mgrwt>
</event>
<event>
 4    1  0.5080671E-005  0.5706547E+03  0.7818608E-02  0.9968231E-01
          2   -1    0    0  501    0  0.00000000000E+00  0.00000000000E+00  0.26198884521E+03  0.26198884523E+03  0.25500000000E-02 0.  1.
         -2   -1    0    0    0  501 -0.00000000000E+00 -0.00000000000E+00 -0.31074493739E+03  0.31074493740E+03  0.25500000000E-02 0. -1.
    5000001    1    1    2    0    0 -0.43787912533E+02  0.35890738520E+02 -0.22157589341E+03  0.30315409108E+03  0.19900000000E+03 0.  0.
   -5000001    1    1    2    0    0  0.43787912533E+02 -0.35890738520E+02  0.17281980124E+03  0.26957969155E+03  0.19900000000E+03 0.  0.
<mgrwt>
<rscale>  0 0.57065474E+03</rscale>
<asrwt>0</asrwt>
<pdfrwt beam="1">  1        2 0.37426978E-01 0.57065474E+03</pdfrwt>
<pdfrwt beam="2">  1       -2 0.44392134E-01 0.57065474E+03</pdfrwt>
<totfact> 0.67163464E+02</totfact>
</mgrwt>
</event>
<event>
 4    1  0.5080671E-005  0.8561326E+03  0.7818608E-02  0.9482143E-01
         -2   -1    0    0    0  501 -0.00000000000E+00  0.00000000000E+00  0.12174413025E+04  0.12174413025E+04  0.25500000000E-02 0. -1.
          2   -1    0    0  501    0  0.00000000000E+00 -0.00000000000E+00 -0.15051302266E+03  0.15051302268E+03  0.25500000000E-02 0.  1.
    5000001    1    1    2    0    0  0.33465399562E+03 -0.18256968842E+02  0.25071976586E+03  0.46345227876E+03  0.19900000000E+03 0.  0.
   -5000001    1    1    2    0    0 -0.33465399562E+03  0.18256968842E+02  0.81620851399E+03  0.90450204643E+03  0.19900000000E+03 0.  0.
<mgrwt>
<rscale>  0 0.85613263E+03</rscale>
<asrwt>0</asrwt>
<pdfrwt beam="1">  1        2 0.21501860E-01 0.85613263E+03</pdfrwt>
<pdfrwt beam="2">  1       -2 0.17392019E+00 0.85613263E+03</pdfrwt>
<totfact> 0.52594907E+01</totfact>
</mgrwt>
</event>
<event>
 4    1  0.5080671E-005  0.6315377E+03  0.7818608E-02  0.9842053E-01
          2   -1    0    0  501    0  0.00000000000E+00  0.00000000000E+00  0.13049527431E+04  0.13049527431E+04  0.25500000000E-02 0.  1.
         -2   -1    0    0    0  501 -0.00000000000E+00 -0.00000000000E+00 -0.76408877437E+02  0.76408877480E+02  0.25500000000E-02 0. -1.
    5000001    1    1    2    0    0  0.22222872605E+03  0.98472327171E+02  0.54419065359E+03  0.62835250724E+03  0.19900000000E+03 0.  0.
   -5000001    1    1    2    0    0 -0.22222872605E+03 -0.98472327171E+02  0.68435321205E+03  0.75300911332E+03  0.19900000000E+03 0.  0.
<mgrwt>
<rscale>  0 0.63153772E+03</rscale>
<asrwt>0</asrwt>
<pdfrwt beam="1">  1        2 0.18642182E+00 0.63153772E+03</pdfrwt>
<pdfrwt beam="2">  1       -2 0.10915554E-01 0.63153772E+03</pdfrwt>
<totfact> 0.11205183E+03</totfact>
</mgrwt>
</event>
<event>
 4    1  0.5080671E-005  0.5489128E+03  0.7818608E-02  0.1001746E+00
          2   -1    0    0  501    0  0.00000000000E+00  0.00000000000E+00  0.60499142403E+03  0.60499142404E+03  0.25500000000E-02 0.  1.
         -2   -1    0    0    0  501 -0.00000000000E+00 -0.00000000000E+00 -0.12450806237E+03  0.12450806240E+03  0.25500000000E-02 0. -1.
    5000001    1    1    2    0    0 -0.87043212329E+02  0.14295152904E+03  0.12351998228E+03  0.28787123248E+03  0.19900000000E+03 0.  0.
   -5000001    1    1    2    0    0  0.87043212329E+02 -0.14295152904E+03  0.35696337939E+03  0.44162825396E+03  0.19900000000E+03 0.  0.
<mgrwt>
<rscale>  0 0.54891278E+03</rscale>
<asrwt>0</asrwt>
<pdfrwt beam="1">  1        2 0.86427347E-01 0.54891278E+03</pdfrwt>
<pdfrwt beam="2">  1       -2 0.17786866E-01 0.54891278E+03</pdfrwt>
<totfact> 0.14057512E+03</totfact>
</mgrwt>
</event>
<event>
 4    1  0.5080671E-005  0.6026691E+03  0.7818608E-02  0.9899884E-01
          2   -1    0    0  501    0  0.00000000000E+00  0.00000000000E+00  0.38190715221E+03  0.38190715222E+03  0.25500000000E-02 0.  1.
         -2   -1    0    0    0  501 -0.00000000000E+00 -0.00000000000E+00 -0.23776066405E+03  0.23776066406E+03  0.25500000000E-02 0. -1.
    5000001    1    1    2    0    0 -0.11975406516E+03 -0.14364553348E+03  0.20304915857E+03  0.34030139025E+03  0.19900000000E+03 0.  0.
   -5000001    1    1    2    0    0  0.11975406516E+03  0.14364553348E+03 -0.58902670403E+02  0.27936642603E+03  0.19900000000E+03 0.  0.
<mgrwt>
<rscale>  0 0.60266906E+03</rscale>
<asrwt>0</asrwt>
<pdfrwt beam="1">  1        2 0.54558165E-01 0.60266906E+03</pdfrwt>
<pdfrwt beam="2">  1       -2 0.33965809E-01 0.60266906E+03</pdfrwt>
<totfact> 0.74231918E+02</totfact>
</mgrwt>
</event>
<event>
 4    1  0.5080671E-005  0.7719202E+03  0.7818608E-02  0.9601575E-01
          2   -1    0    0  501    0  0.00000000000E+00  0.00000000000E+00  0.59640458273E+03  0.59640458273E+03  0.25500000000E-02 0.  1.
         -2   -1    0    0    0  501 -0.00000000000E+00 -0.00000000000E+00 -0.24977206649E+03  0.24977206650E+03  0.25500000000E-02 0. -1.
    5000001    1    1    2    0    0 -0.58807194750E+02 -0.32426461865E+03  0.20350402053E+03  0.43545460777E+03  0.19900000000E+03 0.  0.
   -5000001    1    1    2    0    0  0.58807194750E+02  0.32426461865E+03  0.14312849571E+03  0.41072204146E+03  0.19900000000E+03 0.  0.
<mgrwt>
<rscale>  0 0.77192022E+03</rscale>
<asrwt>0</asrwt>
<pdfrwt beam="1">  1        2 0.85200653E-01 0.77192022E+03</pdfrwt>
<pdfrwt beam="2">  1       -2 0.35681725E-01 0.77192022E+03</pdfrwt>
<totfact> 0.40529299E+02</totfact>
</mgrwt>
</event>
<event>
 4    1  0.5080671E-005  0.6836034E+03  0.7818608E-02  0.9745691E-01
          2   -1    0    0  501    0  0.00000000000E+00  0.00000000000E+00  0.80176417863E+03  0.80176417864E+03  0.25500000000E-02 0.  1.
         -2   -1    0    0    0  501 -0.00000000000E+00 -0.00000000000E+00 -0.14571415756E+03  0.14571415759E+03  0.25500000000E-02 0. -1.
    5000001    1    1    2    0    0  0.10279704383E+03 -0.24536882530E+03  0.43937486181E+03  0.55083968797E+03  0.19900000000E+03 0.  0.
   -5000001    1    1    2    0    0 -0.10279704383E+03  0.24536882530E+03  0.21667515926E+03  0.39663864825E+03  0.19900000000E+03 0.  0.
<mgrwt>
<rscale>  0 0.68360337E+03</rscale>
<asrwt>0</asrwt>
<pdfrwt beam="1">  1        2 0.11453774E+00 0.68360337E+03</pdfrwt>
<pdfrwt beam="2">  1       -2 0.20816307E-01 0.68360337E+03</pdfrwt>
<totfact> 0.75631572E+02</totfact>
</mgrwt>
</event>
<event>
 4    1  0.5080671E-005  0.1289063E+04  0.7818608E-02  0.9038283E-01
         -2   -1    0    0    0  501 -0.00000000000E+00  0.00000000000E+00  0.31863307234E+03  0.31863307235E+03  0.25500000000E-02 0. -1.
          2   -1    0    0  501    0  0.00000000000E+00 -0.00000000000E+00 -0.13037602277E+04  0.13037602277E+04  0.25500000000E-02 0.  1.
    5000001    1    1    2    0    0 -0.42329352153E+01  0.61301300514E+03 -0.48733405723E+03  0.80802125315E+03  0.19900000000E+03 0.  0.
   -5000001    1    1    2    0    0  0.42329352153E+01 -0.61301300514E+03 -0.49779309812E+03  0.81437204688E+03  0.19900000000E+03 0.  0.
<mgrwt>
<rscale>  0 0.12890634E+04</rscale>
<asrwt>0</asrwt>
<pdfrwt beam="1">  1        2 0.18625146E+00 0.12890634E+04</pdfrwt>
<pdfrwt beam="2">  1       -2 0.45519011E-01 0.12890634E+04</pdfrwt>
<totfact> 0.83881786E+01</totfact>
</mgrwt>
</event>
<event>
 4    1  0.5080671E-005  0.7224273E+03  0.7818608E-02  0.9679629E-01
         -2   -1    0    0    0  501 -0.00000000000E+00  0.00000000000E+00  0.20457435144E+03  0.20457435146E+03  0.25500000000E-02 0. -1.
          2   -1    0    0  501    0  0.00000000000E+00 -0.00000000000E+00 -0.63778922904E+03  0.63778922904E+03  0.25500000000E-02 0.  1.
    5000001    1    1    2    0    0  0.15405412144E+03  0.23172247374E+03 -0.81397859855E+02  0.35164554421E+03  0.19900000000E+03 0.  0.
   -5000001    1    1    2    0    0 -0.15405412144E+03 -0.23172247374E+03 -0.35181701774E+03  0.49071803630E+03  0.19900000000E+03 0.  0.
<mgrwt>
<rscale>  0 0.72242735E+03</rscale>
<asrwt>0</asrwt>
<pdfrwt beam="1">  1        2 0.91112747E-01 0.72242735E+03</pdfrwt>
<pdfrwt beam="2">  1       -2 0.29224907E-01 0.72242735E+03</pdfrwt>
<totfact> 0.54503287E+02</totfact>
</mgrwt>
</event>
<event>
 4    1  0.5080671E-005  0.5540704E+03  0.7818608E-02  0.1000556E+00
         -2   -1    0    0    0  501 -0.00000000000E+00  0.00000000000E+00  0.57604833549E+02  0.57604833606E+02  0.25500000000E-02 0. -1.
          2   -1    0    0  501    0  0.00000000000E+00 -0.00000000000E+00 -0.13323276126E+04  0.13323276126E+04  0.25500000000E-02 0.  1.
    5000001    1    1    2    0    0  0.27899048374E+02  0.17021236991E+03 -0.42160996557E+03  0.49709815011E+03  0.19900000000E+03 0.  0.
   -5000001    1    1    2    0    0 -0.27899048374E+02 -0.17021236991E+03 -0.85311281345E+03  0.89283429607E+03  0.19900000000E+03 0.  0.
<mgrwt>
<rscale>  0 0.55407043E+03</rscale>
<asrwt>0</asrwt>
<pdfrwt beam="1">  1        2 0.19033250E+00 0.55407043E+03</pdfrwt>
<pdfrwt beam="2">  1       -2 0.82292628E-02 0.55407043E+03</pdfrwt>
<totfact> 0.17122409E+03</totfact>
</mgrwt>
</event>
<event>
 4    1  0.5080671E-005  0.5342196E+03  0.7818608E-02  0.1005214E+00
          2   -1    0    0  501    0  0.00000000000E+00  0.00000000000E+00  0.92537887721E+02  0.92537887756E+02  0.25500000000E-02 0.  1.
         -2   -1    0    0    0  501 -0.00000000000E+00 -0.00000000000E+00 -0.77101016319E+03  0.77101016319E+03  0.25500000000E-02 0. -1.
    5000001    1    1    2    0    0 -0.15508791463E+03 -0.70313879510E+02 -0.42400972760E+03  0.49837892413E+03  0.19900000000E+03 0.  0.
   -5000001    1    1    2    0    0  0.15508791463E+03  0.70313879510E+02 -0.25446254786E+03  0.36516912682E+03  0.19900000000E+03 0.  0.
<mgrwt>
<rscale>  0 0.53421962E+03</rscale>
<asrwt>0</asrwt>
<pdfrwt beam="1">  1        2 0.13219699E-01 0.53421962E+03</pdfrwt>
<pdfrwt beam="2">  1       -2 0.11014431E+00 0.53421962E+03</pdfrwt>
<totfact> 0.31039256E+02</totfact>
</mgrwt>
</event>
<event>
 4    1  0.5080671E-005  0.4393088E+03  0.7818608E-02  0.1030959E+00
          2   -1    0    0  501    0  0.00000000000E+00  0.00000000000E+00  0.51886765152E+03  0.51886765153E+03  0.25500000000E-02 0.  1.
         -2   -1    0    0    0  501 -0.00000000000E+00 -0.00000000000E+00 -0.92987212630E+02  0.92987212665E+02  0.25500000000E-02 0. -1.
    5000001    1    1    2    0    0  0.23597763557E+02 -0.52263479081E+02  0.31489544397E+03  0.37689317628E+03  0.19900000000E+03 0.  0.
   -5000001    1    1    2    0    0 -0.23597763557E+02  0.52263479081E+02  0.11098499492E+03  0.23496168791E+03  0.19900000000E+03 0.  0.
<mgrwt>
<rscale>  0 0.43930881E+03</rscale>
<asrwt>0</asrwt>
<pdfrwt beam="1">  1        2 0.74123951E-01 0.43930881E+03</pdfrwt>
<pdfrwt beam="2">  1       -2 0.13283887E-01 0.43930881E+03</pdfrwt>
<totfact> 0.27378094E+03</totfact>
</mgrwt>
</event>
<event>
 4    1  0.5080671E-005  0.5725035E+03  0.7818608E-02  0.9964154E-01
         -2   -1    0    0    0  501 -0.00000000000E+00  0.00000000000E+00  0.16741456683E+03  0.16741456685E+03  0.25500000000E-02 0. -1.
          2   -1    0    0  501    0  0.00000000000E+00 -0.00000000000E+00 -0.48944410314E+03  0.48944410314E+03  0.25500000000E-02 0.  1.
    5000001    1    1    2    0    0 -0.18616878898E+03  0.58879120377E+02 -0.23549061662E+03  0.36494163824E+03  0.19900000000E+03 0.  0.
   -5000001    1    1    2    0    0  0.18616878898E+03 -0.58879120377E+02 -0.86538919694E+02  0.29191703175E+03  0.19900000000E+03 0.  0.
<mgrwt>
<rscale>  0 0.57250353E+03</rscale>
<asrwt>0</asrwt>
<pdfrwt beam="1">  1        2 0.69920585E-01 0.57250353E+03</pdfrwt>
<pdfrwt beam="2">  1       -2 0.23916367E-01 0.57250353E+03</pdfrwt>
<totfact> 0.10698285E+03</totfact>
</mgrwt>
</event>
<event>
 4    1  0.5080671E-005  0.5471967E+03  0.7818608E-02  0.1002145E+00
         -2   -1    0    0    0  501 -0.00000000000E+00  0.00000000000E+00  0.29310885809E+03  0.29310885811E+03  0.25500000000E-02 0. -1.
          2   -1    0    0  501    0  0.00000000000E+00 -0.00000000000E+00 -0.25538649829E+03  0.25538649831E+03  0.25500000000E-02 0.  1.
    5000001    1    1    2    0    0  0.11769044344E+03 -0.10832037948E+03  0.11743429294E+03  0.28102697067E+03  0.19900000000E+03 0.  0.
   -5000001    1    1    2    0    0 -0.11769044344E+03  0.10832037948E+03 -0.79711933138E+02  0.26746838574E+03  0.19900000000E+03 0.  0.
<mgrwt>
<rscale>  0 0.54719666E+03</rscale>
<asrwt>0</asrwt>
<pdfrwt beam="1">  1        2 0.36483785E-01 0.54719666E+03</pdfrwt>
<pdfrwt beam="2">  1       -2 0.41872694E-01 0.54719666E+03</pdfrwt>
<totfact> 0.77515142E+02</totfact>
</mgrwt>
</event>
<event>
 4    1  0.5080671E-005  0.5779068E+03  0.7818608E-02  0.9952333E-01
         -2   -1    0    0    0  501 -0.00000000000E+00  0.00000000000E+00  0.19523844805E+02  0.19523844971E+02  0.25500000000E-02 0.  1.
          2   -1    0    0  501    0  0.00000000000E+00 -0.00000000000E+00 -0.42765175165E+04  0.42765175165E+04  0.25500000000E-02 0. -1.
    5000001    1    1    2    0    0  0.43814483147E+02  0.20297518293E+03 -0.19216247108E+04  0.19430288631E+04  0.19900000000E+03 0.  0.
   -5000001    1    1    2    0    0 -0.43814483147E+02 -0.20297518293E+03 -0.23353689609E+04  0.23530124983E+04  0.19900000000E+03 0.  0.
<mgrwt>
<rscale>  0 0.57790679E+03</rscale>
<asrwt>0</asrwt>
<pdfrwt beam="1">  1        2 0.61093047E+00 0.57790679E+03</pdfrwt>
<pdfrwt beam="2">  1       -2 0.27891234E-02 0.57790679E+03</pdfrwt>
<totfact> 0.20646014E+02</totfact>
</mgrwt>
</event>
<event>
 4    1  0.5080671E-005  0.6356327E+03  0.7818608E-02  0.9834118E-01
         -2   -1    0    0    0  501 -0.00000000000E+00  0.00000000000E+00  0.14847846201E+03  0.14847846203E+03  0.25500000000E-02 0. -1.
          2   -1    0    0  501    0  0.00000000000E+00 -0.00000000000E+00 -0.68028197112E+03  0.68028197113E+03  0.25500000000E-02 0.  1.
    5000001    1    1    2    0    0  0.82792234920E+02  0.20927228477E+03 -0.40112890440E+03  0.50115351069E+03  0.19900000000E+03 0.  0.
   -5000001    1    1    2    0    0 -0.82792234920E+02 -0.20927228477E+03 -0.13067460471E+03  0.32760692247E+03  0.19900000000E+03 0.  0.
<mgrwt>
<rscale>  0 0.63563266E+03</rscale>
<asrwt>0</asrwt>
<pdfrwt beam="1">  1        2 0.97183137E-01 0.63563266E+03</pdfrwt>
<pdfrwt beam="2">  1       -2 0.21211209E-01 0.63563266E+03</pdfrwt>
<totfact> 0.89937888E+02</totfact>
</mgrwt>
</event>
<event>
 4    1  0.5080671E-005  0.6205582E+03  0.7818608E-02  0.9863649E-01
         -2   -1    0    0    0  501 -0.00000000000E+00  0.00000000000E+00  0.62244120799E+02  0.62244120851E+02  0.25500000000E-02 0. -1.
          2   -1    0    0  501    0  0.00000000000E+00 -0.00000000000E+00 -0.15467023336E+04  0.15467023336E+04  0.25500000000E-02 0.  1.
    5000001    1    1    2    0    0 -0.18458694912E+03 -0.12610632382E+03 -0.95440623381E+03  0.10002336756E+04  0.19900000000E+03 0.  0.
   -5000001    1    1    2    0    0  0.18458694912E+03  0.12610632382E+03 -0.53005197899E+03  0.60871277884E+03  0.19900000000E+03 0.  0.
<mgrwt>
<rscale>  0 0.62055822E+03</rscale>
<asrwt>0</asrwt>
<pdfrwt beam="1">  1        2 0.22095745E+00 0.62055822E+03</pdfrwt>
<pdfrwt beam="2">  1       -2 0.88920182E-02 0.62055822E+03</pdfrwt>
<totfact> 0.11636651E+03</totfact>
</mgrwt>
</event>
<event>
 4    1  0.5080671E-005  0.1304070E+04  0.7818608E-02  0.9026344E-01
         -2   -1    0    0    0  501 -0.00000000000E+00  0.00000000000E+00  0.35378021386E+03  0.35378021386E+03  0.25500000000E-02 0. -1.
          2   -1    0    0  501    0  0.00000000000E+00 -0.00000000000E+00 -0.12017341285E+04  0.12017341285E+04  0.25500000000E-02 0.  1.
    5000001    1    1    2    0    0 -0.58831346959E+03  0.11733515366E+03 -0.23287148017E+03  0.67358028702E+03  0.19900000000E+03 0.  0.
   -5000001    1    1    2    0    0  0.58831346959E+03 -0.11733515366E+03 -0.61508243451E+03  0.88193405537E+03  0.19900000000E+03 0.  0.
<mgrwt>
<rscale>  0 0.13040702E+04</rscale>
<asrwt>0</asrwt>
<pdfrwt beam="1">  1        2 0.17167630E+00 0.13040702E+04</pdfrwt>
<pdfrwt beam="2">  1       -2 0.50540031E-01 0.13040702E+04</pdfrwt>
<totfact> 0.77381911E+01</totfact>
</mgrwt>
</event>
<event>
 4    1  0.5080671E-005  0.7287133E+03  0.7818608E-02  0.9669351E-01
          2   -1    0    0  501    0  0.00000000000E+00  0.00000000000E+00  0.32865285273E+04  0.32865285273E+04  0.25500000000E-02 0.  1.
         -2   -1    0    0    0  501 -0.00000000000E+00 -0.00000000000E+00 -0.40393917856E+02  0.40393917936E+02  0.25500000000E-02 0. -1.
    5000001    1    1    2    0    0  0.13338474077E+03 -0.25301474651E+03  0.11367464119E+04  0.11889496860E+04  0.19900000000E+03 0.  0.
   -5000001    1    1    2    0    0 -0.13338474077E+03  0.25301474651E+03  0.21093881976E+04  0.21379727592E+04  0.19900000000E+03 0.  0.
<mgrwt>
<rscale>  0 0.72871329E+03</rscale>
<asrwt>0</asrwt>
<pdfrwt beam="1">  1        2 0.46950417E+00 0.72871329E+03</pdfrwt>
<pdfrwt beam="2">  1       -2 0.57705585E-02 0.72871329E+03</pdfrwt>
<totfact> 0.28256700E+02</totfact>
</mgrwt>
</event>
<event>
 4    1  0.5080671E-005  0.5720851E+03  0.7818608E-02  0.9965075E-01
          2   -1    0    0  501    0  0.00000000000E+00  0.00000000000E+00  0.41475877946E+03  0.41475877947E+03  0.25500000000E-02 0.  1.
         -2   -1    0    0    0  501 -0.00000000000E+00 -0.00000000000E+00 -0.19727209016E+03  0.19727209018E+03  0.25500000000E-02 0. -1.
    5000001    1    1    2    0    0  0.18943229330E+03  0.70344102293E+02  0.14857827094E+03  0.32017087480E+03  0.19900000000E+03 0.  0.
   -5000001    1    1    2    0    0 -0.18943229330E+03 -0.70344102293E+02  0.68908418355E+02  0.29185999485E+03  0.19900000000E+03 0.  0.
<mgrwt>
<rscale>  0 0.57208507E+03</rscale>
<asrwt>0</asrwt>
<pdfrwt beam="1">  1        2 0.59251254E-01 0.57208507E+03</pdfrwt>
<pdfrwt beam="2">  1       -2 0.28181727E-01 0.57208507E+03</pdfrwt>
<totfact> 0.95804462E+02</totfact>
</mgrwt>
</event>
<event>
 4    1  0.5080671E-005  0.5657508E+03  0.7818608E-02  0.9979126E-01
         -2   -1    0    0    0  501 -0.00000000000E+00  0.00000000000E+00  0.26890010468E+03  0.26890010469E+03  0.25500000000E-02 0. -1.
          2   -1    0    0  501    0  0.00000000000E+00 -0.00000000000E+00 -0.29757704797E+03  0.29757704798E+03  0.25500000000E-02 0.  1.
    5000001    1    1    2    0    0 -0.94942779304E+02 -0.17713168438E+03 -0.19611578917E+02  0.28350551843E+03  0.19900000000E+03 0.  0.
   -5000001    1    1    2    0    0  0.94942779304E+02  0.17713168438E+03 -0.90653643720E+01  0.28297163424E+03  0.19900000000E+03 0.  0.
<mgrwt>
<rscale>  0 0.56575083E+03</rscale>
<asrwt>0</asrwt>
<pdfrwt beam="1">  1        2 0.42511007E-01 0.56575083E+03</pdfrwt>
<pdfrwt beam="2">  1       -2 0.38414301E-01 0.56575083E+03</pdfrwt>
<totfact> 0.77374772E+02</totfact>
</mgrwt>
</event>
<event>
 4    1  0.5080671E-005  0.7537727E+03  0.7818608E-02  0.9629450E-01
         -2   -1    0    0    0  501 -0.00000000000E+00  0.00000000000E+00  0.16654669124E+03  0.16654669126E+03  0.25500000000E-02 0. -1.
          2   -1    0    0  501    0  0.00000000000E+00 -0.00000000000E+00 -0.85287396708E+03  0.85287396709E+03  0.25500000000E-02 0.  1.
    5000001    1    1    2    0    0 -0.36431414199E+02 -0.27169777096E+03 -0.56660203989E+03  0.66014074127E+03  0.19900000000E+03 0.  0.
   -5000001    1    1    2    0    0  0.36431414199E+02  0.27169777096E+03 -0.11972523596E+03  0.35927991707E+03  0.19900000000E+03 0.  0.
<mgrwt>
<rscale>  0 0.75377274E+03</rscale>
<asrwt>0</asrwt>
<pdfrwt beam="1">  1        2 0.12183914E+00 0.75377274E+03</pdfrwt>
<pdfrwt beam="2">  1       -2 0.23792385E-01 0.75377274E+03</pdfrwt>
<totfact> 0.54953296E+02</totfact>
</mgrwt>
</event>
<event>
 4    1  0.5080671E-005  0.6110746E+03  0.7818608E-02  0.9882693E-01
         -2   -1    0    0    0  501 -0.00000000000E+00  0.00000000000E+00  0.51607642400E+02  0.51607642463E+02  0.25500000000E-02 0. -1.
          2   -1    0    0  501    0  0.00000000000E+00 -0.00000000000E+00 -0.18088993342E+04  0.18088993342E+04  0.25500000000E-02 0.  1.
    5000001    1    1    2    0    0  0.81715885008E+01 -0.14296784170E+03 -0.32350495885E+03  0.40591013417E+03  0.19900000000E+03 0.  0.
   -5000001    1    1    2    0    0 -0.81715885008E+01  0.14296784170E+03 -0.14337867329E+04  0.14545968425E+04  0.19900000000E+03 0.  0.
<mgrwt>
<rscale>  0 0.61107456E+03</rscale>
<asrwt>0</asrwt>
<pdfrwt beam="1">  1        2 0.25841415E+00 0.61107456E+03</pdfrwt>
<pdfrwt beam="2">  1       -2 0.73725215E-02 0.61107456E+03</pdfrwt>
<totfact> 0.11535262E+03</totfact>
</mgrwt>
</event>
<event>
 4    1  0.5080671E-005  0.5622253E+03  0.7818608E-02  0.9987032E-01
         -2   -1    0    0    0  501 -0.00000000000E+00  0.00000000000E+00  0.30258129115E+02  0.30258129223E+02  0.25500000000E-02 0. -1.
          2   -1    0    0  501    0  0.00000000000E+00 -0.00000000000E+00 -0.26116724434E+04  0.26116724434E+04  0.25500000000E-02 0.  1.
    5000001    1    1    2    0    0  0.14225662837E+03 -0.11669485698E+03 -0.94004628428E+03  0.97833667751E+03  0.19900000000E+03 0.  0.
   -5000001    1    1    2    0    0 -0.14225662837E+03  0.11669485698E+03 -0.16413680300E+04  0.16635938951E+04  0.19900000000E+03 0.  0.
<mgrwt>
<rscale>  0 0.56222530E+03</rscale>
<asrwt>0</asrwt>
<pdfrwt beam="1">  1        2 0.37309592E+00 0.56222530E+03</pdfrwt>
<pdfrwt beam="2">  1       -2 0.43225915E-02 0.56222530E+03</pdfrwt>
<totfact> 0.10446927E+03</totfact>
</mgrwt>
</event>
<event>
 4    1  0.5080671E-005  0.9852116E+03  0.7818608E-02  0.9324915E-01
          2   -1    0    0  501    0  0.00000000000E+00  0.00000000000E+00  0.18813348460E+04  0.18813348460E+04  0.25500000000E-02 0.  1.
         -2   -1    0    0    0  501 -0.00000000000E+00 -0.00000000000E+00 -0.12898314788E+03  0.12898314791E+03  0.25500000000E-02 0. -1.
    5000001    1    1    2    0    0  0.41218754841E+03 -0.12483224369E+03  0.11467073338E+04  0.12409755733E+04  0.19900000000E+03 0.  0.
   -5000001    1    1    2    0    0 -0.41218754841E+03  0.12483224369E+03  0.60564436438E+03  0.76934242066E+03  0.19900000000E+03 0.  0.
<mgrwt>
<rscale>  0 0.98521163E+03</rscale>
<asrwt>0</asrwt>
<pdfrwt beam="1">  1        2 0.26876211E+00 0.98521163E+03</pdfrwt>
<pdfrwt beam="2">  1       -2 0.18426165E-01 0.98521163E+03</pdfrwt>
<totfact> 0.22782710E+02</totfact>
</mgrwt>
</event>
<event>
 4    1  0.5080671E-005  0.7263107E+03  0.7818608E-02  0.9673266E-01
          2   -1    0    0  501    0  0.00000000000E+00  0.00000000000E+00  0.11760229245E+04  0.11760229245E+04  0.25500000000E-02 0.  1.
         -2   -1    0    0    0  501 -0.00000000000E+00 -0.00000000000E+00 -0.11214220616E+03  0.11214220619E+03  0.25500000000E-02 0. -1.
    5000001    1    1    2    0    0 -0.26797054423E+03 -0.13226913276E+03  0.62871748974E+03  0.72400968085E+03  0.19900000000E+03 0.  0.
   -5000001    1    1    2    0    0  0.26797054423E+03  0.13226913276E+03  0.43516322857E+03  0.56415544982E+03  0.19900000000E+03 0.  0.
<mgrwt>
<rscale>  0 0.72631069E+03</rscale>
<asrwt>0</asrwt>
<pdfrwt beam="1">  1        2 0.16800328E+00 0.72631069E+03</pdfrwt>
<pdfrwt beam="2">  1       -2 0.16020315E-01 0.72631069E+03</pdfrwt>
<totfact> 0.69489839E+02</totfact>
</mgrwt>
</event>
<event>
 4    1  0.5080671E-005  0.5318896E+03  0.7818608E-02  0.1005775E+00
         -2   -1    0    0    0  501 -0.00000000000E+00  0.00000000000E+00  0.68201955791E+02  0.68201955839E+02  0.25500000000E-02 0. -1.
          2   -1    0    0  501    0  0.00000000000E+00 -0.00000000000E+00 -0.10370175827E+04  0.10370175827E+04  0.25500000000E-02 0.  1.
    5000001    1    1    2    0    0  0.38787437363E+02 -0.16679854988E+03 -0.57255158801E+03  0.62987502131E+03  0.19900000000E+03 0.  0.
   -5000001    1    1    2    0    0 -0.38787437363E+02  0.16679854988E+03 -0.39626403893E+03  0.47534451726E+03  0.19900000000E+03 0.  0.
<mgrwt>
<rscale>  0 0.53188957E+03</rscale>
<asrwt>0</asrwt>
<pdfrwt beam="1">  1        2 0.14814536E+00 0.53188957E+03</pdfrwt>
<pdfrwt beam="2">  1       -2 0.97431372E-02 0.53188957E+03</pdfrwt>
<totfact> 0.19160952E+03</totfact>
</mgrwt>
</event>
<event>
 4    1  0.5080671E-005  0.5477723E+03  0.7818608E-02  0.1002011E+00
         -2   -1    0    0    0  501 -0.00000000000E+00  0.00000000000E+00  0.50871402190E+02  0.50871402254E+02  0.25500000000E-02 0. -1.
          2   -1    0    0  501    0  0.00000000000E+00 -0.00000000000E+00 -0.14745737812E+04  0.14745737812E+04  0.25500000000E-02 0.  1.
    5000001    1    1    2    0    0  0.78541042776E+02  0.15417898753E+03 -0.50583539825E+03  0.57044746097E+03  0.19900000000E+03 0.  0.
   -5000001    1    1    2    0    0 -0.78541042776E+02 -0.15417898753E+03 -0.91786698078E+03  0.95499772251E+03  0.19900000000E+03 0.  0.
<mgrwt>
<rscale>  0 0.54777235E+03</rscale>
<asrwt>0</asrwt>
<pdfrwt beam="1">  1        2 0.21065337E+00 0.54777235E+03</pdfrwt>
<pdfrwt beam="2">  1       -2 0.72673441E-02 0.54777235E+03</pdfrwt>
<totfact> 0.17540575E+03</totfact>
</mgrwt>
</event>
<event>
 4    1  0.5080671E-005  0.5688433E+03  0.7818608E-02  0.9972242E-01
         -2   -1    0    0    0  501 -0.00000000000E+00  0.00000000000E+00  0.72518989044E+02  0.72518989088E+02  0.25500000000E-02 0. -1.
          2   -1    0    0  501    0  0.00000000000E+00 -0.00000000000E+00 -0.11155101970E+04  0.11155101970E+04  0.25500000000E-02 0.  1.
    5000001    1    1    2    0    0  0.88796085661E+02 -0.12253769764E+03 -0.80475071313E+03  0.84268911376E+03  0.19900000000E+03 0.  0.
   -5000001    1    1    2    0    0 -0.88796085661E+02  0.12253769764E+03 -0.23824049479E+03  0.34534007229E+03  0.19900000000E+03 0.  0.
<mgrwt>
<rscale>  0 0.56884329E+03</rscale>
<asrwt>0</asrwt>
<pdfrwt beam="1">  1        2 0.15935859E+00 0.56884329E+03</pdfrwt>
<pdfrwt beam="2">  1       -2 0.10359856E-01 0.56884329E+03</pdfrwt>
<totfact> 0.15597243E+03</totfact>
</mgrwt>
</event>
<event>
 4    1  0.5080671E-005  0.1154716E+04  0.7818608E-02  0.9153443E-01
         -2   -1    0    0    0  501 -0.00000000000E+00  0.00000000000E+00  0.58202958017E+03  0.58202958018E+03  0.25500000000E-02 0. -1.
          2   -1    0    0  501    0  0.00000000000E+00 -0.00000000000E+00 -0.57272437195E+03  0.57272437196E+03  0.25500000000E-02 0.  1.
    5000001    1    1    2    0    0 -0.35004058308E+03  0.13777342296E+03  0.39483395370E+03  0.58052112526E+03  0.19900000000E+03 0.  0.
   -5000001    1    1    2    0    0  0.35004058308E+03 -0.13777342296E+03 -0.38552874548E+03  0.57423282688E+03  0.19900000000E+03 0.  0.
<mgrwt>
<rscale>  0 0.11547165E+04</rscale>
<asrwt>0</asrwt>
<pdfrwt beam="1">  1        2 0.81817767E-01 0.11547165E+04</pdfrwt>
<pdfrwt beam="2">  1       -2 0.83147083E-01 0.11547165E+04</pdfrwt>
<totfact> 0.71967135E+01</totfact>
</mgrwt>
</event>
<event>
 4    1  0.5080671E-005  0.7399886E+03  0.7818608E-02  0.9651189E-01
         -2   -1    0    0    0  501 -0.00000000000E+00  0.00000000000E+00  0.95705724004E+02  0.95705724038E+02  0.25500000000E-02 0. -1.
          2   -1    0    0  501    0  0.00000000000E+00 -0.00000000000E+00 -0.14303824392E+04  0.14303824392E+04  0.25500000000E-02 0.  1.
    5000001    1    1    2    0    0 -0.30447011690E+03  0.37824998773E+02 -0.78330573054E+03  0.86446610698E+03  0.19900000000E+03 0.  0.
   -5000001    1    1    2    0    0  0.30447011690E+03 -0.37824998773E+02 -0.55137098468E+03  0.66162205629E+03  0.19900000000E+03 0.  0.
<mgrwt>
<rscale>  0 0.73998861E+03</rscale>
<asrwt>0</asrwt>
<pdfrwt beam="1">  1        2 0.20434034E+00 0.73998861E+03</pdfrwt>
<pdfrwt beam="2">  1       -2 0.13672247E-01 0.73998861E+03</pdfrwt>
<totfact> 0.65824576E+02</totfact>
</mgrwt>
</event>
<event>
 4    1  0.5080671E-005  0.5908338E+03  0.7818608E-02  0.9924608E-01
         -2   -1    0    0    0  501 -0.00000000000E+00  0.00000000000E+00  0.47494432038E+02  0.47494432106E+02  0.25500000000E-02 0. -1.
          2   -1    0    0  501    0  0.00000000000E+00 -0.00000000000E+00 -0.18375025922E+04  0.18375025922E+04  0.25500000000E-02 0.  1.
    5000001    1    1    2    0    0  0.11711744168E+03 -0.18225388892E+03 -0.98162608883E+03  0.10247554603E+04  0.19900000000E+03 0.  0.
   -5000001    1    1    2    0    0 -0.11711744168E+03  0.18225388892E+03 -0.80838207131E+03  0.86024156397E+03  0.19900000000E+03 0.  0.
<mgrwt>
<rscale>  0 0.59083379E+03</rscale>
<asrwt>0</asrwt>
<pdfrwt beam="1">  1        2 0.26250033E+00 0.59083379E+03</pdfrwt>
<pdfrwt beam="2">  1       -2 0.67849200E-02 0.59083379E+03</pdfrwt>
<totfact> 0.12736713E+03</totfact>
</mgrwt>
</event>
<event>
 4    1  0.5080671E-005  0.7166938E+03  0.7818608E-02  0.9689102E-01
          2   -1    0    0  501    0  0.00000000000E+00  0.00000000000E+00  0.19147372983E+04  0.19147372983E+04  0.25500000000E-02 0.  1.
         -2   -1    0    0    0  501 -0.00000000000E+00 -0.00000000000E+00 -0.67065328800E+02  0.67065328848E+02  0.25500000000E-02 0. -1.
    5000001    1    1    2    0    0  0.35763072936E+02 -0.27179239517E+03  0.12470380379E+04  0.12922286839E+04  0.19900000000E+03 0.  0.
   -5000001    1    1    2    0    0 -0.35763072936E+02  0.27179239517E+03  0.60063393163E+03  0.68957394331E+03  0.19900000000E+03 0.  0.
<mgrwt>
<rscale>  0 0.71669376E+03</rscale>
<asrwt>0</asrwt>
<pdfrwt beam="1">  1        2 0.27353393E+00 0.71669376E+03</pdfrwt>
<pdfrwt beam="2">  1       -2 0.95807602E-02 0.71669376E+03</pdfrwt>
<totfact> 0.66629324E+02</totfact>
</mgrwt>
</event>
<event>
 4    1  0.5080671E-005  0.4641258E+03  0.7818608E-02  0.1023591E+00
          2   -1    0    0  501    0  0.00000000000E+00  0.00000000000E+00  0.39175106028E+04  0.39175106028E+04  0.25500000000E-02 0.  1.
         -2   -1    0    0    0  501 -0.00000000000E+00 -0.00000000000E+00 -0.13746786562E+02  0.13746786798E+02  0.25500000000E-02 0. -1.
    5000001    1    1    2    0    0  0.75107973702E+02 -0.14378453398E+02  0.11753757777E+04  0.11945531242E+04  0.19900000000E+03 0.  0.
   -5000001    1    1    2    0    0 -0.75107973702E+02  0.14378453398E+02  0.27283880385E+04  0.27367042654E+04  0.19900000000E+03 0.  0.
<mgrwt>
<rscale>  0 0.46412577E+03</rscale>
<asrwt>0</asrwt>
<pdfrwt beam="1">  1        2 0.55964436E+00 0.46412577E+03</pdfrwt>
<pdfrwt beam="2">  1       -2 0.19638267E-02 0.46412577E+03</pdfrwt>
<totfact> 0.62640391E+02</totfact>
</mgrwt>
</event>
<event>
 4    1  0.5080671E-005  0.6176885E+03  0.7818608E-02  0.9869373E-01
          2   -1    0    0  501    0  0.00000000000E+00  0.00000000000E+00  0.13665059265E+03  0.13665059268E+03  0.25500000000E-02 0.  1.
         -2   -1    0    0    0  501 -0.00000000000E+00 -0.00000000000E+00 -0.69801945401E+03  0.69801945402E+03  0.25500000000E-02 0. -1.
    5000001    1    1    2    0    0  0.19015392691E+03  0.33657185722E+02 -0.46444085712E+03  0.54092294445E+03  0.19900000000E+03 0.  0.
   -5000001    1    1    2    0    0 -0.19015392691E+03 -0.33657185722E+02 -0.96928004241E+02  0.29374710224E+03  0.19900000000E+03 0.  0.
<mgrwt>
<rscale>  0 0.61768850E+03</rscale>
<asrwt>0</asrwt>
<pdfrwt beam="1">  1        2 0.19521514E-01 0.61768850E+03</pdfrwt>
<pdfrwt beam="2">  1       -2 0.99717063E-01 0.61768850E+03</pdfrwt>
<totfact> 0.24591985E+02</totfact>
</mgrwt>
</event>
<event>
 4    1  0.5080671E-005  0.5134635E+03  0.7818608E-02  0.1010323E+00
          2   -1    0    0  501    0  0.00000000000E+00  0.00000000000E+00  0.38576757241E+03  0.38576757241E+03  0.25500000000E-02 0.  1.
         -2   -1    0    0    0  501 -0.00000000000E+00 -0.00000000000E+00 -0.17085729542E+03  0.17085729544E+03  0.25500000000E-02 0. -1.
    5000001    1    1    2    0    0 -0.52173287359E+02  0.15350762137E+03  0.10219299898E+03  0.27628074629E+03  0.19900000000E+03 0.  0.
   -5000001    1    1    2    0    0  0.52173287359E+02 -0.15350762137E+03  0.11271727800E+03  0.28034412156E+03  0.19900000000E+03 0.  0.
<mgrwt>
<rscale>  0 0.51346355E+03</rscale>
<asrwt>0</asrwt>
<pdfrwt beam="1">  1        2 0.55109653E-01 0.51346355E+03</pdfrwt>
<pdfrwt beam="2">  1       -2 0.24408185E-01 0.51346355E+03</pdfrwt>
<totfact> 0.13459056E+03</totfact>
</mgrwt>
</event>
<event>
 4    1  0.5080671E-005  0.5220323E+03  0.7818608E-02  0.1008183E+00
         -2   -1    0    0    0  501 -0.00000000000E+00  0.00000000000E+00  0.12409588858E+03  0.12409588861E+03  0.25500000000E-02 0. -1.
          2   -1    0    0  501    0  0.00000000000E+00 -0.00000000000E+00 -0.54900635205E+03  0.54900635205E+03  0.25500000000E-02 0.  1.
    5000001    1    1    2    0    0  0.15451820210E+03  0.63823210627E+02 -0.24348515705E+03  0.35613943716E+03  0.19900000000E+03 0.  0.
   -5000001    1    1    2    0    0 -0.15451820210E+03 -0.63823210627E+02 -0.18142530642E+03  0.31696280350E+03  0.19900000000E+03 0.  0.
<mgrwt>
<rscale>  0 0.52203230E+03</rscale>
<asrwt>0</asrwt>
<pdfrwt beam="1">  1        2 0.78429478E-01 0.52203230E+03</pdfrwt>
<pdfrwt beam="2">  1       -2 0.17727984E-01 0.52203230E+03</pdfrwt>
<totfact> 0.15827391E+03</totfact>
</mgrwt>
</event>
<event>
 4    1  0.5080671E-005  0.7499713E+03  0.7818608E-02  0.9635395E-01
         -2   -1    0    0    0  501 -0.00000000000E+00  0.00000000000E+00  0.12410462377E+04  0.12410462377E+04  0.25500000000E-02 0. -1.
          2   -1    0    0  501    0  0.00000000000E+00 -0.00000000000E+00 -0.11330299373E+03  0.11330299376E+03  0.25500000000E-02 0.  1.
    5000001    1    1    2    0    0 -0.44879463605E+02  0.28962849770E+03  0.78588633494E+03  0.86204243769E+03  0.19900000000E+03 0.  0.
   -5000001    1    1    2    0    0  0.44879463605E+02 -0.28962849770E+03  0.34185690901E+03  0.49230679375E+03  0.19900000000E+03 0.  0.
<mgrwt>
<rscale>  0 0.74997134E+03</rscale>
<asrwt>0</asrwt>
<pdfrwt beam="1">  1        2 0.16186142E-01 0.74997134E+03</pdfrwt>
<pdfrwt beam="2">  1       -2 0.17729232E+00 0.74997134E+03</pdfrwt>
<totfact> 0.70220400E+01</totfact>
</mgrwt>
</event>
<event>
 4    1  0.5080671E-005  0.6421022E+03  0.7818608E-02  0.9821713E-01
          2   -1    0    0  501    0  0.00000000000E+00  0.00000000000E+00  0.12692544627E+04  0.12692544627E+04  0.25500000000E-02 0.  1.
         -2   -1    0    0    0  501 -0.00000000000E+00 -0.00000000000E+00 -0.81208153084E+02  0.81208153124E+02  0.25500000000E-02 0. -1.
    5000001    1    1    2    0    0  0.25139024449E+03 -0.16605276143E+02  0.59372187179E+03  0.67496625935E+03  0.19900000000E+03 0.  0.
   -5000001    1    1    2    0    0 -0.25139024449E+03  0.16605276143E+02  0.59432443785E+03  0.67549635650E+03  0.19900000000E+03 0.  0.
<mgrwt>
<rscale>  0 0.64210221E+03</rscale>
<asrwt>0</asrwt>
<pdfrwt beam="1">  1        2 0.18132207E+00 0.64210221E+03</pdfrwt>
<pdfrwt beam="2">  1       -2 0.11601165E-01 0.64210221E+03</pdfrwt>
<totfact> 0.10603112E+03</totfact>
</mgrwt>
</event>
<event>
 4    1  0.5080671E-005  0.1025003E+04  0.7818608E-02  0.9281539E-01
          2   -1    0    0  501    0  0.00000000000E+00  0.00000000000E+00  0.77717313723E+03  0.77717313723E+03  0.25500000000E-02 0.  1.
         -2   -1    0    0    0  501 -0.00000000000E+00 -0.00000000000E+00 -0.33796564961E+03  0.33796564962E+03  0.25500000000E-02 0. -1.
    5000001    1    1    2    0    0 -0.46554344820E+03 -0.20786655389E+02  0.13607995563E+03  0.52467279473E+03  0.19900000000E+03 0.  0.
   -5000001    1    1    2    0    0  0.46554344820E+03  0.20786655389E+02  0.30312753199E+03  0.59046599212E+03  0.19900000000E+03 0.  0.
<mgrwt>
<rscale>  0 0.10250031E+04</rscale>
<asrwt>0</asrwt>
<pdfrwt beam="1">  1        2 0.11102473E+00 0.10250031E+04</pdfrwt>
<pdfrwt beam="2">  1       -2 0.48280807E-01 0.10250031E+04</pdfrwt>
<totfact> 0.15979561E+02</totfact>
</mgrwt>
</event>
<event>
 4    1  0.5080671E-005  0.7254191E+03  0.7818608E-02  0.9674723E-01
          2   -1    0    0  501    0  0.00000000000E+00  0.00000000000E+00  0.81771279293E+03  0.81771279293E+03  0.25500000000E-02 0.  1.
         -2   -1    0    0    0  501 -0.00000000000E+00 -0.00000000000E+00 -0.16088560211E+03  0.16088560213E+03  0.25500000000E-02 0. -1.
    5000001    1    1    2    0    0  0.11046023324E+03  0.22565488163E+03  0.55748992278E+03  0.64305334362E+03  0.19900000000E+03 0.  0.
   -5000001    1    1    2    0    0 -0.11046023324E+03 -0.22565488163E+03  0.99337268033E+02  0.33554505145E+03  0.19900000000E+03 0.  0.
<mgrwt>
<rscale>  0 0.72541909E+03</rscale>
<asrwt>0</asrwt>
<pdfrwt beam="1">  1        2 0.11681611E+00 0.72541909E+03</pdfrwt>
<pdfrwt beam="2">  1       -2 0.22983658E-01 0.72541909E+03</pdfrwt>
<totfact> 0.61817688E+02</totfact>
</mgrwt>
</event>
<event>
 4    1  0.5080671E-005  0.6771417E+03  0.7818608E-02  0.9757142E-01
          2   -1    0    0  501    0  0.00000000000E+00  0.00000000000E+00  0.17152449014E+03  0.17152449016E+03  0.25500000000E-02 0.  1.
         -2   -1    0    0    0  501 -0.00000000000E+00 -0.00000000000E+00 -0.66830236189E+03  0.66830236190E+03  0.25500000000E-02 0. -1.
    5000001    1    1    2    0    0  0.11577310878E+03 -0.20545582857E+03 -0.75580681988E+02  0.31769316911E+03  0.19900000000E+03 0.  0.
   -5000001    1    1    2    0    0 -0.11577310878E+03  0.20545582857E+03 -0.42119718976E+03  0.52213368295E+03  0.19900000000E+03 0.  0.
<mgrwt>
<rscale>  0 0.67714170E+03</rscale>
<asrwt>0</asrwt>
<pdfrwt beam="1">  1        2 0.24503499E-01 0.67714170E+03</pdfrwt>
<pdfrwt beam="2">  1       -2 0.95471765E-01 0.67714170E+03</pdfrwt>
<totfact> 0.20876328E+02</totfact>
</mgrwt>
</event>
<event>
 4    1  0.5080671E-005  0.1051545E+04  0.7818608E-02  0.9253750E-01
         -2   -1    0    0    0  501 -0.00000000000E+00  0.00000000000E+00  0.27938405317E+03  0.27938405318E+03  0.25500000000E-02 0. -1.
          2   -1    0    0  501    0  0.00000000000E+00 -0.00000000000E+00 -0.98945086877E+03  0.98945086877E+03  0.25500000000E-02 0.  1.
    5000001    1    1    2    0    0 -0.29676583227E+03  0.33238379460E+03 -0.59113668255E+03  0.76654583919E+03  0.19900000000E+03 0.  0.
   -5000001    1    1    2    0    0  0.29676583227E+03 -0.33238379460E+03 -0.11893013305E+03  0.50228908277E+03  0.19900000000E+03 0.  0.
<mgrwt>
<rscale>  0 0.10515451E+04</rscale>
<asrwt>0</asrwt>
<pdfrwt beam="1">  1        2 0.14135012E+00 0.10515451E+04</pdfrwt>
<pdfrwt beam="2">  1       -2 0.39912008E-01 0.10515451E+04</pdfrwt>
<totfact> 0.16837904E+02</totfact>
</mgrwt>
</event>
<event>
 4    1  0.5080671E-005  0.5534287E+03  0.7818608E-02  0.1000703E+00
          2   -1    0    0  501    0  0.00000000000E+00  0.00000000000E+00  0.22029056431E+04  0.22029056431E+04  0.25500000000E-02 0.  1.
         -2   -1    0    0    0  501 -0.00000000000E+00 -0.00000000000E+00 -0.34759011222E+02  0.34759011315E+02  0.25500000000E-02 0. -1.
    5000001    1    1    2    0    0  0.11162443800E+03 -0.13978831714E+03  0.13690893583E+04  0.13949937132E+04  0.19900000000E+03 0.  0.
   -5000001    1    1    2    0    0 -0.11162443800E+03  0.13978831714E+03  0.79905727359E+03  0.84267094126E+03  0.19900000000E+03 0.  0.
<mgrwt>
<rscale>  0 0.55342867E+03</rscale>
<asrwt>0</asrwt>
<pdfrwt beam="1">  1        2 0.31470075E+00 0.55342867E+03</pdfrwt>
<pdfrwt beam="2">  1       -2 0.49655739E-02 0.55342867E+03</pdfrwt>
<totfact> 0.13622718E+03</totfact>
</mgrwt>
</event>
<event>
 4    1  0.5080671E-005  0.4808710E+03  0.7818608E-02  0.1018896E+00
         -2   -1    0    0    0  501 -0.00000000000E+00  0.00000000000E+00  0.23724885424E+02  0.23724885561E+02  0.25500000000E-02 0. -1.
          2   -1    0    0  501    0  0.00000000000E+00 -0.00000000000E+00 -0.24366494373E+04  0.24366494373E+04  0.25500000000E-02 0.  1.
    5000001    1    1    2    0    0 -0.28383520676E+02  0.12783614898E+03 -0.13730844444E+04  0.13935959231E+04  0.19900000000E+03 0.  0.
   -5000001    1    1    2    0    0  0.28383520676E+02 -0.12783614898E+03 -0.10398401074E+04  0.10667783998E+04  0.19900000000E+03 0.  0.
<mgrwt>
<rscale>  0 0.48087100E+03</rscale>
<asrwt>0</asrwt>
<pdfrwt beam="1">  1        2 0.34809262E+00 0.48087100E+03</pdfrwt>
<pdfrwt beam="2">  1       -2 0.33892709E-02 0.48087100E+03</pdfrwt>
<totfact> 0.18727634E+03</totfact>
</mgrwt>
</event>
<event>
 4    1  0.5080671E-005  0.6675632E+03  0.7818608E-02  0.9774370E-01
         -2   -1    0    0    0  501 -0.00000000000E+00  0.00000000000E+00  0.46958499934E+02  0.46958500003E+02  0.25500000000E-02 0. -1.
          2   -1    0    0  501    0  0.00000000000E+00 -0.00000000000E+00 -0.23725239591E+04  0.23725239591E+04  0.25500000000E-02 0.  1.
    5000001    1    1    2    0    0  0.38192136643E+02 -0.26517200404E+03 -0.11415453911E+04  0.11893282604E+04  0.19900000000E+03 0.  0.
   -5000001    1    1    2    0    0 -0.38192136643E+02  0.26517200404E+03 -0.11840200681E+04  0.12301541987E+04  0.19900000000E+03 0.  0.
<mgrwt>
<rscale>  0 0.66756323E+03</rscale>
<asrwt>0</asrwt>
<pdfrwt beam="1">  1        2 0.33893192E+00 0.66756323E+03</pdfrwt>
<pdfrwt beam="2">  1       -2 0.67083586E-02 0.66756323E+03</pdfrwt>
<totfact> 0.69328163E+02</totfact>
</mgrwt>
</event>
<event>
 4    1  0.5080671E-005  0.7169537E+03  0.7818608E-02  0.9688670E-01
          2   -1    0    0  501    0  0.00000000000E+00  0.00000000000E+00  0.38011963818E+04  0.38011963818E+04  0.25500000000E-02 0.  1.
         -2   -1    0    0    0  501 -0.00000000000E+00 -0.00000000000E+00 -0.33806637860E+02  0.33806637956E+02  0.25500000000E-02 0. -1.
    5000001    1    1    2    0    0 -0.27421153004E+03  0.73807127217E+02  0.23699919203E+04  0.23952248658E+04  0.19900000000E+03 0.  0.
   -5000001    1    1    2    0    0  0.27421153004E+03 -0.73807127217E+02  0.13973978236E+04  0.14397781540E+04  0.19900000000E+03 0.  0.
<mgrwt>
<rscale>  0 0.71695375E+03</rscale>
<asrwt>0</asrwt>
<pdfrwt beam="1">  1        2 0.54302801E+00 0.71695375E+03</pdfrwt>
<pdfrwt beam="2">  1       -2 0.48295201E-02 0.71695375E+03</pdfrwt>
<totfact> 0.18277394E+02</totfact>
</mgrwt>
</event>
<event>
 4    1  0.5080671E-005  0.7037324E+03  0.7818608E-02  0.9710871E-01
         -2   -1    0    0    0  501 -0.00000000000E+00  0.00000000000E+00  0.37826340935E+03  0.37826340935E+03  0.25500000000E-02 0. -1.
          2   -1    0    0  501    0  0.00000000000E+00 -0.00000000000E+00 -0.32731111097E+03  0.32731111098E+03  0.25500000000E-02 0.  1.
    5000001    1    1    2    0    0  0.80074205882E+02  0.15065253213E+03 -0.20987380579E+03  0.33579171854E+03  0.19900000000E+03 0.  0.
   -5000001    1    1    2    0    0 -0.80074205882E+02 -0.15065253213E+03  0.26082610417E+03  0.36978280179E+03  0.19900000000E+03 0.  0.
<mgrwt>
<rscale>  0 0.70373238E+03</rscale>
<asrwt>0</asrwt>
<pdfrwt beam="1">  1        2 0.46758730E-01 0.70373238E+03</pdfrwt>
<pdfrwt beam="2">  1       -2 0.54037630E-01 0.70373238E+03</pdfrwt>
<totfact> 0.35198231E+02</totfact>
</mgrwt>
</event>
<event>
 4    1  0.5080671E-005  0.6350733E+03  0.7818608E-02  0.9835198E-01
          2   -1    0    0  501    0  0.00000000000E+00  0.00000000000E+00  0.59195728734E+03  0.59195728735E+03  0.25500000000E-02 0.  1.
         -2   -1    0    0    0  501 -0.00000000000E+00 -0.00000000000E+00 -0.17033243751E+03  0.17033243753E+03  0.25500000000E-02 0. -1.
    5000001    1    1    2    0    0  0.22102659466E+03 -0.10730762106E+03  0.24602997035E+03  0.40062379784E+03  0.19900000000E+03 0.  0.
   -5000001    1    1    2    0    0 -0.22102659466E+03  0.10730762106E+03  0.17559487948E+03  0.36166592704E+03  0.19900000000E+03 0.  0.
<mgrwt>
<rscale>  0 0.63507331E+03</rscale>
<asrwt>0</asrwt>
<pdfrwt beam="1">  1        2 0.84565327E-01 0.63507331E+03</pdfrwt>
<pdfrwt beam="2">  1       -2 0.24333205E-01 0.63507331E+03</pdfrwt>
<totfact> 0.83243306E+02</totfact>
</mgrwt>
</event>
<event>
 4    1  0.5080671E-005  0.5287274E+03  0.7818608E-02  0.1006541E+00
         -2   -1    0    0    0  501 -0.00000000000E+00  0.00000000000E+00  0.23472150887E+02  0.23472151026E+02  0.25500000000E-02 0. -1.
          2   -1    0    0  501    0  0.00000000000E+00 -0.00000000000E+00 -0.29774929445E+04  0.29774929445E+04  0.25500000000E-02 0.  1.
    5000001    1    1    2    0    0 -0.11127924169E+03 -0.12835206769E+03 -0.16916317850E+04  0.17117465989E+04  0.19900000000E+03 0.  0.
   -5000001    1    1    2    0    0  0.11127924169E+03  0.12835206769E+03 -0.12623890086E+04  0.12892184966E+04  0.19900000000E+03 0.  0.
<mgrwt>
<rscale>  0 0.52872739E+03</rscale>
<asrwt>0</asrwt>
<pdfrwt beam="1">  1        2 0.42535589E+00 0.52872739E+03</pdfrwt>
<pdfrwt beam="2">  1       -2 0.33531663E-02 0.52872739E+03</pdfrwt>
<totfact> 0.99041901E+02</totfact>
</mgrwt>
</event>
<event>
 4    1  0.5080671E-005  0.8532144E+03  0.7818608E-02  0.9486033E-01
          2   -1    0    0  501    0  0.00000000000E+00  0.00000000000E+00  0.16287016872E+04  0.16287016872E+04  0.25500000000E-02 0.  1.
         -2   -1    0    0    0  501 -0.00000000000E+00 -0.00000000000E+00 -0.11174158553E+03  0.11174158555E+03  0.25500000000E-02 0. -1.
    5000001    1    1    2    0    0  0.16192916216E+03  0.32421266208E+03  0.54397567578E+03  0.68326088696E+03  0.19900000000E+03 0.  0.
   -5000001    1    1    2    0    0 -0.16192916216E+03 -0.32421266208E+03  0.97298442589E+03  0.10571823858E+04  0.19900000000E+03 0.  0.
<mgrwt>
<rscale>  0 0.85321441E+03</rscale>
<asrwt>0</asrwt>
<pdfrwt beam="1">  1        2 0.23267168E+00 0.85321441E+03</pdfrwt>
<pdfrwt beam="2">  1       -2 0.15963083E-01 0.85321441E+03</pdfrwt>
<totfact> 0.39646493E+02</totfact>
</mgrwt>
</event>
<event>
 4    1  0.5080671E-005  0.4291264E+03  0.7818608E-02  0.1034136E+00
          2   -1    0    0  501    0  0.00000000000E+00  0.00000000000E+00  0.11522700680E+04  0.11522700680E+04  0.25500000000E-02 0.  1.
         -2   -1    0    0    0  501 -0.00000000000E+00 -0.00000000000E+00 -0.39953625142E+02  0.39953625223E+02  0.25500000000E-02 0. -1.
    5000001    1    1    2    0    0 -0.64629502379E+02 -0.45971462576E+02  0.58973015852E+03  0.62743366806E+03  0.19900000000E+03 0.  0.
   -5000001    1    1    2    0    0  0.64629502379E+02  0.45971462576E+02  0.52258628436E+03  0.56479002519E+03  0.19900000000E+03 0.  0.
<mgrwt>
<rscale>  0 0.42912640E+03</rscale>
<asrwt>0</asrwt>
<pdfrwt beam="1">  1        2 0.16461002E+00 0.42912640E+03</pdfrwt>
<pdfrwt beam="2">  1       -2 0.57076604E-02 0.42912640E+03</pdfrwt>
<totfact> 0.38234834E+03</totfact>
</mgrwt>
</event>
<event>
 4    1  0.5080671E-005  0.5515914E+03  0.7818608E-02  0.1001126E+00
          2   -1    0    0  501    0  0.00000000000E+00  0.00000000000E+00  0.20947805163E+04  0.20947805163E+04  0.25500000000E-02 0.  1.
         -2   -1    0    0    0  501 -0.00000000000E+00 -0.00000000000E+00 -0.36310849839E+02  0.36310849928E+02  0.25500000000E-02 0. -1.
    5000001    1    1    2    0    0 -0.18529183469E+03 -0.81113288568E+01  0.12047346449E+04  0.12350649466E+04  0.19900000000E+03 0.  0.
   -5000001    1    1    2    0    0  0.18529183469E+03  0.81113288568E+01  0.85373502152E+03  0.89602641961E+03  0.19900000000E+03 0.  0.
<mgrwt>
<rscale>  0 0.55159137E+03</rscale>
<asrwt>0</asrwt>
<pdfrwt beam="1">  1        2 0.29925434E+00 0.55159137E+03</pdfrwt>
<pdfrwt beam="2">  1       -2 0.51872646E-02 0.55159137E+03</pdfrwt>
<totfact> 0.14426088E+03</totfact>
</mgrwt>
</event>
<event>
 4    1  0.5080671E-005  0.5006843E+03  0.7818608E-02  0.1013600E+00
         -2   -1    0    0    0  501 -0.00000000000E+00  0.00000000000E+00  0.35070000493E+02  0.35070000586E+02  0.25500000000E-02 0. -1.
          2   -1    0    0  501    0  0.00000000000E+00 -0.00000000000E+00 -0.17870317180E+04  0.17870317180E+04  0.25500000000E-02 0.  1.
    5000001    1    1    2    0    0  0.42013582910E+02  0.13773040827E+03 -0.10518497180E+04  0.10801498210E+04  0.19900000000E+03 0.  0.
   -5000001    1    1    2    0    0 -0.42013582910E+02 -0.13773040827E+03 -0.70011199954E+03  0.74195189764E+03  0.19900000000E+03 0.  0.
<mgrwt>
<rscale>  0 0.50068434E+03</rscale>
<asrwt>0</asrwt>
<pdfrwt beam="1">  1        2 0.25529019E+00 0.50068434E+03</pdfrwt>
<pdfrwt beam="2">  1       -2 0.50100012E-02 0.50068434E+03</pdfrwt>
<totfact> 0.21753877E+03</totfact>
</mgrwt>
</event>
<event>
 4    1  0.5080671E-005  0.5366236E+03  0.7818608E-02  0.1004638E+00
         -2   -1    0    0    0  501 -0.00000000000E+00  0.00000000000E+00  0.21399040536E+02  0.21399040688E+02  0.25500000000E-02 0. -1.
          2   -1    0    0  501    0  0.00000000000E+00 -0.00000000000E+00 -0.33642271814E+04  0.33642271814E+04  0.25500000000E-02 0.  1.
    5000001    1    1    2    0    0  0.15005525472E+03  0.84959235874E+02 -0.13462899929E+04  0.13717989635E+04  0.19900000000E+03 0.  0.
   -5000001    1    1    2    0    0 -0.15005525472E+03 -0.84959235874E+02 -0.19965381480E+04  0.20138272586E+04  0.19900000000E+03 0.  0.
<mgrwt>
<rscale>  0 0.53662364E+03</rscale>
<asrwt>0</asrwt>
<pdfrwt beam="1">  1        2 0.48060355E+00 0.53662364E+03</pdfrwt>
<pdfrwt beam="2">  1       -2 0.30570079E-02 0.53662364E+03</pdfrwt>
<totfact> 0.69338572E+02</totfact>
</mgrwt>
</event>
<event>
 4    1  0.5080671E-005  0.1125497E+04  0.7818608E-02  0.9180691E-01
          2   -1    0    0  501    0  0.00000000000E+00  0.00000000000E+00  0.70113417752E+03  0.70113417752E+03  0.25500000000E-02 0.  1.
         -2   -1    0    0    0  501 -0.00000000000E+00 -0.00000000000E+00 -0.45167638024E+03  0.45167638025E+03  0.25500000000E-02 0. -1.
    5000001    1    1    2    0    0  0.34160251847E+03  0.18184704018E+03  0.49021345742E+03  0.65549283786E+03  0.19900000000E+03 0.  0.
   -5000001    1    1    2    0    0 -0.34160251847E+03 -0.18184704018E+03 -0.24075566015E+03  0.49731771991E+03  0.19900000000E+03 0.  0.
<mgrwt>
<rscale>  0 0.11254968E+04</rscale>
<asrwt>0</asrwt>
<pdfrwt beam="1">  1        2 0.10016203E+00 0.11254968E+04</pdfrwt>
<pdfrwt beam="2">  1       -2 0.64525197E-01 0.11254968E+04</pdfrwt>
<totfact> 0.98847997E+01</totfact>
</mgrwt>
</event>
<event>
 4    1  0.5080671E-005  0.5533452E+03  0.7818608E-02  0.1000723E+00
         -2   -1    0    0    0  501 -0.00000000000E+00  0.00000000000E+00  0.69766941822E+02  0.69766941869E+02  0.25500000000E-02 0. -1.
          2   -1    0    0  501    0  0.00000000000E+00 -0.00000000000E+00 -0.10971917931E+04  0.10971917931E+04  0.25500000000E-02 0.  1.
    5000001    1    1    2    0    0  0.11180154695E+03 -0.72328444424E+02 -0.22137273265E+03  0.32609488885E+03  0.19900000000E+03 0.  0.
   -5000001    1    1    2    0    0 -0.11180154695E+03  0.72328444424E+02 -0.80605211867E+03  0.84086384616E+03  0.19900000000E+03 0.  0.
<mgrwt>
<rscale>  0 0.55334516E+03</rscale>
<asrwt>0</asrwt>
<pdfrwt beam="1">  1        2 0.15674167E+00 0.55334516E+03</pdfrwt>
<pdfrwt beam="2">  1       -2 0.99667066E-02 0.55334516E+03</pdfrwt>
<totfact> 0.17021468E+03</totfact>
</mgrwt>
</event>
<event>
 4    1  0.5080671E-005  0.7338096E+03  0.7818608E-02  0.9661099E-01
          2   -1    0    0  501    0  0.00000000000E+00  0.00000000000E+00  0.84802305379E+03  0.84802305379E+03  0.25500000000E-02 0.  1.
         -2   -1    0    0    0  501 -0.00000000000E+00 -0.00000000000E+00 -0.15874467184E+03  0.15874467186E+03  0.25500000000E-02 0. -1.
    5000001    1    1    2    0    0  0.20875407818E+03 -0.21903331641E+03  0.26388733109E+03  0.44809751435E+03  0.19900000000E+03 0.  0.
   -5000001    1    1    2    0    0 -0.20875407818E+03  0.21903331641E+03  0.42539105086E+03  0.55867021131E+03  0.19900000000E+03 0.  0.
<mgrwt>
<rscale>  0 0.73380962E+03</rscale>
<asrwt>0</asrwt>
<pdfrwt beam="1">  1        2 0.12114615E+00 0.73380962E+03</pdfrwt>
<pdfrwt beam="2">  1       -2 0.22677811E-01 0.73380962E+03</pdfrwt>
<totfact> 0.60355148E+02</totfact>
</mgrwt>
</event>
<event>
 4    1  0.5080671E-005  0.6802026E+03  0.7818608E-02  0.9751700E-01
         -2   -1    0    0    0  501 -0.00000000000E+00  0.00000000000E+00  0.52454953752E+02  0.52454953814E+02  0.25500000000E-02 0. -1.
          2   -1    0    0  501    0  0.00000000000E+00 -0.00000000000E+00 -0.22051089738E+04  0.22051089738E+04  0.25500000000E-02 0.  1.
    5000001    1    1    2    0    0 -0.27660082185E+02  0.27438939583E+03 -0.10884166861E+04  0.11403098277E+04  0.19900000000E+03 0.  0.
   -5000001    1    1    2    0    0  0.27660082185E+02 -0.27438939583E+03 -0.10642373339E+04  0.11172540999E+04  0.19900000000E+03 0.  0.
<mgrwt>
<rscale>  0 0.68020259E+03</rscale>
<asrwt>0</asrwt>
<pdfrwt beam="1">  1        2 0.31501551E+00 0.68020259E+03</pdfrwt>
<pdfrwt beam="2">  1       -2 0.74935662E-02 0.68020259E+03</pdfrwt>
<totfact> 0.70684700E+02</totfact>
</mgrwt>
</event>
<event>
 4    1  0.5080671E-005  0.5745911E+03  0.7818608E-02  0.9959570E-01
         -2   -1    0    0    0  501 -0.00000000000E+00  0.00000000000E+00  0.64481889318E+02  0.64481889369E+02  0.25500000000E-02 0.  1.
          2   -1    0    0  501    0  0.00000000000E+00 -0.00000000000E+00 -0.12800296083E+04  0.12800296083E+04  0.25500000000E-02 0. -1.
    5000001    1    1    2    0    0 -0.14027014619E+02 -0.20274246496E+03 -0.70243217655E+03  0.75783456433E+03  0.19900000000E+03 0.  0.
   -5000001    1    1    2    0    0  0.14027014619E+02  0.20274246496E+03 -0.51311554244E+03  0.58667693336E+03  0.19900000000E+03 0.  0.
<mgrwt>
<rscale>  0 0.57459108E+03</rscale>
<asrwt>0</asrwt>
<pdfrwt beam="1">  1        2 0.18286136E+00 0.57459108E+03</pdfrwt>
<pdfrwt beam="2">  1       -2 0.92116993E-02 0.57459108E+03</pdfrwt>
<totfact> 0.15249256E+03</totfact>
</mgrwt>
</event>
<event>
 4    1  0.5080671E-005  0.9515500E+03  0.7818608E-02  0.9363341E-01
          2   -1    0    0  501    0  0.00000000000E+00  0.00000000000E+00  0.15592732432E+04  0.15592732432E+04  0.25500000000E-02 0.  1.
         -2   -1    0    0    0  501 -0.00000000000E+00 -0.00000000000E+00 -0.14517139170E+03  0.14517139173E+03  0.25500000000E-02 0. -1.
    5000001    1    1    2    0    0  0.17111372808E+03  0.35858659705E+03  0.40255973861E+03  0.59959953192E+03  0.19900000000E+03 0.  0.
   -5000001    1    1    2    0    0 -0.17111372808E+03 -0.35858659705E+03  0.10115421129E+04  0.11048451030E+04  0.19900000000E+03 0.  0.
<mgrwt>
<rscale>  0 0.95155003E+03</rscale>
<asrwt>0</asrwt>
<pdfrwt beam="1">  1        2 0.22275332E+00 0.95155003E+03</pdfrwt>
<pdfrwt beam="2">  1       -2 0.20738770E-01 0.95155003E+03</pdfrwt>
<totfact> 0.27223049E+02</totfact>
</mgrwt>
</event>
<event>
 4    1  0.5080671E-005  0.6445746E+03  0.7818608E-02  0.9817013E-01
          2   -1    0    0  501    0  0.00000000000E+00  0.00000000000E+00  0.87929265689E+03  0.87929265689E+03  0.25500000000E-02 0.  1.
         -2   -1    0    0    0  501 -0.00000000000E+00 -0.00000000000E+00 -0.11812803035E+03  0.11812803038E+03  0.25500000000E-02 0. -1.
    5000001    1    1    2    0    0  0.22949333465E+03  0.22447077497E+02  0.21757432088E+03  0.37431356780E+03  0.19900000000E+03 0.  0.
   -5000001    1    1    2    0    0 -0.22949333465E+03 -0.22447077497E+02  0.54359030565E+03  0.62310711947E+03  0.19900000000E+03 0.  0.
<mgrwt>
<rscale>  0 0.64457462E+03</rscale>
<asrwt>0</asrwt>
<pdfrwt beam="1">  1        2 0.12561324E+00 0.64457462E+03</pdfrwt>
<pdfrwt beam="2">  1       -2 0.16875433E-01 0.64457462E+03</pdfrwt>
<totfact> 0.96506332E+02</totfact>
</mgrwt>
</event>
<event>
 4    1  0.5080671E-005  0.5123142E+03  0.7818608E-02  0.1010614E+00
          2   -1    0    0  501    0  0.00000000000E+00  0.00000000000E+00  0.14451758879E+04  0.14451758879E+04  0.25500000000E-02 0.  1.
         -2   -1    0    0    0  501 -0.00000000000E+00 -0.00000000000E+00 -0.45403785777E+02  0.45403785848E+02  0.25500000000E-02 0. -1.
    5000001    1    1    2    0    0 -0.51490972017E+02  0.49628224270E+02  0.27925224883E+03  0.35028145729E+03  0.19900000000E+03 0.  0.
   -5000001    1    1    2    0    0  0.51490972017E+02 -0.49628224270E+02  0.11205198533E+04  0.11402982165E+04  0.19900000000E+03 0.  0.
<mgrwt>
<rscale>  0 0.51231419E+03</rscale>
<asrwt>0</asrwt>
<pdfrwt beam="1">  1        2 0.20645371E+00 0.51231419E+03</pdfrwt>
<pdfrwt beam="2">  1       -2 0.64862547E-02 0.51231419E+03</pdfrwt>
<totfact> 0.21752410E+03</totfact>
</mgrwt>
</event>
<event>
 4    1  0.5080671E-005  0.1177263E+04  0.7818608E-02  0.9132994E-01
          2   -1    0    0  501    0  0.00000000000E+00  0.00000000000E+00  0.10049137921E+04  0.10049137921E+04  0.25500000000E-02 0.  1.
         -2   -1    0    0    0  501 -0.00000000000E+00 -0.00000000000E+00 -0.34479304227E+03  0.34479304228E+03  0.25500000000E-02 0. -1.
    5000001    1    1    2    0    0 -0.18706826048E+03 -0.48529438238E+03  0.11138303337E+03  0.56790170961E+03  0.19900000000E+03 0.  0.
   -5000001    1    1    2    0    0  0.18706826048E+03  0.48529438238E+03  0.54873771643E+03  0.78180512475E+03  0.19900000000E+03 0.  0.
<mgrwt>
<rscale>  0 0.11772634E+04</rscale>
<asrwt>0</asrwt>
<pdfrwt beam="1">  1        2 0.14355912E+00 0.11772634E+04</pdfrwt>
<pdfrwt beam="2">  1       -2 0.49256148E-01 0.11772634E+04</pdfrwt>
<totfact> 0.10752367E+02</totfact>
</mgrwt>
</event>
<event>
 4    1  0.5080671E-005  0.6749189E+03  0.7818608E-02  0.9761112E-01
         -2   -1    0    0    0  501 -0.00000000000E+00  0.00000000000E+00  0.18413539276E+03  0.18413539278E+03  0.25500000000E-02 0. -1.
          2   -1    0    0  501    0  0.00000000000E+00 -0.00000000000E+00 -0.61845185847E+03  0.61845185848E+03  0.25500000000E-02 0.  1.
    5000001    1    1    2    0    0  0.15838149592E+03 -0.41440609260E+02 -0.47626399198E+03  0.54150753679E+03  0.19900000000E+03 0.  0.
   -5000001    1    1    2    0    0 -0.15838149592E+03  0.41440609260E+02  0.41947526265E+02  0.26107971446E+03  0.19900000000E+03 0.  0.
<mgrwt>
<rscale>  0 0.67491889E+03</rscale>
<asrwt>0</asrwt>
<pdfrwt beam="1">  1        2 0.88350265E-01 0.67491889E+03</pdfrwt>
<pdfrwt beam="2">  1       -2 0.26305056E-01 0.67491889E+03</pdfrwt>
<totfact> 0.68635184E+02</totfact>
</mgrwt>
</event>
<event>
 4    1  0.5080671E-005  0.9282907E+03  0.7818608E-02  0.9390892E-01
         -2   -1    0    0    0  501 -0.00000000000E+00  0.00000000000E+00  0.76857573856E+02  0.76857573898E+02  0.25500000000E-02 0. -1.
          2   -1    0    0  501    0  0.00000000000E+00 -0.00000000000E+00 -0.28029887130E+04  0.28029887130E+04  0.25500000000E-02 0.  1.
    5000001    1    1    2    0    0  0.21954624083E+02 -0.38738421094E+03 -0.86979445144E+03  0.97298094542E+03  0.19900000000E+03 0.  0.
   -5000001    1    1    2    0    0 -0.21954624083E+02  0.38738421094E+03 -0.18563366877E+04  0.19068653414E+04  0.19900000000E+03 0.  0.
<mgrwt>
<rscale>  0 0.92829071E+03</rscale>
<asrwt>0</asrwt>
<pdfrwt beam="1">  1        2 0.40042689E+00 0.92829071E+03</pdfrwt>
<pdfrwt beam="2">  1       -2 0.10979655E-01 0.92829071E+03</pdfrwt>
<totfact> 0.18286716E+02</totfact>
</mgrwt>
</event>
<event>
 4    1  0.5080671E-005  0.1035451E+04  0.7818608E-02  0.9270495E-01
          2   -1    0    0  501    0  0.00000000000E+00  0.00000000000E+00  0.16133970637E+04  0.16133970637E+04  0.25500000000E-02 0.  1.
         -2   -1    0    0    0  501 -0.00000000000E+00 -0.00000000000E+00 -0.16613380894E+03  0.16613380896E+03  0.25500000000E-02 0. -1.
    5000001    1    1    2    0    0  0.25505553901E+03 -0.27321339129E+03  0.12355908744E+04  0.13061334901E+04  0.19900000000E+03 0.  0.
   -5000001    1    1    2    0    0 -0.25505553901E+03  0.27321339129E+03  0.21167238033E+03  0.47339738250E+03  0.19900000000E+03 0.  0.
<mgrwt>
<rscale>  0 0.10354512E+04</rscale>
<asrwt>0</asrwt>
<pdfrwt beam="1">  1        2 0.23048529E+00 0.10354512E+04</pdfrwt>
<pdfrwt beam="2">  1       -2 0.23733401E-01 0.10354512E+04</pdfrwt>
<totfact> 0.19961129E+02</totfact>
</mgrwt>
</event>
<event>
 4    1  0.5080671E-005  0.5604843E+03  0.7818608E-02  0.9990959E-01
         -2   -1    0    0    0  501 -0.00000000000E+00  0.00000000000E+00  0.72254941875E+02  0.72254941920E+02  0.25500000000E-02 0. -1.
          2   -1    0    0  501    0  0.00000000000E+00 -0.00000000000E+00 -0.10869245484E+04  0.10869245484E+04  0.25500000000E-02 0.  1.
    5000001    1    1    2    0    0 -0.13854636856E+03 -0.57067311083E+02 -0.24181068625E+03  0.34716736917E+03  0.19900000000E+03 0.  0.
   -5000001    1    1    2    0    0  0.13854636856E+03  0.57067311083E+02 -0.77285892025E+03  0.81201212112E+03  0.19900000000E+03 0.  0.
<mgrwt>
<rscale>  0 0.56048433E+03</rscale>
<asrwt>0</asrwt>
<pdfrwt beam="1">  1        2 0.15527493E+00 0.56048433E+03</pdfrwt>
<pdfrwt beam="2">  1       -2 0.10322135E-01 0.56048433E+03</pdfrwt>
<totfact> 0.16303056E+03</totfact>
</mgrwt>
</event>
<event>
 4    1  0.5080671E-005  0.5217601E+03  0.7818608E-02  0.1008250E+00
          2   -1    0    0  501    0  0.00000000000E+00  0.00000000000E+00  0.85679640824E+03  0.85679640824E+03  0.25500000000E-02 0.  1.
         -2   -1    0    0    0  501 -0.00000000000E+00 -0.00000000000E+00 -0.79433575345E+02  0.79433575386E+02  0.25500000000E-02 0. -1.
    5000001    1    1    2    0    0 -0.15926218826E+03  0.55531562903E+02  0.39412488825E+03  0.47263477086E+03  0.19900000000E+03 0.  0.
   -5000001    1    1    2    0    0  0.15926218826E+03 -0.55531562903E+02  0.38323794464E+03  0.46359521277E+03  0.19900000000E+03 0.  0.
<mgrwt>
<rscale>  0 0.52176011E+03</rscale>
<asrwt>0</asrwt>
<pdfrwt beam="1">  1        2 0.12239949E+00 0.52176011E+03</pdfrwt>
<pdfrwt beam="2">  1       -2 0.11347653E-01 0.52176011E+03</pdfrwt>
<totfact> 0.19398545E+03</totfact>
</mgrwt>
</event>
<event>
 4    1  0.5080671E-005  0.7278406E+03  0.7818608E-02  0.9670771E-01
         -2   -1    0    0    0  501 -0.00000000000E+00  0.00000000000E+00  0.13487124218E+03  0.13487124220E+03  0.25500000000E-02 0. -1.
          2   -1    0    0  501    0  0.00000000000E+00 -0.00000000000E+00 -0.98195857475E+03  0.98195857476E+03  0.25500000000E-02 0.  1.
    5000001    1    1    2    0    0 -0.16981363084E+02 -0.25594947999E+03 -0.17122940587E+03  0.36704088660E+03  0.19900000000E+03 0.  0.
   -5000001    1    1    2    0    0  0.16981363084E+02  0.25594947999E+03 -0.67585792671E+03  0.74978893036E+03  0.19900000000E+03 0.  0.
<mgrwt>
<rscale>  0 0.72784057E+03</rscale>
<asrwt>0</asrwt>
<pdfrwt beam="1">  1        2 0.14027979E+00 0.72784057E+03</pdfrwt>
<pdfrwt beam="2">  1       -2 0.19267321E-01 0.72784057E+03</pdfrwt>
<totfact> 0.65905473E+02</totfact>
</mgrwt>
</event>
<event>
 4    1  0.5080671E-005  0.6333127E+03  0.7818608E-02  0.9838606E-01
         -2   -1    0    0    0  501 -0.00000000000E+00  0.00000000000E+00  0.20285644963E+03  0.20285644965E+03  0.25500000000E-02 0. -1.
          2   -1    0    0  501    0  0.00000000000E+00 -0.00000000000E+00 -0.49429657565E+03  0.49429657566E+03  0.25500000000E-02 0.  1.
    5000001    1    1    2    0    0 -0.16237155318E+03  0.85790076757E+02 -0.32641890480E+03  0.42411644623E+03  0.19900000000E+03 0.  0.
   -5000001    1    1    2    0    0  0.16237155318E+03 -0.85790076757E+02  0.34978778773E+02  0.27303657908E+03  0.19900000000E+03 0.  0.
<mgrwt>
<rscale>  0 0.63331271E+03</rscale>
<asrwt>0</asrwt>
<pdfrwt beam="1">  1        2 0.70613796E-01 0.63331271E+03</pdfrwt>
<pdfrwt beam="2">  1       -2 0.28979493E-01 0.63331271E+03</pdfrwt>
<totfact> 0.74673645E+02</totfact>
</mgrwt>
</event>
<event>
 4    1  0.5080671E-005  0.5875753E+03  0.7818608E-02  0.9931524E-01
          2   -1    0    0  501    0  0.00000000000E+00  0.00000000000E+00  0.18508138580E+04  0.18508138580E+04  0.25500000000E-02 0.  1.
         -2   -1    0    0    0  501 -0.00000000000E+00 -0.00000000000E+00 -0.46634185330E+02  0.46634185400E+02  0.25500000000E-02 0. -1.
    5000001    1    1    2    0    0 -0.21059138602E+03 -0.36541983922E+02  0.79864439727E+03  0.85036340569E+03  0.19900000000E+03 0.  0.
   -5000001    1    1    2    0    0  0.21059138602E+03  0.36541983922E+02  0.10055352754E+04  0.10470846378E+04  0.19900000000E+03 0.  0.
<mgrwt>
<rscale>  0 0.58757535E+03</rscale>
<asrwt>0</asrwt>
<pdfrwt beam="1">  1        2 0.26440197E+00 0.58757535E+03</pdfrwt>
<pdfrwt beam="2">  1       -2 0.66620268E-02 0.58757535E+03</pdfrwt>
<totfact> 0.12910108E+03</totfact>
</mgrwt>
</event>
<event>
 4    1  0.5080671E-005  0.5059033E+03  0.7818608E-02  0.1012249E+00
          2   -1    0    0  501    0  0.00000000000E+00  0.00000000000E+00  0.16948099548E+04  0.16948099548E+04  0.25500000000E-02 0.  1.
         -2   -1    0    0    0  501 -0.00000000000E+00 -0.00000000000E+00 -0.37753215193E+02  0.37753215279E+02  0.25500000000E-02 0. -1.
    5000001    1    1    2    0    0 -0.14301798893E+03  0.36429649018E+02  0.65382672479E+03  0.69919357157E+03  0.19900000000E+03 0.  0.
   -5000001    1    1    2    0    0  0.14301798893E+03 -0.36429649018E+02  0.10032300148E+04  0.10333695985E+04  0.19900000000E+03 0.  0.
<mgrwt>
<rscale>  0 0.50590325E+03</rscale>
<asrwt>0</asrwt>
<pdfrwt beam="1">  1        2 0.24211574E+00 0.50590325E+03</pdfrwt>
<pdfrwt beam="2">  1       -2 0.53933158E-02 0.50590325E+03</pdfrwt>
<totfact> 0.21595501E+03</totfact>
</mgrwt>
</event>
<event>
 4    1  0.5080671E-005  0.8339144E+03  0.7818608E-02  0.9512184E-01
          2   -1    0    0  501    0  0.00000000000E+00  0.00000000000E+00  0.11089092986E+04  0.11089092986E+04  0.25500000000E-02 0.  1.
         -2   -1    0    0    0  501 -0.00000000000E+00 -0.00000000000E+00 -0.15677866204E+03  0.15677866206E+03  0.25500000000E-02 0. -1.
    5000001    1    1    2    0    0  0.28512684025E+03  0.22249776540E+03  0.56521066835E+03  0.69990475798E+03  0.19900000000E+03 0.  0.
   -5000001    1    1    2    0    0 -0.28512684025E+03 -0.22249776540E+03  0.38691996820E+03  0.56578320268E+03  0.19900000000E+03 0.  0.
<mgrwt>
<rscale>  0 0.83391442E+03</rscale>
<asrwt>0</asrwt>
<pdfrwt beam="1">  1        2 0.15841561E+00 0.83391442E+03</pdfrwt>
<pdfrwt beam="2">  1       -2 0.22396952E-01 0.83391442E+03</pdfrwt>
<totfact> 0.42242555E+02</totfact>
</mgrwt>
</event>
<event>
 4    1  0.5080671E-005  0.5209410E+03  0.7818608E-02  0.1008453E+00
         -2   -1    0    0    0  501 -0.00000000000E+00  0.00000000000E+00  0.31516384703E+02  0.31516384806E+02  0.25500000000E-02 0. -1.
          2   -1    0    0  501    0  0.00000000000E+00 -0.00000000000E+00 -0.21526864425E+04  0.21526864425E+04  0.25500000000E-02 0.  1.
    5000001    1    1    2    0    0  0.88700086399E+02  0.14261129810E+03 -0.10865013322E+04  0.11172698119E+04  0.19900000000E+03 0.  0.
   -5000001    1    1    2    0    0 -0.88700086399E+02 -0.14261129810E+03 -0.10346687256E+04  0.10669330154E+04  0.19900000000E+03 0.  0.
<mgrwt>
<rscale>  0 0.52094105E+03</rscale>
<asrwt>0</asrwt>
<pdfrwt beam="1">  1        2 0.30752654E+00 0.52094105E+03</pdfrwt>
<pdfrwt beam="2">  1       -2 0.45023420E-02 0.52094105E+03</pdfrwt>
<totfact> 0.16821792E+03</totfact>
</mgrwt>
</event>
<event>
 4    1  0.5080671E-005  0.8814172E+03  0.7818608E-02  0.9449114E-01
          2   -1    0    0  501    0  0.00000000000E+00  0.00000000000E+00  0.12660285055E+03  0.12660285057E+03  0.25500000000E-02 0. -1.
         -2   -1    0    0    0  501 -0.00000000000E+00 -0.00000000000E+00 -0.15341209170E+04  0.15341209170E+04  0.25500000000E-02 0.  1.
    5000001    1    1    2    0    0 -0.29247958390E+03  0.23471906149E+03 -0.48093679290E+03  0.64151269948E+03  0.19900000000E+03 0.  0.
   -5000001    1    1    2    0    0  0.29247958390E+03 -0.23471906149E+03 -0.92658127351E+03  0.10192110681E+04  0.19900000000E+03 0.  0.
<mgrwt>
<rscale>  0 0.88141723E+03</rscale>
<asrwt>0</asrwt>
<pdfrwt beam="1">  1        2 0.18086122E-01 0.88141723E+03</pdfrwt>
<pdfrwt beam="2">  1       -2 0.21916012E+00 0.88141723E+03</pdfrwt>
<totfact> 0.32410272E+01</totfact>
</mgrwt>
</event>
<event>
 4    1  0.5080671E-005  0.5210340E+03  0.7818608E-02  0.1008430E+00
          2   -1    0    0  501    0  0.00000000000E+00  0.00000000000E+00  0.57470662235E+03  0.57470662236E+03  0.25500000000E-02 0.  1.
         -2   -1    0    0    0  501 -0.00000000000E+00 -0.00000000000E+00 -0.11809350401E+03  0.11809350403E+03  0.25500000000E-02 0. -1.
    5000001    1    1    2    0    0 -0.41849143966E+02  0.62709401136E+01  0.44466800776E+03  0.48900031970E+03  0.19900000000E+03 0.  0.
   -5000001    1    1    2    0    0  0.41849143966E+02 -0.62709401136E+01  0.11945110584E+02  0.20379980669E+03  0.19900000000E+03 0.  0.
<mgrwt>
<rscale>  0 0.52103404E+03</rscale>
<asrwt>0</asrwt>
<pdfrwt beam="1">  1        2 0.82100947E-01 0.52103404E+03</pdfrwt>
<pdfrwt beam="2">  1       -2 0.16870500E-01 0.52103404E+03</pdfrwt>
<totfact> 0.16336569E+03</totfact>
</mgrwt>
</event>
<event>
 4    1  0.5080671E-005  0.8411129E+03  0.7818608E-02  0.9502343E-01
          2   -1    0    0  501    0  0.00000000000E+00  0.00000000000E+00  0.30895511595E+04  0.30895511595E+04  0.25500000000E-02 0.  1.
         -2   -1    0    0    0  501 -0.00000000000E+00 -0.00000000000E+00 -0.57247062089E+02  0.57247062146E+02  0.25500000000E-02 0. -1.
    5000001    1    1    2    0    0  0.18309720466E+03 -0.13305673834E+03  0.41876489946E+03  0.51593965054E+03  0.19900000000E+03 0.  0.
   -5000001    1    1    2    0    0 -0.18309720466E+03  0.13305673834E+03  0.26135391979E+04  0.26308585711E+04  0.19900000000E+03 0.  0.
<mgrwt>
<rscale>  0 0.84111290E+03</rscale>
<asrwt>0</asrwt>
<pdfrwt beam="1">  1        2 0.44136448E+00 0.84111290E+03</pdfrwt>
<pdfrwt beam="2">  1       -2 0.81781512E-02 0.84111290E+03</pdfrwt>
<totfact> 0.20753555E+02</totfact>
</mgrwt>
</event>
<event>
 4    1  0.5080671E-005  0.5530896E+03  0.7818608E-02  0.1000781E+00
          2   -1    0    0  501    0  0.00000000000E+00  0.00000000000E+00  0.15584857839E+04  0.15584857839E+04  0.25500000000E-02 0.  1.
         -2   -1    0    0    0  501 -0.00000000000E+00 -0.00000000000E+00 -0.49071359270E+02  0.49071359336E+02  0.25500000000E-02 0. -1.
    5000001    1    1    2    0    0 -0.48785734409E+02  0.11587236511E+03  0.11765967165E+04  0.11999113660E+04  0.19900000000E+03 0.  0.
   -5000001    1    1    2    0    0  0.48785734409E+02 -0.11587236511E+03  0.33281770805E+03  0.40764577721E+03  0.19900000000E+03 0.  0.
<mgrwt>
<rscale>  0 0.55308956E+03</rscale>
<asrwt>0</asrwt>
<pdfrwt beam="1">  1        2 0.22264076E+00 0.55308956E+03</pdfrwt>
<pdfrwt beam="2">  1       -2 0.70101964E-02 0.55308956E+03</pdfrwt>
<totfact> 0.16795375E+03</totfact>
</mgrwt>
</event>
<event>
 4    1  0.5080671E-005  0.8224573E+03  0.7818608E-02  0.9528068E-01
          2   -1    0    0  501    0  0.00000000000E+00  0.00000000000E+00  0.15408021673E+04  0.15408021673E+04  0.25500000000E-02 0.  1.
         -2   -1    0    0    0  501 -0.00000000000E+00 -0.00000000000E+00 -0.10975386482E+03  0.10975386485E+03  0.25500000000E-02 0. -1.
    5000001    1    1    2    0    0 -0.43611498316E+02  0.27353293695E+03  0.11766031319E+04  0.12250380240E+04  0.19900000000E+03 0.  0.
   -5000001    1    1    2    0    0  0.43611498316E+02 -0.27353293695E+03  0.25444517055E+03  0.42551800807E+03  0.19900000000E+03 0.  0.
<mgrwt>
<rscale>  0 0.82245728E+03</rscale>
<asrwt>0</asrwt>
<pdfrwt beam="1">  1        2 0.22011460E+00 0.82245728E+03</pdfrwt>
<pdfrwt beam="2">  1       -2 0.15679123E-01 0.82245728E+03</pdfrwt>
<totfact> 0.45498115E+02</totfact>
</mgrwt>
</event>
<event>
 4    1  0.5080671E-005  0.5349569E+03  0.7818608E-02  0.1005037E+00
          2   -1    0    0  501    0  0.00000000000E+00  0.00000000000E+00  0.35438658330E+04  0.35438658330E+04  0.25500000000E-02 0.  1.
         -2   -1    0    0    0  501 -0.00000000000E+00 -0.00000000000E+00 -0.20188326579E+02  0.20188326740E+02  0.25500000000E-02 0. -1.
    5000001    1    1    2    0    0  0.16522292293E+03  0.38440787812E+02  0.21367926101E+04  0.21527331388E+04  0.19900000000E+03 0.  0.
   -5000001    1    1    2    0    0 -0.16522292293E+03 -0.38440787812E+02  0.13868848964E+04  0.14113210209E+04  0.19900000000E+03 0.  0.
<mgrwt>
<rscale>  0 0.53495690E+03</rscale>
<asrwt>0</asrwt>
<pdfrwt beam="1">  1        2 0.50626602E+00 0.53495690E+03</pdfrwt>
<pdfrwt beam="2">  1       -2 0.28840497E-02 0.53495690E+03</pdfrwt>
<totfact> 0.59434543E+02</totfact>
</mgrwt>
</event>
<event>
 4    1  0.5080671E-005  0.6846084E+03  0.7818608E-02  0.9743922E-01
         -2   -1    0    0    0  501 -0.00000000000E+00  0.00000000000E+00  0.20473911555E+03  0.20473911557E+03  0.25500000000E-02 0. -1.
          2   -1    0    0  501    0  0.00000000000E+00 -0.00000000000E+00 -0.57229986256E+03  0.57229986256E+03  0.25500000000E-02 0.  1.
    5000001    1    1    2    0    0 -0.96506799125E+02  0.16617205379E+03  0.45043442233E+02  0.28027954871E+03  0.19900000000E+03 0.  0.
   -5000001    1    1    2    0    0  0.96506799125E+02 -0.16617205379E+03 -0.41260418924E+03  0.49675942942E+03  0.19900000000E+03 0.  0.
<mgrwt>
<rscale>  0 0.68460841E+03</rscale>
<asrwt>0</asrwt>
<pdfrwt beam="1">  1        2 0.81757123E-01 0.68460841E+03</pdfrwt>
<pdfrwt beam="2">  1       -2 0.29248445E-01 0.68460841E+03</pdfrwt>
<totfact> 0.61935014E+02</totfact>
</mgrwt>
</event>
<event>
 4    1  0.5080671E-005  0.9581984E+03  0.7818608E-02  0.9355619E-01
         -2   -1    0    0    0  501 -0.00000000000E+00  0.00000000000E+00  0.74815336110E+02  0.74815336153E+02  0.25500000000E-02 0. -1.
          2   -1    0    0  501    0  0.00000000000E+00 -0.00000000000E+00 -0.30680347580E+04  0.30680347580E+04  0.25500000000E-02 0.  1.
    5000001    1    1    2    0    0  0.62958225566E+02 -0.30718666222E+03 -0.24893465350E+04  0.25168978038E+04  0.19900000000E+03 0.  0.
   -5000001    1    1    2    0    0 -0.62958225566E+02  0.30718666222E+03 -0.50387288688E+03  0.62595229031E+03  0.19900000000E+03 0.  0.
<mgrwt>
<rscale>  0 0.95819842E+03</rscale>
<asrwt>0</asrwt>
<pdfrwt beam="1">  1        2 0.43829060E+00 0.95819842E+03</pdfrwt>
<pdfrwt beam="2">  1       -2 0.10687907E-01 0.95819842E+03</pdfrwt>
<totfact> 0.13658513E+02</totfact>
</mgrwt>
</event>
<event>
 4    1  0.5080671E-005  0.8551978E+03  0.7818608E-02  0.9483387E-01
         -2   -1    0    0    0  501 -0.00000000000E+00  0.00000000000E+00  0.76481417910E+02  0.76481417952E+02  0.25500000000E-02 0. -1.
          2   -1    0    0  501    0  0.00000000000E+00 -0.00000000000E+00 -0.23906570049E+04  0.23906570049E+04  0.25500000000E-02 0.  1.
    5000001    1    1    2    0    0 -0.14914469240E+03 -0.13418640807E+02 -0.21598281563E+04  0.21741395687E+04  0.19900000000E+03 0.  0.
   -5000001    1    1    2    0    0  0.14914469240E+03  0.13418640807E+02 -0.15434743063E+03  0.29299885415E+03  0.19900000000E+03 0.  0.
<mgrwt>
<rscale>  0 0.85519784E+03</rscale>
<asrwt>0</asrwt>
<pdfrwt beam="1">  1        2 0.34152238E+00 0.85519784E+03</pdfrwt>
<pdfrwt beam="2">  1       -2 0.10925918E-01 0.85519784E+03</pdfrwt>
<totfact> 0.30512714E+02</totfact>
</mgrwt>
</event>
<event>
 4    1  0.5080671E-005  0.5489900E+03  0.7818608E-02  0.1001728E+00
          2   -1    0    0  501    0  0.00000000000E+00  0.00000000000E+00  0.11066055226E+03  0.11066055229E+03  0.25500000000E-02 0.  1.
         -2   -1    0    0    0  501 -0.00000000000E+00 -0.00000000000E+00 -0.68088849013E+03  0.68088849013E+03  0.25500000000E-02 0. -1.
    5000001    1    1    2    0    0  0.14638146475E+03  0.43236798339E+02 -0.44598954443E+03  0.51166847440E+03  0.19900000000E+03 0.  0.
   -5000001    1    1    2    0    0 -0.14638146475E+03 -0.43236798339E+02 -0.12423839343E+03  0.27988056802E+03  0.19900000000E+03 0.  0.
<mgrwt>
<rscale>  0 0.54898997E+03</rscale>
<asrwt>0</asrwt>
<pdfrwt beam="1">  1        2 0.15808651E-01 0.54898997E+03</pdfrwt>
<pdfrwt beam="2">  1       -2 0.97269782E-01 0.54898997E+03</pdfrwt>
<totfact> 0.33549318E+02</totfact>
</mgrwt>
</event>
<event>
 4    1  0.5080671E-005  0.5801347E+03  0.7818608E-02  0.9947500E-01
          2   -1    0    0  501    0  0.00000000000E+00  0.00000000000E+00  0.85531729651E+03  0.85531729652E+03  0.25500000000E-02 0.  1.
         -2   -1    0    0    0  501 -0.00000000000E+00 -0.00000000000E+00 -0.98371743442E+02  0.98371743475E+02  0.25500000000E-02 0. -1.
    5000001    1    1    2    0    0 -0.98159396850E+01  0.16696269965E+03  0.59005334261E+03  0.64477658369E+03  0.19900000000E+03 0.  0.
   -5000001    1    1    2    0    0  0.98159396850E+01 -0.16696269965E+03  0.16689221046E+03  0.30891245631E+03  0.19900000000E+03 0.  0.
<mgrwt>
<rscale>  0 0.58013465E+03</rscale>
<asrwt>0</asrwt>
<pdfrwt beam="1">  1        2 0.12218819E+00 0.58013465E+03</pdfrwt>
<pdfrwt beam="2">  1       -2 0.14053106E-01 0.58013465E+03</pdfrwt>
<totfact> 0.13651285E+03</totfact>
</mgrwt>
</event>
<event>
 4    1  0.5080671E-005  0.4570660E+03  0.7818608E-02  0.1025636E+00
         -2   -1    0    0    0  501 -0.00000000000E+00  0.00000000000E+00  0.68808810575E+02  0.68808810623E+02  0.25500000000E-02 0. -1.
          2   -1    0    0  501    0  0.00000000000E+00 -0.00000000000E+00 -0.75902106374E+03  0.75902106374E+03  0.25500000000E-02 0.  1.
    5000001    1    1    2    0    0  0.77097256374E+02 -0.61841644931E+02 -0.44193174527E+03  0.49464436060E+03  0.19900000000E+03 0.  0.
   -5000001    1    1    2    0    0 -0.77097256374E+02  0.61841644931E+02 -0.24828050789E+03  0.33318551377E+03  0.19900000000E+03 0.  0.
<mgrwt>
<rscale>  0 0.45706602E+03</rscale>
<asrwt>0</asrwt>
<pdfrwt beam="1">  1        2 0.10843158E+00 0.45706602E+03</pdfrwt>
<pdfrwt beam="2">  1       -2 0.98298305E-02 0.45706602E+03</pdfrwt>
<totfact> 0.28548799E+03</totfact>
</mgrwt>
</event>
<event>
 4    1  0.5080671E-005  0.4522282E+03  0.7818608E-02  0.1027060E+00
          2   -1    0    0  501    0  0.00000000000E+00  0.00000000000E+00  0.12254675264E+03  0.12254675267E+03  0.25500000000E-02 0. -1.
         -2   -1    0    0    0  501 -0.00000000000E+00 -0.00000000000E+00 -0.41720875303E+03  0.41720875304E+03  0.25500000000E-02 0.  1.
    5000001    1    1    2    0    0 -0.47194411137E+01 -0.10715589574E+03 -0.15291888440E+03  0.27292827688E+03  0.19900000000E+03 0.  0.
   -5000001    1    1    2    0    0  0.47194411137E+01  0.10715589574E+03 -0.14174311599E+03  0.26682722883E+03  0.19900000000E+03 0.  0.
<mgrwt>
<rscale>  0 0.45222816E+03</rscale>
<asrwt>0</asrwt>
<pdfrwt beam="1">  1        2 0.17506679E-01 0.45222816E+03</pdfrwt>
<pdfrwt beam="2">  1       -2 0.59601250E-01 0.45222816E+03</pdfrwt>
<totfact> 0.87677703E+02</totfact>
</mgrwt>
</event>
<event>
 4    1  0.5080671E-005  0.6108461E+03  0.7818608E-02  0.9883156E-01
         -2   -1    0    0    0  501 -0.00000000000E+00  0.00000000000E+00  0.35543942318E+02  0.35543942409E+02  0.25500000000E-02 0. -1.
          2   -1    0    0  501    0  0.00000000000E+00 -0.00000000000E+00 -0.26244481542E+04  0.26244481542E+04  0.25500000000E-02 0.  1.
    5000001    1    1    2    0    0 -0.26566377589E+02  0.10293569130E+03 -0.39798854342E+03  0.45749033832E+03  0.19900000000E+03 0.  0.
   -5000001    1    1    2    0    0  0.26566377589E+02 -0.10293569130E+03 -0.21909156685E+04  0.22025017583E+04  0.19900000000E+03 0.  0.
<mgrwt>
<rscale>  0 0.61084608E+03</rscale>
<asrwt>0</asrwt>
<pdfrwt beam="1">  1        2 0.37492104E+00 0.61084608E+03</pdfrwt>
<pdfrwt beam="2">  1       -2 0.50777077E-02 0.61084608E+03</pdfrwt>
<totfact> 0.79909533E+02</totfact>
</mgrwt>
</event>
<event>
 4    1  0.5080671E-005  0.5293118E+03  0.7818608E-02  0.1006399E+00
         -2   -1    0    0    0  501 -0.00000000000E+00  0.00000000000E+00  0.34516293416E+02  0.34516293510E+02  0.25500000000E-02 0. -1.
          2   -1    0    0  501    0  0.00000000000E+00 -0.00000000000E+00 -0.20292660156E+04  0.20292660156E+04  0.25500000000E-02 0.  1.
    5000001    1    1    2    0    0  0.13968626740E+03 -0.60688499549E+02 -0.66547024313E+03  0.71108859628E+03  0.19900000000E+03 0.  0.
   -5000001    1    1    2    0    0 -0.13968626740E+03  0.60688499549E+02 -0.13292794791E+04  0.13526937128E+04  0.19900000000E+03 0.  0.
<mgrwt>
<rscale>  0 0.52931178E+03</rscale>
<asrwt>0</asrwt>
<pdfrwt beam="1">  1        2 0.28989507E+00 0.52931178E+03</pdfrwt>
<pdfrwt beam="2">  1       -2 0.49309003E-02 0.52931178E+03</pdfrwt>
<totfact> 0.16846412E+03</totfact>
</mgrwt>
</event>
<event>
 4    1  0.5080671E-005  0.5794552E+03  0.7818608E-02  0.9948971E-01
         -2   -1    0    0    0  501 -0.00000000000E+00  0.00000000000E+00  0.35005202040E+02  0.35005202133E+02  0.25500000000E-02 0. -1.
          2   -1    0    0  501    0  0.00000000000E+00 -0.00000000000E+00 -0.23979888027E+04  0.23979888027E+04  0.25500000000E-02 0.  1.
    5000001    1    1    2    0    0 -0.28477467601E+02 -0.20022666659E+03 -0.14277339648E+04  0.14556534473E+04  0.19900000000E+03 0.  0.
   -5000001    1    1    2    0    0  0.28477467601E+02  0.20022666659E+03 -0.93524963585E+03  0.97734055760E+03  0.19900000000E+03 0.  0.
<mgrwt>
<rscale>  0 0.57945520E+03</rscale>
<asrwt>0</asrwt>
<pdfrwt beam="1">  1        2 0.34256973E+00 0.57945520E+03</pdfrwt>
<pdfrwt beam="2">  1       -2 0.50007447E-02 0.57945520E+03</pdfrwt>
<totfact> 0.10720867E+03</totfact>
</mgrwt>
</event>
<event>
 4    1  0.5080671E-005  0.4598428E+03  0.7818608E-02  0.1024827E+00
          2   -1    0    0  501    0  0.00000000000E+00  0.00000000000E+00  0.11427716983E+04  0.11427716983E+04  0.25500000000E-02 0.  1.
         -2   -1    0    0    0  501 -0.00000000000E+00 -0.00000000000E+00 -0.46259317984E+02  0.46259318055E+02  0.25500000000E-02 0. -1.
    5000001    1    1    2    0    0  0.59488349557E+02  0.28010726916E+02  0.30377952576E+03  0.36906160031E+03  0.19900000000E+03 0.  0.
   -5000001    1    1    2    0    0 -0.59488349557E+02 -0.28010726916E+02  0.79273285457E+03  0.81996941605E+03  0.19900000000E+03 0.  0.
<mgrwt>
<rscale>  0 0.45984275E+03</rscale>
<asrwt>0</asrwt>
<pdfrwt beam="1">  1        2 0.16325309E+00 0.45984275E+03</pdfrwt>
<pdfrwt beam="2">  1       -2 0.66084746E-02 0.45984275E+03</pdfrwt>
<totfact> 0.30821828E+03</totfact>
</mgrwt>
</event>
<event>
 4    1  0.5080671E-005  0.5277572E+03  0.7818608E-02  0.1006777E+00
          2   -1    0    0  501    0  0.00000000000E+00  0.00000000000E+00  0.10206542988E+03  0.10206542991E+03  0.25500000000E-02 0.  1.
         -2   -1    0    0    0  501 -0.00000000000E+00 -0.00000000000E+00 -0.68222827675E+03  0.68222827675E+03  0.25500000000E-02 0. -1.
    5000001    1    1    2    0    0  0.17204248825E+02 -0.17070517637E+03 -0.32632122586E+03  0.41895439592E+03  0.19900000000E+03 0.  0.
   -5000001    1    1    2    0    0 -0.17204248825E+02  0.17070517637E+03 -0.25384162101E+03  0.36533931074E+03  0.19900000000E+03 0.  0.
<mgrwt>
<rscale>  0 0.52775723E+03</rscale>
<asrwt>0</asrwt>
<pdfrwt beam="1">  1        2 0.14580776E-01 0.52775723E+03</pdfrwt>
<pdfrwt beam="2">  1       -2 0.97461180E-01 0.52775723E+03</pdfrwt>
<totfact> 0.36832497E+02</totfact>
</mgrwt>
</event>
<event>
 4    1  0.5080671E-005  0.4534174E+03  0.7818608E-02  0.1026708E+00
          2   -1    0    0  501    0  0.00000000000E+00  0.00000000000E+00  0.27618105471E+04  0.27618105471E+04  0.25500000000E-02 0.  1.
         -2   -1    0    0    0  501 -0.00000000000E+00 -0.00000000000E+00 -0.18609834738E+02  0.18609834913E+02  0.25500000000E-02 0. -1.
    5000001    1    1    2    0    0 -0.48189395469E+02 -0.71898539302E+02  0.17739091383E+04  0.17871335285E+04  0.19900000000E+03 0.  0.
   -5000001    1    1    2    0    0  0.48189395469E+02  0.71898539302E+02  0.96929157400E+03  0.99328685344E+03  0.19900000000E+03 0.  0.
<mgrwt>
<rscale>  0 0.45341742E+03</rscale>
<asrwt>0</asrwt>
<pdfrwt beam="1">  1        2 0.39454393E+00 0.45341742E+03</pdfrwt>
<pdfrwt beam="2">  1       -2 0.26585508E-02 0.45341742E+03</pdfrwt>
<totfact> 0.18432397E+03</totfact>
</mgrwt>
</event>
<event>
 4    1  0.5080671E-005  0.4262712E+03  0.7818608E-02  0.1035044E+00
          2   -1    0    0  501    0  0.00000000000E+00  0.00000000000E+00  0.44120929843E+03  0.44120929844E+03  0.25500000000E-02 0.  1.
         -2   -1    0    0    0  501 -0.00000000000E+00 -0.00000000000E+00 -0.10295972661E+03  0.10295972664E+03  0.25500000000E-02 0. -1.
    5000001    1    1    2    0    0 -0.39336558471E+01 -0.49308772090E+02  0.94918732426E+02  0.22595883346E+03  0.19900000000E+03 0.  0.
   -5000001    1    1    2    0    0  0.39336558471E+01  0.49308772090E+02  0.24333083939E+03  0.31821019162E+03  0.19900000000E+03 0.  0.
<mgrwt>
<rscale>  0 0.42627122E+03</rscale>
<asrwt>0</asrwt>
<pdfrwt beam="1">  1        2 0.63029899E-01 0.42627122E+03</pdfrwt>
<pdfrwt beam="2">  1       -2 0.14708532E-01 0.42627122E+03</pdfrwt>
<totfact> 0.27710717E+03</totfact>
</mgrwt>
</event>
<event>
 4    1  0.5080671E-005  0.5591634E+03  0.7818608E-02  0.9993949E-01
          2   -1    0    0  501    0  0.00000000000E+00  0.00000000000E+00  0.30922147432E+04  0.30922147432E+04  0.25500000000E-02 0.  1.
         -2   -1    0    0    0  501 -0.00000000000E+00 -0.00000000000E+00 -0.25278299228E+02  0.25278299357E+02  0.25500000000E-02 0. -1.
    5000001    1    1    2    0    0  0.10323189763E+03 -0.16681815744E+03  0.15832749925E+04  0.16077455719E+04  0.19900000000E+03 0.  0.
   -5000001    1    1    2    0    0 -0.10323189763E+03  0.16681815744E+03  0.14836614515E+04  0.15097474706E+04  0.19900000000E+03 0.  0.
<mgrwt>
<rscale>  0 0.55916341E+03</rscale>
<asrwt>0</asrwt>
<pdfrwt beam="1">  1        2 0.44174442E+00 0.55916341E+03</pdfrwt>
<pdfrwt beam="2">  1       -2 0.36111901E-02 0.55916341E+03</pdfrwt>
<totfact> 0.76369020E+02</totfact>
</mgrwt>
</event>
<event>
 4    1  0.5080671E-005  0.4885857E+03  0.7818608E-02  0.1016802E+00
          2   -1    0    0  501    0  0.00000000000E+00  0.00000000000E+00  0.24963287946E+03  0.24963287947E+03  0.25500000000E-02 0.  1.
         -2   -1    0    0    0  501 -0.00000000000E+00 -0.00000000000E+00 -0.23906701416E+03  0.23906701417E+03  0.25500000000E-02 0. -1.
    5000001    1    1    2    0    0 -0.29948011094E+02 -0.95285964305E+02  0.10581358922E+03  0.24652345533E+03  0.19900000000E+03 0.  0.
   -5000001    1    1    2    0    0  0.29948011094E+02  0.95285964305E+02 -0.95247723920E+02  0.24217643831E+03  0.19900000000E+03 0.  0.
<mgrwt>
<rscale>  0 0.48858566E+03</rscale>
<asrwt>0</asrwt>
<pdfrwt beam="1">  1        2 0.35661840E-01 0.48858566E+03</pdfrwt>
<pdfrwt beam="2">  1       -2 0.34152431E-01 0.48858566E+03</pdfrwt>
<totfact> 0.11748224E+03</totfact>
</mgrwt>
</event>
<event>
 4    1  0.5080671E-005  0.9509467E+03  0.7818608E-02  0.9364045E-01
          2   -1    0    0  501    0  0.00000000000E+00  0.00000000000E+00  0.13179685792E+04  0.13179685792E+04  0.25500000000E-02 0.  1.
         -2   -1    0    0    0  501 -0.00000000000E+00 -0.00000000000E+00 -0.17153285396E+03  0.17153285398E+03  0.25500000000E-02 0. -1.
    5000001    1    1    2    0    0  0.25129284962E+03  0.11547940973E+03  0.53746057885E+02  0.34492496152E+03  0.19900000000E+03 0.  0.
   -5000001    1    1    2    0    0 -0.25129284962E+03 -0.11547940973E+03  0.10926896673E+04  0.11445764716E+04  0.19900000000E+03 0.  0.
<mgrwt>
<rscale>  0 0.95094671E+03</rscale>
<asrwt>0</asrwt>
<pdfrwt beam="1">  1        2 0.18828122E+00 0.95094671E+03</pdfrwt>
<pdfrwt beam="2">  1       -2 0.24504694E-01 0.95094671E+03</pdfrwt>
<totfact> 0.27225832E+02</totfact>
</mgrwt>
</event>
<event>
 4    1  0.5080671E-005  0.7337043E+03  0.7818608E-02  0.9661268E-01
         -2   -1    0    0    0  501 -0.00000000000E+00  0.00000000000E+00  0.52161645847E+02  0.52161645909E+02  0.25500000000E-02 0. -1.
          2   -1    0    0  501    0  0.00000000000E+00 -0.00000000000E+00 -0.25800660296E+04  0.25800660296E+04  0.25500000000E-02 0.  1.
    5000001    1    1    2    0    0 -0.14274684895E+03 -0.10482546050E+03 -0.21688099034E+04  0.21851092507E+04  0.19900000000E+03 0.  0.
   -5000001    1    1    2    0    0  0.14274684895E+03  0.10482546050E+03 -0.35909448035E+03  0.44711842489E+03  0.19900000000E+03 0.  0.
<mgrwt>
<rscale>  0 0.73370427E+03</rscale>
<asrwt>0</asrwt>
<pdfrwt beam="1">  1        2 0.36858078E+00 0.73370427E+03</pdfrwt>
<pdfrwt beam="2">  1       -2 0.74516653E-02 0.73370427E+03</pdfrwt>
<totfact> 0.45651370E+02</totfact>
</mgrwt>
</event>
<event>
 4    1  0.5080671E-005  0.9033321E+03  0.7818608E-02  0.9421426E-01
          2   -1    0    0  501    0  0.00000000000E+00  0.00000000000E+00  0.51652385956E+03  0.51652385956E+03  0.25500000000E-02 0.  1.
         -2   -1    0    0    0  501 -0.00000000000E+00 -0.00000000000E+00 -0.39495219277E+03  0.39495219278E+03  0.25500000000E-02 0. -1.
    5000001    1    1    2    0    0 -0.32235410226E+03  0.51850240539E+02  0.30337088917E+03  0.48809375235E+03  0.19900000000E+03 0.  0.
   -5000001    1    1    2    0    0  0.32235410226E+03 -0.51850240539E+02 -0.18179922238E+03  0.42338229999E+03  0.19900000000E+03 0.  0.
<mgrwt>
<rscale>  0 0.90333212E+03</rscale>
<asrwt>0</asrwt>
<pdfrwt beam="1">  1        2 0.73789123E-01 0.90333212E+03</pdfrwt>
<pdfrwt beam="2">  1       -2 0.56421742E-01 0.90333212E+03</pdfrwt>
<totfact> 0.19124906E+02</totfact>
</mgrwt>
</event>
<event>
 4    1  0.5080671E-005  0.6097362E+03  0.7818608E-02  0.9885410E-01
         -2   -1    0    0    0  501 -0.00000000000E+00  0.00000000000E+00  0.10671466382E+03  0.10671466385E+03  0.25500000000E-02 0. -1.
          2   -1    0    0  501    0  0.00000000000E+00 -0.00000000000E+00 -0.87096344404E+03  0.87096344404E+03  0.25500000000E-02 0.  1.
    5000001    1    1    2    0    0  0.68663629526E+02  0.11773512475E+03 -0.68110255576E+03  0.72254961427E+03  0.19900000000E+03 0.  0.
   -5000001    1    1    2    0    0 -0.68663629526E+02 -0.11773512475E+03 -0.83146224458E+02  0.25512849363E+03  0.19900000000E+03 0.  0.
<mgrwt>
<rscale>  0 0.60973624E+03</rscale>
<asrwt>0</asrwt>
<pdfrwt beam="1">  1        2 0.12442335E+00 0.60973624E+03</pdfrwt>
<pdfrwt beam="2">  1       -2 0.15244952E-01 0.60973624E+03</pdfrwt>
<totfact> 0.11621368E+03</totfact>
</mgrwt>
</event>
<event>
 4    1  0.5080671E-005  0.4205468E+03  0.7818608E-02  0.1036888E+00
          2   -1    0    0  501    0  0.00000000000E+00  0.00000000000E+00  0.11967915614E+04  0.11967915614E+04  0.25500000000E-02 0.  1.
         -2   -1    0    0    0  501 -0.00000000000E+00 -0.00000000000E+00 -0.36944537113E+02  0.36944537201E+02  0.25500000000E-02 0. -1.
    5000001    1    1    2    0    0  0.47091468297E+02 -0.36207260115E+02  0.48327604986E+03  0.52600885205E+03  0.19900000000E+03 0.  0.
   -5000001    1    1    2    0    0 -0.47091468297E+02  0.36207260115E+02  0.67657097446E+03  0.70772724658E+03  0.19900000000E+03 0.  0.
<mgrwt>
<rscale>  0 0.42054684E+03</rscale>
<asrwt>0</asrwt>
<pdfrwt beam="1">  1        2 0.17097023E+00 0.42054684E+03</pdfrwt>
<pdfrwt beam="2">  1       -2 0.52777908E-02 0.42054684E+03</pdfrwt>
<totfact> 0.40749458E+03</totfact>
</mgrwt>
</event>
<event>
 4    1  0.5080671E-005  0.4505557E+03  0.7818608E-02  0.1027556E+00
         -2   -1    0    0    0  501 -0.00000000000E+00  0.00000000000E+00  0.40279716334E+02  0.40279716415E+02  0.25500000000E-02 0.  1.
          2   -1    0    0  501    0  0.00000000000E+00 -0.00000000000E+00 -0.12599421730E+04  0.12599421730E+04  0.25500000000E-02 0. -1.
    5000001    1    1    2    0    0  0.57450314841E+02 -0.82604043109E+02 -0.51743335147E+03  0.56343787575E+03  0.19900000000E+03 0.  0.
   -5000001    1    1    2    0    0 -0.57450314841E+02  0.82604043109E+02 -0.70222910515E+03  0.73678401363E+03  0.19900000000E+03 0.  0.
<mgrwt>
<rscale>  0 0.45055572E+03</rscale>
<asrwt>0</asrwt>
<pdfrwt beam="1">  1        2 0.17999171E+00 0.45055572E+03</pdfrwt>
<pdfrwt beam="2">  1       -2 0.57542460E-02 0.45055572E+03</pdfrwt>
<totfact> 0.32925759E+03</totfact>
</mgrwt>
</event>
<event>
 4    1  0.5080671E-005  0.5765997E+03  0.7818608E-02  0.9955180E-01
         -2   -1    0    0    0  501 -0.00000000000E+00  0.00000000000E+00  0.20305420790E+03  0.20305420792E+03  0.25500000000E-02 0. -1.
          2   -1    0    0  501    0  0.00000000000E+00 -0.00000000000E+00 -0.40933309598E+03  0.40933309598E+03  0.25500000000E-02 0.  1.
    5000001    1    1    2    0    0 -0.15832000750E+03  0.56174167126E+02  0.28209669399E+02  0.26194951283E+03  0.19900000000E+03 0.  0.
   -5000001    1    1    2    0    0  0.15832000750E+03 -0.56174167126E+02 -0.23448855747E+03  0.35043779107E+03  0.19900000000E+03 0.  0.
<mgrwt>
<rscale>  0 0.57659971E+03</rscale>
<asrwt>0</asrwt>
<pdfrwt beam="1">  1        2 0.58476156E-01 0.57659971E+03</pdfrwt>
<pdfrwt beam="2">  1       -2 0.29007744E-01 0.57659971E+03</pdfrwt>
<totfact> 0.92203875E+02</totfact>
</mgrwt>
</event>
<event>
 4    1  0.5080671E-005  0.9617762E+03  0.7818608E-02  0.9351491E-01
         -2   -1    0    0    0  501 -0.00000000000E+00  0.00000000000E+00  0.58369836337E+03  0.58369836337E+03  0.25500000000E-02 0. -1.
          2   -1    0    0  501    0  0.00000000000E+00 -0.00000000000E+00 -0.39618643638E+03  0.39618643638E+03  0.25500000000E-02 0.  1.
    5000001    1    1    2    0    0  0.40106938253E+03 -0.11837269412E+03  0.22574684723E+03  0.51520033322E+03  0.19900000000E+03 0.  0.
   -5000001    1    1    2    0    0 -0.40106938253E+03  0.11837269412E+03 -0.38234920240E+02  0.46468446654E+03  0.19900000000E+03 0.  0.
<mgrwt>
<rscale>  0 0.96177622E+03</rscale>
<asrwt>0</asrwt>
<pdfrwt beam="1">  1        2 0.56598062E-01 0.96177622E+03</pdfrwt>
<pdfrwt beam="2">  1       -2 0.83385480E-01 0.96177622E+03</pdfrwt>
<totfact> 0.11015276E+02</totfact>
</mgrwt>
</event>
<event>
 4    1  0.5080671E-005  0.5640424E+03  0.7818608E-02  0.9982949E-01
          2   -1    0    0  501    0  0.00000000000E+00  0.00000000000E+00  0.27543076206E+04  0.27543076206E+04  0.25500000000E-02 0.  1.
         -2   -1    0    0    0  501 -0.00000000000E+00 -0.00000000000E+00 -0.28876931815E+02  0.28876931927E+02  0.25500000000E-02 0. -1.
    5000001    1    1    2    0    0 -0.28478000739E+01 -0.19888884562E+03  0.14576385901E+04  0.14845457697E+04  0.19900000000E+03 0.  0.
   -5000001    1    1    2    0    0  0.28478000739E+01  0.19888884562E+03  0.12677920987E+04  0.12986387829E+04  0.19900000000E+03 0.  0.
<mgrwt>
<rscale>  0 0.56404239E+03</rscale>
<asrwt>0</asrwt>
<pdfrwt beam="1">  1        2 0.39347257E+00 0.56404239E+03</pdfrwt>
<pdfrwt beam="2">  1       -2 0.41252755E-02 0.56404239E+03</pdfrwt>
<totfact> 0.94571462E+02</totfact>
</mgrwt>
</event>
<event>
 4    1  0.5080671E-005  0.8504989E+03  0.7818608E-02  0.9489668E-01
          2   -1    0    0  501    0  0.00000000000E+00  0.00000000000E+00  0.33543253063E+03  0.33543253064E+03  0.25500000000E-02 0.  1.
         -2   -1    0    0    0  501 -0.00000000000E+00 -0.00000000000E+00 -0.53911620661E+03  0.53911620661E+03  0.25500000000E-02 0. -1.
    5000001    1    1    2    0    0  0.54310276531E+02 -0.33776277939E+03  0.58129859732E+02  0.40001672699E+03  0.19900000000E+03 0.  0.
   -5000001    1    1    2    0    0 -0.54310276531E+02  0.33776277939E+03 -0.26181353571E+03  0.47453201026E+03  0.19900000000E+03 0.  0.
<mgrwt>
<rscale>  0 0.85049894E+03</rscale>
<asrwt>0</asrwt>
<pdfrwt beam="1">  1        2 0.47918933E-01 0.85049894E+03</pdfrwt>
<pdfrwt beam="2">  1       -2 0.77016601E-01 0.85049894E+03</pdfrwt>
<totfact> 0.15942111E+02</totfact>
</mgrwt>
</event>
<event>
 4    1  0.5080671E-005  0.1026524E+04  0.7818608E-02  0.9279923E-01
         -2   -1    0    0    0  501 -0.00000000000E+00  0.00000000000E+00  0.42552256112E+03  0.42552256112E+03  0.25500000000E-02 0. -1.
          2   -1    0    0  501    0  0.00000000000E+00 -0.00000000000E+00 -0.61909230419E+03  0.61909230419E+03  0.25500000000E-02 0.  1.
    5000001    1    1    2    0    0  0.76883244746E+02  0.26975840353E+03  0.29092322739E+03  0.45046415377E+03  0.19900000000E+03 0.  0.
   -5000001    1    1    2    0    0 -0.76883244746E+02 -0.26975840353E+03 -0.48449297046E+03  0.59415071154E+03  0.19900000000E+03 0.  0.
<mgrwt>
<rscale>  0 0.10265237E+04</rscale>
<asrwt>0</asrwt>
<pdfrwt beam="1">  1        2 0.88441758E-01 0.10265237E+04</pdfrwt>
<pdfrwt beam="2">  1       -2 0.60788937E-01 0.10265237E+04</pdfrwt>
<totfact> 0.13136164E+02</totfact>
</mgrwt>
</event>
<event>
 4    1  0.5080671E-005  0.6629333E+03  0.7818608E-02  0.9782809E-01
         -2   -1    0    0    0  501 -0.00000000000E+00  0.00000000000E+00  0.10997384199E+03  0.10997384201E+03  0.25500000000E-02 0. -1.
          2   -1    0    0  501    0  0.00000000000E+00 -0.00000000000E+00 -0.99905696389E+03  0.99905696389E+03  0.25500000000E-02 0.  1.
    5000001    1    1    2    0    0  0.19422943916E+03  0.16070958871E+03 -0.30743922992E+03  0.44460378657E+03  0.19900000000E+03 0.  0.
   -5000001    1    1    2    0    0 -0.19422943916E+03 -0.16070958871E+03 -0.58164389199E+03  0.66442701934E+03  0.19900000000E+03 0.  0.
<mgrwt>
<rscale>  0 0.66293328E+03</rscale>
<asrwt>0</asrwt>
<pdfrwt beam="1">  1        2 0.14272242E+00 0.66293328E+03</pdfrwt>
<pdfrwt beam="2">  1       -2 0.15710549E-01 0.66293328E+03</pdfrwt>
<totfact> 0.91500610E+02</totfact>
</mgrwt>
</event>
<event>
 4    1  0.5080671E-005  0.5521023E+03  0.7818608E-02  0.1001008E+00
         -2   -1    0    0    0  501 -0.00000000000E+00  0.00000000000E+00  0.19083180965E+03  0.19083180966E+03  0.25500000000E-02 0. -1.
          2   -1    0    0  501    0  0.00000000000E+00 -0.00000000000E+00 -0.39932671731E+03  0.39932671732E+03  0.25500000000E-02 0.  1.
    5000001    1    1    2    0    0 -0.90386546653E+02 -0.12213084007E+03 -0.22852665105E+03  0.33898539814E+03  0.19900000000E+03 0.  0.
   -5000001    1    1    2    0    0  0.90386546653E+02  0.12213084007E+03  0.20031743379E+02  0.25117312885E+03  0.19900000000E+03 0.  0.
<mgrwt>
<rscale>  0 0.55210231E+03</rscale>
<asrwt>0</asrwt>
<pdfrwt beam="1">  1        2 0.57046674E-01 0.55210231E+03</pdfrwt>
<pdfrwt beam="2">  1       -2 0.27261687E-01 0.55210231E+03</pdfrwt>
<totfact> 0.10616557E+03</totfact>
</mgrwt>
</event>
<event>
 4    1  0.5080671E-005  0.6881992E+03  0.7818608E-02  0.9737629E-01
         -2   -1    0    0    0  501 -0.00000000000E+00  0.00000000000E+00  0.11529026591E+03  0.11529026594E+03  0.25500000000E-02 0. -1.
          2   -1    0    0  501    0  0.00000000000E+00 -0.00000000000E+00 -0.10270122743E+04  0.10270122743E+04  0.25500000000E-02 0.  1.
    5000001    1    1    2    0    0 -0.65762552073E+02 -0.27100926919E+03 -0.40251877965E+03  0.52857648946E+03  0.19900000000E+03 0.  0.
   -5000001    1    1    2    0    0  0.65762552073E+02  0.27100926919E+03 -0.50920322876E+03  0.61372605079E+03  0.19900000000E+03 0.  0.
<mgrwt>
<rscale>  0 0.68819915E+03</rscale>
<asrwt>0</asrwt>
<pdfrwt beam="1">  1        2 0.14671603E+00 0.68819915E+03</pdfrwt>
<pdfrwt beam="2">  1       -2 0.16470039E-01 0.68819915E+03</pdfrwt>
<totfact> 0.81141067E+02</totfact>
</mgrwt>
</event>
<event>
 4    1  0.5080671E-005  0.4748763E+03  0.7818608E-02  0.1020553E+00
          2   -1    0    0  501    0  0.00000000000E+00  0.00000000000E+00  0.29730180917E+04  0.29730180917E+04  0.25500000000E-02 0. -1.
         -2   -1    0    0    0  501 -0.00000000000E+00 -0.00000000000E+00 -0.18962843962E+02  0.18962844133E+02  0.25500000000E-02 0.  1.
    5000001    1    1    2    0    0  0.50638445317E+02  0.75979599702E+02  0.20558119676E+04  0.20674382694E+04  0.19900000000E+03 0.  0.
   -5000001    1    1    2    0    0 -0.50638445317E+02 -0.75979599702E+02  0.89824328012E+03  0.92454266640E+03  0.19900000000E+03 0.  0.
<mgrwt>
<rscale>  0 0.47487631E+03</rscale>
<asrwt>0</asrwt>
<pdfrwt beam="1">  1        2 0.42471678E+00 0.47487631E+03</pdfrwt>
<pdfrwt beam="2">  1       -2 0.27089783E-02 0.47487631E+03</pdfrwt>
<totfact> 0.13823664E+03</totfact>
</mgrwt>
</event>
<event>
 4    1  0.5080671E-005  0.1971282E+04  0.7818608E-02  0.8620166E-01
         -2   -1    0    0    0  501 -0.00000000000E+00  0.00000000000E+00  0.90440292126E+03  0.90440292126E+03  0.25500000000E-02 0. -1.
          2   -1    0    0  501    0  0.00000000000E+00 -0.00000000000E+00 -0.10741760170E+04  0.10741760170E+04  0.25500000000E-02 0.  1.
    5000001    1    1    2    0    0  0.89371650519E+03  0.14075147889E+02 -0.45087263404E+03  0.10206931143E+04  0.19900000000E+03 0.  0.
   -5000001    1    1    2    0    0 -0.89371650519E+03 -0.14075147889E+02  0.28109953826E+03  0.95788582401E+03  0.19900000000E+03 0.  0.
<mgrwt>
<rscale>  0 0.19712817E+04</rscale>
<asrwt>0</asrwt>
<pdfrwt beam="1">  1        2 0.15345372E+00 0.19712817E+04</pdfrwt>
<pdfrwt beam="2">  1       -2 0.12920042E+00 0.19712817E+04</pdfrwt>
<totfact> 0.10438595E+01</totfact>
</mgrwt>
</event>
<event>
 4    1  0.5080671E-005  0.5506298E+03  0.7818608E-02  0.1001348E+00
          2   -1    0    0  501    0  0.00000000000E+00  0.00000000000E+00  0.35145905127E+03  0.35145905128E+03  0.25500000000E-02 0.  1.
         -2   -1    0    0    0  501 -0.00000000000E+00 -0.00000000000E+00 -0.21566753603E+03  0.21566753605E+03  0.25500000000E-02 0. -1.
    5000001    1    1    2    0    0  0.12886588118E+03 -0.10446486869E+03 -0.28050859574E+02  0.26059005132E+03  0.19900000000E+03 0.  0.
   -5000001    1    1    2    0    0 -0.12886588118E+03  0.10446486869E+03  0.16384237481E+03  0.30653653601E+03  0.19900000000E+03 0.  0.
<mgrwt>
<rscale>  0 0.55062985E+03</rscale>
<asrwt>0</asrwt>
<pdfrwt beam="1">  1        2 0.50208436E-01 0.55062985E+03</pdfrwt>
<pdfrwt beam="2">  1       -2 0.30809648E-01 0.55062985E+03</pdfrwt>
<totfact> 0.97690545E+02</totfact>
</mgrwt>
</event>
<event>
 4    1  0.5080671E-005  0.9511490E+03  0.7818608E-02  0.9363809E-01
          2   -1    0    0  501    0  0.00000000000E+00  0.00000000000E+00  0.85411751477E+03  0.85411751477E+03  0.25500000000E-02 0.  1.
         -2   -1    0    0    0  501 -0.00000000000E+00 -0.00000000000E+00 -0.26480090729E+03  0.26480090730E+03  0.25500000000E-02 0. -1.
    5000001    1    1    2    0    0  0.31434859222E+03  0.81939486298E+02 -0.40231721074E+02  0.38307794015E+03  0.19900000000E+03 0.  0.
   -5000001    1    1    2    0    0 -0.31434859222E+03 -0.81939486298E+02  0.62954832856E+03  0.73584048192E+03  0.19900000000E+03 0.  0.
<mgrwt>
<rscale>  0 0.95114897E+03</rscale>
<asrwt>0</asrwt>
<pdfrwt beam="1">  1        2 0.12201679E+00 0.95114897E+03</pdfrwt>
<pdfrwt beam="2">  1       -2 0.37828701E-01 0.95114897E+03</pdfrwt>
<totfact> 0.22977108E+02</totfact>
</mgrwt>
</event>
<event>
 4    1  0.5080671E-005  0.7676532E+03  0.7818608E-02  0.9608055E-01
          2   -1    0    0  501    0  0.00000000000E+00  0.00000000000E+00  0.16465381009E+04  0.16465381009E+04  0.25500000000E-02 0.  1.
         -2   -1    0    0    0  501 -0.00000000000E+00 -0.00000000000E+00 -0.89474316762E+02  0.89474316798E+02  0.25500000000E-02 0. -1.
    5000001    1    1    2    0    0 -0.14830214951E+03 -0.28055781240E+03  0.96795019810E+03  0.10378992242E+04  0.19900000000E+03 0.  0.
   -5000001    1    1    2    0    0  0.14830214951E+03  0.28055781240E+03  0.58911358603E+03  0.69811319346E+03  0.19900000000E+03 0.  0.
<mgrwt>
<rscale>  0 0.76765323E+03</rscale>
<asrwt>0</asrwt>
<pdfrwt beam="1">  1        2 0.23521974E+00 0.76765323E+03</pdfrwt>
<pdfrwt beam="2">  1       -2 0.12782045E-01 0.76765323E+03</pdfrwt>
<totfact> 0.56703221E+02</totfact>
</mgrwt>
</event>
<event>
 4    1  0.5080671E-005  0.4587994E+03  0.7818608E-02  0.1025130E+00
         -2   -1    0    0    0  501 -0.00000000000E+00  0.00000000000E+00  0.19317487159E+02  0.19317487327E+02  0.25500000000E-02 0. -1.
          2   -1    0    0  501    0  0.00000000000E+00 -0.00000000000E+00 -0.27241754958E+04  0.27241754958E+04  0.25500000000E-02 0.  1.
    5000001    1    1    2    0    0  0.10196929238E+03  0.25697278130E+02 -0.16175093964E+04  0.16330939146E+04  0.19900000000E+03 0.  0.
   -5000001    1    1    2    0    0 -0.10196929238E+03 -0.25697278130E+02 -0.10873486123E+04  0.11103990685E+04  0.19900000000E+03 0.  0.
<mgrwt>
<rscale>  0 0.45879941E+03</rscale>
<asrwt>0</asrwt>
<pdfrwt beam="1">  1        2 0.38916768E+00 0.45879941E+03</pdfrwt>
<pdfrwt beam="2">  1       -2 0.27596428E-02 0.45879941E+03</pdfrwt>
<totfact> 0.18223351E+03</totfact>
</mgrwt>
</event>
<event>
 4    1  0.5080671E-005  0.5240106E+03  0.7818608E-02  0.1007695E+00
          2   -1    0    0  501    0  0.00000000000E+00  0.00000000000E+00  0.45214345757E+03  0.45214345758E+03  0.25500000000E-02 0.  1.
         -2   -1    0    0    0  501 -0.00000000000E+00 -0.00000000000E+00 -0.15182519502E+03  0.15182519505E+03  0.25500000000E-02 0. -1.
    5000001    1    1    2    0    0  0.14527448820E+03 -0.49287257240E+02  0.23572949204E+03  0.34453345855E+03  0.19900000000E+03 0.  0.
   -5000001    1    1    2    0    0 -0.14527448820E+03  0.49287257240E+02  0.64588770513E+02  0.25943519407E+03  0.19900000000E+03 0.  0.
<mgrwt>
<rscale>  0 0.52401057E+03</rscale>
<asrwt>0</asrwt>
<pdfrwt beam="1">  1        2 0.64591924E-01 0.52401057E+03</pdfrwt>
<pdfrwt beam="2">  1       -2 0.21689313E-01 0.52401057E+03</pdfrwt>
<totfact> 0.13906111E+03</totfact>
</mgrwt>
</event>
<event>
 4    1  0.5080671E-005  0.7047701E+03  0.7818608E-02  0.9709109E-01
         -2   -1    0    0    0  501 -0.00000000000E+00  0.00000000000E+00  0.35532166710E+04  0.35532166710E+04  0.25500000000E-02 0. -1.
          2   -1    0    0  501    0  0.00000000000E+00 -0.00000000000E+00 -0.34947271760E+02  0.34947271853E+02  0.25500000000E-02 0.  1.
    5000001    1    1    2    0    0 -0.15435661358E+03  0.17153546282E+03  0.26602126507E+04  0.26776076497E+04  0.19900000000E+03 0.  0.
   -5000001    1    1    2    0    0  0.15435661358E+03 -0.17153546282E+03  0.85805674854E+03  0.91055629308E+03  0.19900000000E+03 0.  0.
<mgrwt>
<rscale>  0 0.70477012E+03</rscale>
<asrwt>0</asrwt>
<pdfrwt beam="1">  1        2 0.49924693E-02 0.70477012E+03</pdfrwt>
<pdfrwt beam="2">  1       -2 0.50760218E+00 0.70477012E+03</pdfrwt>
<totfact> 0.26171833E+00</totfact>
</mgrwt>
</event>
<event>
 4    1  0.5080671E-005  0.6429516E+03  0.7818608E-02  0.9820096E-01
          2   -1    0    0  501    0  0.00000000000E+00  0.00000000000E+00  0.32011465180E+03  0.32011465181E+03  0.25500000000E-02 0.  1.
         -2   -1    0    0    0  501 -0.00000000000E+00 -0.00000000000E+00 -0.32284270793E+03  0.32284270794E+03  0.25500000000E-02 0. -1.
    5000001    1    1    2    0    0 -0.11424828604E+03  0.18913224669E+03  0.12079272403E+03  0.32096037104E+03  0.19900000000E+03 0.  0.
   -5000001    1    1    2    0    0  0.11424828604E+03 -0.18913224669E+03 -0.12352078016E+03  0.32199698870E+03  0.19900000000E+03 0.  0.
<mgrwt>
<rscale>  0 0.64295157E+03</rscale>
<asrwt>0</asrwt>
<pdfrwt beam="1">  1        2 0.45730665E-01 0.64295157E+03</pdfrwt>
<pdfrwt beam="2">  1       -2 0.46120387E-01 0.64295157E+03</pdfrwt>
<totfact> 0.49828113E+02</totfact>
</mgrwt>
</event>
<event>
 4    1  0.5080671E-005  0.8557439E+03  0.7818608E-02  0.9482660E-01
          2   -1    0    0  501    0  0.00000000000E+00  0.00000000000E+00  0.88904184444E+02  0.88904184480E+02  0.25500000000E-02 0.  1.
         -2   -1    0    0    0  501 -0.00000000000E+00 -0.00000000000E+00 -0.20592324857E+04  0.20592324857E+04  0.25500000000E-02 0. -1.
    5000001    1    1    2    0    0  0.93618452305E+02 -0.36227842901E+03 -0.83743581449E+03  0.93856796138E+03  0.19900000000E+03 0.  0.
   -5000001    1    1    2    0    0 -0.93618452305E+02  0.36227842901E+03 -0.11328924868E+04  0.12095687088E+04  0.19900000000E+03 0.  0.
<mgrwt>
<rscale>  0 0.85574385E+03</rscale>
<asrwt>0</asrwt>
<pdfrwt beam="1">  1        2 0.12700599E-01 0.85574385E+03</pdfrwt>
<pdfrwt beam="2">  1       -2 0.29417604E+00 0.85574385E+03</pdfrwt>
<totfact> 0.17475237E+01</totfact>
</mgrwt>
</event>
<event>
 4    1  0.5080671E-005  0.5194192E+03  0.7818608E-02  0.1008831E+00
         -2   -1    0    0    0  501 -0.00000000000E+00  0.00000000000E+00  0.22528919580E+02  0.22528919724E+02  0.25500000000E-02 0. -1.
          2   -1    0    0  501    0  0.00000000000E+00 -0.00000000000E+00 -0.29938889728E+04  0.29938889728E+04  0.25500000000E-02 0.  1.
    5000001    1    1    2    0    0 -0.35993548226E+02  0.16060124785E+03 -0.13256064533E+04  0.13505264771E+04  0.19900000000E+03 0.  0.
   -5000001    1    1    2    0    0  0.35993548226E+02 -0.16060124785E+03 -0.16457536000E+04  0.16658914155E+04  0.19900000000E+03 0.  0.
<mgrwt>
<rscale>  0 0.51941923E+03</rscale>
<asrwt>0</asrwt>
<pdfrwt beam="1">  1        2 0.42769817E+00 0.51941923E+03</pdfrwt>
<pdfrwt beam="2">  1       -2 0.32184190E-02 0.51941923E+03</pdfrwt>
<totfact> 0.10337184E+03</totfact>
</mgrwt>
</event>
<event>
 4    1  0.5080671E-005  0.7887384E+03  0.7818608E-02  0.9576462E-01
          2   -1    0    0  501    0  0.00000000000E+00  0.00000000000E+00  0.62504712809E+03  0.62504712810E+03  0.25500000000E-02 0.  1.
         -2   -1    0    0    0  501 -0.00000000000E+00 -0.00000000000E+00 -0.24882453608E+03  0.24882453609E+03  0.25500000000E-02 0. -1.
    5000001    1    1    2    0    0  0.12029728120E+03  0.31530070441E+03  0.23815385545E+03  0.45848034737E+03  0.19900000000E+03 0.  0.
   -5000001    1    1    2    0    0 -0.12029728120E+03 -0.31530070441E+03  0.13806873657E+03  0.41539131681E+03  0.19900000000E+03 0.  0.
<mgrwt>
<rscale>  0 0.78873839E+03</rscale>
<asrwt>0</asrwt>
<pdfrwt beam="1">  1        2 0.89292446E-01 0.78873839E+03</pdfrwt>
<pdfrwt beam="2">  1       -2 0.35546363E-01 0.78873839E+03</pdfrwt>
<totfact> 0.38585623E+02</totfact>
</mgrwt>
</event>
<event>
 4    1  0.5080671E-005  0.5197909E+03  0.7818608E-02  0.1008739E+00
          2   -1    0    0  501    0  0.00000000000E+00  0.00000000000E+00  0.38268564174E+03  0.38268564175E+03  0.25500000000E-02 0.  1.
         -2   -1    0    0    0  501 -0.00000000000E+00 -0.00000000000E+00 -0.17650424138E+03  0.17650424140E+03  0.25500000000E-02 0. -1.
    5000001    1    1    2    0    0  0.53478723011E+02 -0.15730183944E+03  0.83230750593E+02  0.27227229082E+03  0.19900000000E+03 0.  0.
   -5000001    1    1    2    0    0 -0.53478723011E+02  0.15730183944E+03  0.12295064977E+03  0.28691759232E+03  0.19900000000E+03 0.  0.
<mgrwt>
<rscale>  0 0.51979088E+03</rscale>
<asrwt>0</asrwt>
<pdfrwt beam="1">  1        2 0.54669377E-01 0.51979088E+03</pdfrwt>
<pdfrwt beam="2">  1       -2 0.25214892E-01 0.51979088E+03</pdfrwt>
<totfact> 0.12812105E+03</totfact>
</mgrwt>
</event>
<event>
 4    1  0.5080671E-005  0.4948302E+03  0.7818608E-02  0.1015137E+00
          2   -1    0    0  501    0  0.00000000000E+00  0.00000000000E+00  0.21516089019E+04  0.21516089019E+04  0.25500000000E-02 0.  1.
         -2   -1    0    0    0  501 -0.00000000000E+00 -0.00000000000E+00 -0.28450444209E+02  0.28450444323E+02  0.25500000000E-02 0. -1.
    5000001    1    1    2    0    0  0.12773836870E+03  0.41520763769E+02  0.79826286306E+03  0.83358602627E+03  0.19900000000E+03 0.  0.
   -5000001    1    1    2    0    0 -0.12773836870E+03 -0.41520763769E+02  0.13248955946E+04  0.13464733199E+04  0.19900000000E+03 0.  0.
<mgrwt>
<rscale>  0 0.49483019E+03</rscale>
<asrwt>0</asrwt>
<pdfrwt beam="1">  1        2 0.30737278E+00 0.49483019E+03</pdfrwt>
<pdfrwt beam="2">  1       -2 0.40643481E-02 0.49483019E+03</pdfrwt>
<totfact> 0.19732325E+03</totfact>
</mgrwt>
</event>
<event>
 4    1  0.5080671E-005  0.5979702E+03  0.7818608E-02  0.9909626E-01
         -2   -1    0    0    0  501 -0.00000000000E+00  0.00000000000E+00  0.48660338851E+02  0.48660338918E+02  0.25500000000E-02 0. -1.
          2   -1    0    0  501    0  0.00000000000E+00 -0.00000000000E+00 -0.18370624482E+04  0.18370624483E+04  0.25500000000E-02 0.  1.
    5000001    1    1    2    0    0  0.17620657255E+03 -0.11958912547E+03 -0.11043500320E+04  0.11421647466E+04  0.19900000000E+03 0.  0.
   -5000001    1    1    2    0    0 -0.17620657255E+03  0.11958912547E+03 -0.68405207739E+03  0.74355804058E+03  0.19900000000E+03 0.  0.
<mgrwt>
<rscale>  0 0.59797017E+03</rscale>
<asrwt>0</asrwt>
<pdfrwt beam="1">  1        2 0.26243745E+00 0.59797017E+03</pdfrwt>
<pdfrwt beam="2">  1       -2 0.69514781E-02 0.59797017E+03</pdfrwt>
<totfact> 0.12260531E+03</totfact>
</mgrwt>
</event>
<event>
 4    1  0.5080671E-005  0.4398778E+03  0.7818608E-02  0.1030784E+00
         -2   -1    0    0    0  501 -0.00000000000E+00  0.00000000000E+00  0.88835828789E+02  0.88835828826E+02  0.25500000000E-02 0. -1.
          2   -1    0    0  501    0  0.00000000000E+00 -0.00000000000E+00 -0.54452258255E+03  0.54452258256E+03  0.25500000000E-02 0.  1.
    5000001    1    1    2    0    0  0.85553633970E+02 -0.28896391678E+02 -0.19205825334E+03  0.29093263553E+03  0.19900000000E+03 0.  0.
   -5000001    1    1    2    0    0 -0.85553633970E+02  0.28896391678E+02 -0.26362850042E+03  0.34242577586E+03  0.19900000000E+03 0.  0.
<mgrwt>
<rscale>  0 0.43987778E+03</rscale>
<asrwt>0</asrwt>
<pdfrwt beam="1">  1        2 0.77788938E-01 0.43987778E+03</pdfrwt>
<pdfrwt beam="2">  1       -2 0.12690833E-01 0.43987778E+03</pdfrwt>
<totfact> 0.27941152E+03</totfact>
</mgrwt>
</event>
<event>
 4    1  0.5080671E-005  0.1352571E+04  0.7818608E-02  0.8988884E-01
          2   -1    0    0  501    0  0.00000000000E+00  0.00000000000E+00  0.21982283374E+04  0.21982283374E+04  0.25500000000E-02 0.  1.
         -2   -1    0    0    0  501 -0.00000000000E+00 -0.00000000000E+00 -0.20805945730E+03  0.20805945731E+03  0.25500000000E-02 0. -1.
    5000001    1    1    2    0    0  0.25521601874E+03 -0.59040589693E+03  0.11082583430E+04  0.12967466577E+04  0.19900000000E+03 0.  0.
   -5000001    1    1    2    0    0 -0.25521601874E+03  0.59040589693E+03  0.88191053710E+03  0.11095411370E+04  0.19900000000E+03 0.  0.
<mgrwt>
<rscale>  0 0.13525712E+04</rscale>
<asrwt>0</asrwt>
<pdfrwt beam="1">  1        2 0.31403263E+00 0.13525712E+04</pdfrwt>
<pdfrwt beam="2">  1       -2 0.29722779E-01 0.13525712E+04</pdfrwt>
<totfact> 0.64683994E+01</totfact>
</mgrwt>
</event>
<event>
 4    1  0.5080671E-005  0.4890678E+03  0.7818608E-02  0.1016672E+00
         -2   -1    0    0    0  501 -0.00000000000E+00  0.00000000000E+00  0.13644490166E+03  0.13644490168E+03  0.25500000000E-02 0. -1.
          2   -1    0    0  501    0  0.00000000000E+00 -0.00000000000E+00 -0.43824891162E+03  0.43824891163E+03  0.25500000000E-02 0.  1.
    5000001    1    1    2    0    0 -0.95873752340E+02  0.10489320781E+03 -0.15232585267E+03  0.28809464907E+03  0.19900000000E+03 0.  0.
   -5000001    1    1    2    0    0  0.95873752340E+02 -0.10489320781E+03 -0.14947815729E+03  0.28659916423E+03  0.19900000000E+03 0.  0.
<mgrwt>
<rscale>  0 0.48906781E+03</rscale>
<asrwt>0</asrwt>
<pdfrwt beam="1">  1        2 0.62606986E-01 0.48906781E+03</pdfrwt>
<pdfrwt beam="2">  1       -2 0.19492129E-01 0.48906781E+03</pdfrwt>
<totfact> 0.17339390E+03</totfact>
</mgrwt>
</event>
<event>
 4    1  0.5080671E-005  0.8057980E+03  0.7818608E-02  0.9551662E-01
          2   -1    0    0  501    0  0.00000000000E+00  0.00000000000E+00  0.17768572846E+04  0.17768572846E+04  0.25500000000E-02 0.  1.
         -2   -1    0    0    0  501 -0.00000000000E+00 -0.00000000000E+00 -0.91356579624E+02  0.91356579659E+02  0.25500000000E-02 0. -1.
    5000001    1    1    2    0    0  0.24402413485E+03 -0.23922543523E+03  0.10215882275E+04  0.10954542865E+04  0.19900000000E+03 0.  0.
   -5000001    1    1    2    0    0 -0.24402413485E+03  0.23922543523E+03  0.66391247740E+03  0.77275957768E+03  0.19900000000E+03 0.  0.
<mgrwt>
<rscale>  0 0.80579800E+03</rscale>
<asrwt>0</asrwt>
<pdfrwt beam="1">  1        2 0.25383675E+00 0.80579800E+03</pdfrwt>
<pdfrwt beam="2">  1       -2 0.13050940E-01 0.80579800E+03</pdfrwt>
<totfact> 0.46856341E+02</totfact>
</mgrwt>
</event>
<event>
 4    1  0.5080671E-005  0.8003409E+03  0.7818608E-02  0.9559524E-01
         -2   -1    0    0    0  501 -0.00000000000E+00  0.00000000000E+00  0.16995843302E+04  0.16995843302E+04  0.25500000000E-02 0. -1.
          2   -1    0    0  501    0  0.00000000000E+00 -0.00000000000E+00 -0.94220911742E+02  0.94220911776E+02  0.25500000000E-02 0.  1.
    5000001    1    1    2    0    0 -0.24214815023E+03  0.78507570803E+02  0.27354360368E+03  0.42335123532E+03  0.19900000000E+03 0.  0.
   -5000001    1    1    2    0    0  0.24214815023E+03 -0.78507570803E+02  0.13318198147E+04  0.13704540066E+04  0.19900000000E+03 0.  0.
<mgrwt>
<rscale>  0 0.80034089E+03</rscale>
<asrwt>0</asrwt>
<pdfrwt beam="1">  1        2 0.13460131E-01 0.80034089E+03</pdfrwt>
<pdfrwt beam="2">  1       -2 0.24279775E+00 0.80034089E+03</pdfrwt>
<totfact> 0.33332359E+01</totfact>
</mgrwt>
</event>
<event>
 4    1  0.5080671E-005  0.6757270E+03  0.7818608E-02  0.9759667E-01
         -2   -1    0    0    0  501 -0.00000000000E+00  0.00000000000E+00  0.27943950274E+03  0.27943950275E+03  0.25500000000E-02 0. -1.
          2   -1    0    0  501    0  0.00000000000E+00 -0.00000000000E+00 -0.40850250472E+03  0.40850250473E+03  0.25500000000E-02 0.  1.
    5000001    1    1    2    0    0  0.33184311773E+02  0.26336448626E+03  0.56721635457E+00  0.33175800353E+03  0.19900000000E+03 0.  0.
   -5000001    1    1    2    0    0 -0.33184311773E+02 -0.26336448626E+03 -0.12963021833E+03  0.35618400395E+03  0.19900000000E+03 0.  0.
<mgrwt>
<rscale>  0 0.67572698E+03</rscale>
<asrwt>0</asrwt>
<pdfrwt beam="1">  1        2 0.58357500E-01 0.67572698E+03</pdfrwt>
<pdfrwt beam="2">  1       -2 0.39919929E-01 0.67572698E+03</pdfrwt>
<totfact> 0.50482908E+02</totfact>
</mgrwt>
</event>
<event>
 4    1  0.5080671E-005  0.1291603E+04  0.7818608E-02  0.9036251E-01
         -2   -1    0    0    0  501 -0.00000000000E+00  0.00000000000E+00  0.52859577884E+03  0.52859577884E+03  0.25500000000E-02 0. -1.
          2   -1    0    0  501    0  0.00000000000E+00 -0.00000000000E+00 -0.78899498357E+03  0.78899498357E+03  0.25500000000E-02 0.  1.
    5000001    1    1    2    0    0  0.53635429094E+03  0.26437920015E+03  0.13655982459E+02  0.63036479339E+03  0.19900000000E+03 0.  0.
   -5000001    1    1    2    0    0 -0.53635429094E+03 -0.26437920015E+03 -0.27405518719E+03  0.68722596903E+03  0.19900000000E+03 0.  0.
<mgrwt>
<rscale>  0 0.12916028E+04</rscale>
<asrwt>0</asrwt>
<pdfrwt beam="1">  1        2 0.11271357E+00 0.12916028E+04</pdfrwt>
<pdfrwt beam="2">  1       -2 0.75513683E-01 0.12916028E+04</pdfrwt>
<totfact> 0.59778114E+01</totfact>
</mgrwt>
</event>
<event>
 4    1  0.5080671E-005  0.6154359E+03  0.7818608E-02  0.9873889E-01
          2   -1    0    0  501    0  0.00000000000E+00  0.00000000000E+00  0.13865748367E+04  0.13865748367E+04  0.25500000000E-02 0.  1.
         -2   -1    0    0    0  501 -0.00000000000E+00 -0.00000000000E+00 -0.68290817931E+02  0.68290817978E+02  0.25500000000E-02 0. -1.
    5000001    1    1    2    0    0 -0.18187222633E+03 -0.56728474954E+02  0.33506646214E+03  0.43378123592E+03  0.19900000000E+03 0.  0.
   -5000001    1    1    2    0    0  0.18187222633E+03  0.56728474954E+02  0.98321755665E+03  0.10210844188E+04  0.19900000000E+03 0.  0.
<mgrwt>
<rscale>  0 0.61543588E+03</rscale>
<asrwt>0</asrwt>
<pdfrwt beam="1">  1        2 0.19808209E+00 0.61543588E+03</pdfrwt>
<pdfrwt beam="2">  1       -2 0.97558326E-02 0.61543588E+03</pdfrwt>
<totfact> 0.12163097E+03</totfact>
</mgrwt>
</event>
<event>
 4    1  0.5080671E-005  0.8020611E+03  0.7818608E-02  0.9557039E-01
          2   -1    0    0  501    0  0.00000000000E+00  0.00000000000E+00  0.18864396735E+04  0.18864396735E+04  0.25500000000E-02 0.  1.
         -2   -1    0    0    0  501 -0.00000000000E+00 -0.00000000000E+00 -0.85253460116E+02  0.85253460154E+02  0.25500000000E-02 0. -1.
    5000001    1    1    2    0    0 -0.29346521838E+03  0.43685482003E+02  0.45271140945E+03  0.57669651983E+03  0.19900000000E+03 0.  0.
   -5000001    1    1    2    0    0  0.29346521838E+03 -0.43685482003E+02  0.13484748039E+04  0.13949966138E+04  0.19900000000E+03 0.  0.
<mgrwt>
<rscale>  0 0.80206112E+03</rscale>
<asrwt>0</asrwt>
<pdfrwt beam="1">  1        2 0.26949139E+00 0.80206112E+03</pdfrwt>
<pdfrwt beam="2">  1       -2 0.12179065E-01 0.80206112E+03</pdfrwt>
<totfact> 0.46237408E+02</totfact>
</mgrwt>
</event>
<event>
 4    1  0.5080671E-005  0.5012245E+03  0.7818608E-02  0.1013460E+00
          2   -1    0    0  501    0  0.00000000000E+00  0.00000000000E+00  0.33074814438E+04  0.33074814438E+04  0.25500000000E-02 0. -1.
         -2   -1    0    0    0  501 -0.00000000000E+00 -0.00000000000E+00 -0.18989225241E+02  0.18989225413E+02  0.25500000000E-02 0.  1.
    5000001    1    1    2    0    0  0.14221475729E+03 -0.37877269096E+02  0.13833149082E+04  0.14052831956E+04  0.19900000000E+03 0.  0.
   -5000001    1    1    2    0    0 -0.14221475729E+03  0.37877269096E+02  0.19051773104E+04  0.19211874736E+04  0.19900000000E+03 0.  0.
<mgrwt>
<rscale>  0 0.50122454E+03</rscale>
<asrwt>0</asrwt>
<pdfrwt beam="1">  1        2 0.47249741E+00 0.50122454E+03</pdfrwt>
<pdfrwt beam="2">  1       -2 0.27127461E-02 0.50122454E+03</pdfrwt>
<totfact> 0.89879254E+02</totfact>
</mgrwt>
</event>
<event>
 4    1  0.5080671E-005  0.9422618E+03  0.7818608E-02  0.9374241E-01
         -2   -1    0    0    0  501 -0.00000000000E+00  0.00000000000E+00  0.69854154335E+03  0.69854154336E+03  0.25500000000E-02 0. -1.
          2   -1    0    0  501    0  0.00000000000E+00 -0.00000000000E+00 -0.31775394588E+03  0.31775394589E+03  0.25500000000E-02 0.  1.
    5000001    1    1    2    0    0  0.17949565707E+03 -0.39569482962E+02  0.60613873788E+03  0.66391987804E+03  0.19900000000E+03 0.  0.
   -5000001    1    1    2    0    0 -0.17949565707E+03  0.39569482962E+02 -0.22535114041E+03  0.35237561121E+03  0.19900000000E+03 0.  0.
<mgrwt>
<rscale>  0 0.94226181E+03</rscale>
<asrwt>0</asrwt>
<pdfrwt beam="1">  1        2 0.45393422E-01 0.94226181E+03</pdfrwt>
<pdfrwt beam="2">  1       -2 0.99791646E-01 0.94226181E+03</pdfrwt>
<totfact> 0.93014936E+01</totfact>
</mgrwt>
</event>
<event>
 4    1  0.5080671E-005  0.5871614E+03  0.7818608E-02  0.9932406E-01
          2   -1    0    0  501    0  0.00000000000E+00  0.00000000000E+00  0.30532476944E+03  0.30532476945E+03  0.25500000000E-02 0.  1.
         -2   -1    0    0    0  501 -0.00000000000E+00 -0.00000000000E+00 -0.28228830984E+03  0.28228830985E+03  0.25500000000E-02 0. -1.
    5000001    1    1    2    0    0 -0.10907511612E+03 -0.98841931059E+02 -0.14646868710E+03  0.28761290756E+03  0.19900000000E+03 0.  0.
   -5000001    1    1    2    0    0  0.10907511612E+03  0.98841931059E+02  0.16950514670E+03  0.30000017175E+03  0.19900000000E+03 0.  0.
<mgrwt>
<rscale>  0 0.58716135E+03</rscale>
<asrwt>0</asrwt>
<pdfrwt beam="1">  1        2 0.43617824E-01 0.58716135E+03</pdfrwt>
<pdfrwt beam="2">  1       -2 0.40326902E-01 0.58716135E+03</pdfrwt>
<totfact> 0.68452992E+02</totfact>
</mgrwt>
</event>
<event>
 4    1  0.5080671E-005  0.5604897E+03  0.7818608E-02  0.9990947E-01
          2   -1    0    0  501    0  0.00000000000E+00  0.00000000000E+00  0.28889976459E+03  0.28889976460E+03  0.25500000000E-02 0.  1.
         -2   -1    0    0    0  501 -0.00000000000E+00 -0.00000000000E+00 -0.27184926300E+03  0.27184926302E+03  0.25500000000E-02 0. -1.
    5000001    1    1    2    0    0 -0.14600240246E+02  0.19568365529E+03 -0.12243160771E+02  0.27974301591E+03  0.19900000000E+03 0.  0.
   -5000001    1    1    2    0    0  0.14600240246E+02 -0.19568365529E+03  0.29293662361E+02  0.28100601171E+03  0.19900000000E+03 0.  0.
<mgrwt>
<rscale>  0 0.56048974E+03</rscale>
<asrwt>0</asrwt>
<pdfrwt beam="1">  1        2 0.41271395E-01 0.56048974E+03</pdfrwt>
<pdfrwt beam="2">  1       -2 0.38835609E-01 0.56048974E+03</pdfrwt>
<totfact> 0.78281072E+02</totfact>
</mgrwt>
</event>
<event>
 4    1  0.5080671E-005  0.5366984E+03  0.7818608E-02  0.1004620E+00
          2   -1    0    0  501    0  0.00000000000E+00  0.00000000000E+00  0.23103480561E+03  0.23103480562E+03  0.25500000000E-02 0.  1.
         -2   -1    0    0    0  501 -0.00000000000E+00 -0.00000000000E+00 -0.31169028951E+03  0.31169028952E+03  0.25500000000E-02 0. -1.
    5000001    1    1    2    0    0  0.72822293393E+02 -0.15009789576E+03 -0.10874724336E+03  0.28153050929E+03  0.19900000000E+03 0.  0.
   -5000001    1    1    2    0    0 -0.72822293393E+02  0.15009789576E+03  0.28091759462E+02  0.26119458585E+03  0.19900000000E+03 0.  0.
<mgrwt>
<rscale>  0 0.53669845E+03</rscale>
<asrwt>0</asrwt>
<pdfrwt beam="1">  1        2 0.33004973E-01 0.53669845E+03</pdfrwt>
<pdfrwt beam="2">  1       -2 0.44527184E-01 0.53669845E+03</pdfrwt>
<totfact> 0.76783689E+02</totfact>
</mgrwt>
</event>
<event>
 4    1  0.5080671E-005  0.4707187E+03  0.7818608E-02  0.1021718E+00
          2   -1    0    0  501    0  0.00000000000E+00  0.00000000000E+00  0.11734973948E+04  0.11734973948E+04  0.25500000000E-02 0.  1.
         -2   -1    0    0    0  501 -0.00000000000E+00 -0.00000000000E+00 -0.47204224503E+02  0.47204224572E+02  0.25500000000E-02 0. -1.
    5000001    1    1    2    0    0 -0.10609680446E+03  0.46371239340E+02  0.68982494354E+03  0.72723192758E+03  0.19900000000E+03 0.  0.
   -5000001    1    1    2    0    0  0.10609680446E+03 -0.46371239340E+02  0.43646822674E+03  0.49346969178E+03  0.19900000000E+03 0.  0.
<mgrwt>
<rscale>  0 0.47071875E+03</rscale>
<asrwt>0</asrwt>
<pdfrwt beam="1">  1        2 0.16764247E+00 0.47071875E+03</pdfrwt>
<pdfrwt beam="2">  1       -2 0.67434614E-02 0.47071875E+03</pdfrwt>
<totfact> 0.28695204E+03</totfact>
</mgrwt>
</event>
<event>
 4    1  0.5080671E-005  0.5516920E+03  0.7818608E-02  0.1001103E+00
         -2   -1    0    0    0  501 -0.00000000000E+00  0.00000000000E+00  0.58427293655E+02  0.58427293710E+02  0.25500000000E-02 0. -1.
          2   -1    0    0  501    0  0.00000000000E+00 -0.00000000000E+00 -0.13023195315E+04  0.13023195315E+04  0.25500000000E-02 0.  1.
    5000001    1    1    2    0    0 -0.15802916523E+03  0.58870067272E+02 -0.40063237443E+03  0.47806505972E+03  0.19900000000E+03 0.  0.
   -5000001    1    1    2    0    0  0.15802916523E+03 -0.58870067272E+02 -0.84325986336E+03  0.88268176544E+03  0.19900000000E+03 0.  0.
<mgrwt>
<rscale>  0 0.55169196E+03</rscale>
<asrwt>0</asrwt>
<pdfrwt beam="1">  1        2 0.18604563E+00 0.55169196E+03</pdfrwt>
<pdfrwt beam="2">  1       -2 0.83467570E-02 0.55169196E+03</pdfrwt>
<totfact> 0.17376716E+03</totfact>
</mgrwt>
</event>
<event>
 4    1  0.5080671E-005  0.1524360E+04  0.7818608E-02  0.8868414E-01
         -2   -1    0    0    0  501 -0.00000000000E+00  0.00000000000E+00  0.36582240842E+03  0.36582240843E+03  0.25500000000E-02 0. -1.
          2   -1    0    0  501    0  0.00000000000E+00 -0.00000000000E+00 -0.15879790559E+04  0.15879790559E+04  0.25500000000E-02 0.  1.
    5000001    1    1    2    0    0 -0.19355799561E+03  0.51172150182E+03  0.19435995821E+02  0.58249665322E+03  0.19900000000E+03 0.  0.
   -5000001    1    1    2    0    0  0.19355799561E+03 -0.51172150182E+03 -0.12415926433E+04  0.13713048111E+04  0.19900000000E+03 0.  0.
<mgrwt>
<rscale>  0 0.15243600E+04</rscale>
<asrwt>0</asrwt>
<pdfrwt beam="1">  1        2 0.22685415E+00 0.15243600E+04</pdfrwt>
<pdfrwt beam="2">  1       -2 0.52260345E-01 0.15243600E+04</pdfrwt>
<totfact> 0.43826869E+01</totfact>
</mgrwt>
</event>
<event>
 4    1  0.5080671E-005  0.6067136E+03  0.7818608E-02  0.9891575E-01
          2   -1    0    0  501    0  0.00000000000E+00  0.00000000000E+00  0.12546647778E+04  0.12546647778E+04  0.25500000000E-02 0.  1.
         -2   -1    0    0    0  501 -0.00000000000E+00 -0.00000000000E+00 -0.73346558176E+02  0.73346558220E+02  0.25500000000E-02 0. -1.
    5000001    1    1    2    0    0  0.89137283534E+02 -0.72155927317E+02  0.15688678480E+03  0.27814815550E+03  0.19900000000E+03 0.  0.
   -5000001    1    1    2    0    0 -0.89137283534E+02  0.72155927317E+02  0.10244314348E+04  0.10498631805E+04  0.19900000000E+03 0.  0.
<mgrwt>
<rscale>  0 0.60671358E+03</rscale>
<asrwt>0</asrwt>
<pdfrwt beam="1">  1        2 0.17923783E+00 0.60671358E+03</pdfrwt>
<pdfrwt beam="2">  1       -2 0.10478079E-01 0.60671358E+03</pdfrwt>
<totfact> 0.12772130E+03</totfact>
</mgrwt>
</event>
<event>
 4    1  0.5080671E-005  0.5402399E+03  0.7818608E-02  0.1003779E+00
         -2   -1    0    0    0  501 -0.00000000000E+00  0.00000000000E+00  0.17818803866E+03  0.17818803867E+03  0.25500000000E-02 0. -1.
          2   -1    0    0  501    0  0.00000000000E+00 -0.00000000000E+00 -0.40948201601E+03  0.40948201602E+03  0.25500000000E-02 0.  1.
    5000001    1    1    2    0    0 -0.12049716296E+03  0.42712672756E+01  0.33606934752E+02  0.23509197364E+03  0.19900000000E+03 0.  0.
   -5000001    1    1    2    0    0  0.12049716296E+03 -0.42712672756E+01 -0.26490091210E+03  0.35257808105E+03  0.19900000000E+03 0.  0.
<mgrwt>
<rscale>  0 0.54023994E+03</rscale>
<asrwt>0</asrwt>
<pdfrwt beam="1">  1        2 0.58497431E-01 0.54023994E+03</pdfrwt>
<pdfrwt beam="2">  1       -2 0.25455434E-01 0.54023994E+03</pdfrwt>
<totfact> 0.11686250E+03</totfact>
</mgrwt>
</event>
<event>
 4    1  0.5080671E-005  0.1319604E+04  0.7818608E-02  0.9014162E-01
         -2   -1    0    0    0  501 -0.00000000000E+00  0.00000000000E+00  0.39566771147E+03  0.39566771148E+03  0.25500000000E-02 0.  1.
          2   -1    0    0  501    0  0.00000000000E+00 -0.00000000000E+00 -0.11002635145E+04  0.11002635145E+04  0.25500000000E-02 0. -1.
    5000001    1    1    2    0    0 -0.20271269937E+03  0.55391041603E+03 -0.60021793422E+03  0.86473796958E+03  0.19900000000E+03 0.  0.
   -5000001    1    1    2    0    0  0.20271269937E+03 -0.55391041603E+03 -0.10437786884E+03  0.63119325644E+03  0.19900000000E+03 0.  0.
<mgrwt>
<rscale>  0 0.13196041E+04</rscale>
<asrwt>0</asrwt>
<pdfrwt beam="1">  1        2 0.15718050E+00 0.13196041E+04</pdfrwt>
<pdfrwt beam="2">  1       -2 0.56523959E-01 0.13196041E+04</pdfrwt>
<totfact> 0.70260400E+01</totfact>
</mgrwt>
</event>
<event>
 4    1  0.5080671E-005  0.6210388E+03  0.7818608E-02  0.9862694E-01
         -2   -1    0    0    0  501 -0.00000000000E+00  0.00000000000E+00  0.56361079753E+02  0.56361079811E+02  0.25500000000E-02 0. -1.
          2   -1    0    0  501    0  0.00000000000E+00 -0.00000000000E+00 -0.17107955861E+04  0.17107955861E+04  0.25500000000E-02 0.  1.
    5000001    1    1    2    0    0  0.17942633199E+03 -0.15590771372E+03 -0.77629477426E+03  0.83590406169E+03  0.19900000000E+03 0.  0.
   -5000001    1    1    2    0    0 -0.17942633199E+03  0.15590771372E+03 -0.87813973213E+03  0.93125260427E+03  0.19900000000E+03 0.  0.
<mgrwt>
<rscale>  0 0.62103876E+03</rscale>
<asrwt>0</asrwt>
<pdfrwt beam="1">  1        2 0.24439934E+00 0.62103876E+03</pdfrwt>
<pdfrwt beam="2">  1       -2 0.80515839E-02 0.62103876E+03</pdfrwt>
<totfact> 0.11237625E+03</totfact>
</mgrwt>
</event>
<event>
 4    1  0.5080671E-005  0.6235009E+03  0.7818608E-02  0.9857814E-01
         -2   -1    0    0    0  501 -0.00000000000E+00  0.00000000000E+00  0.79202040173E+02  0.79202040214E+02  0.25500000000E-02 0. -1.
          2   -1    0    0  501    0  0.00000000000E+00 -0.00000000000E+00 -0.12270938664E+04  0.12270938664E+04  0.25500000000E-02 0.  1.
    5000001    1    1    2    0    0  0.19590357158E+03  0.28781233322E+02 -0.28990144767E+03  0.40354729352E+03  0.19900000000E+03 0.  0.
   -5000001    1    1    2    0    0 -0.19590357158E+03 -0.28781233322E+02 -0.85799037856E+03  0.90274861310E+03  0.19900000000E+03 0.  0.
<mgrwt>
<rscale>  0 0.62350088E+03</rscale>
<asrwt>0</asrwt>
<pdfrwt beam="1">  1        2 0.17529911E+00 0.62350088E+03</pdfrwt>
<pdfrwt beam="2">  1       -2 0.11314578E-01 0.62350088E+03</pdfrwt>
<totfact> 0.11663675E+03</totfact>
</mgrwt>
</event>
<event>
 4    1  0.5080671E-005  0.5767404E+03  0.7818608E-02  0.9954873E-01
         -2   -1    0    0    0  501 -0.00000000000E+00  0.00000000000E+00  0.16901408404E+03  0.16901408406E+03  0.25500000000E-02 0. -1.
          2   -1    0    0  501    0  0.00000000000E+00 -0.00000000000E+00 -0.49201443022E+03  0.49201443023E+03  0.25500000000E-02 0.  1.
    5000001    1    1    2    0    0  0.13366869492E+03 -0.95437775508E+02 -0.30908475493E+03  0.40262895416E+03  0.19900000000E+03 0.  0.
   -5000001    1    1    2    0    0 -0.13366869492E+03  0.95437775508E+02 -0.13915591247E+02  0.25839956013E+03  0.19900000000E+03 0.  0.
<mgrwt>
<rscale>  0 0.57674039E+03</rscale>
<asrwt>0</asrwt>
<pdfrwt beam="1">  1        2 0.70287775E-01 0.57674039E+03</pdfrwt>
<pdfrwt beam="2">  1       -2 0.24144869E-01 0.57674039E+03</pdfrwt>
<totfact> 0.10455765E+03</totfact>
</mgrwt>
</event>
<event>
 4    1  0.5080671E-005  0.7417197E+03  0.7818608E-02  0.9648431E-01
          2   -1    0    0  501    0  0.00000000000E+00  0.00000000000E+00  0.14615667385E+04  0.14615667385E+04  0.25500000000E-02 0.  1.
         -2   -1    0    0    0  501 -0.00000000000E+00 -0.00000000000E+00 -0.94102458820E+02  0.94102458854E+02  0.25500000000E-02 0. -1.
    5000001    1    1    2    0    0 -0.88814038126E+02 -0.22505980968E+02  0.13113420627E+04  0.13295162496E+04  0.19900000000E+03 0.  0.
   -5000001    1    1    2    0    0  0.88814038126E+02  0.22505980968E+02  0.56122217004E+02  0.22615294778E+03  0.19900000000E+03 0.  0.
<mgrwt>
<rscale>  0 0.74171969E+03</rscale>
<asrwt>0</asrwt>
<pdfrwt beam="1">  1        2 0.20879523E+00 0.74171969E+03</pdfrwt>
<pdfrwt beam="2">  1       -2 0.13443209E-01 0.74171969E+03</pdfrwt>
<totfact> 0.65177197E+02</totfact>
</mgrwt>
</event>
<event>
 4    1  0.5080671E-005  0.9066126E+03  0.7818608E-02  0.9417353E-01
         -2   -1    0    0    0  501 -0.00000000000E+00  0.00000000000E+00  0.44800558963E+03  0.44800558964E+03  0.25500000000E-02 0. -1.
          2   -1    0    0  501    0  0.00000000000E+00 -0.00000000000E+00 -0.45866970134E+03  0.45866970135E+03  0.25500000000E-02 0.  1.
    5000001    1    1    2    0    0 -0.37176795863E+03 -0.44248363625E+02  0.15504192994E+03  0.45145136259E+03  0.19900000000E+03 0.  0.
   -5000001    1    1    2    0    0  0.37176795863E+03  0.44248363625E+02 -0.16570604165E+03  0.45522392840E+03  0.19900000000E+03 0.  0.
<mgrwt>
<rscale>  0 0.90661257E+03</rscale>
<asrwt>0</asrwt>
<pdfrwt beam="1">  1        2 0.65524243E-01 0.90661257E+03</pdfrwt>
<pdfrwt beam="2">  1       -2 0.64000799E-01 0.90661257E+03</pdfrwt>
<totfact> 0.16782829E+02</totfact>
</mgrwt>
</event>
<event>
 4    1  0.5080671E-005  0.5554923E+03  0.7818608E-02  0.1000231E+00
          2   -1    0    0  501    0  0.00000000000E+00  0.00000000000E+00  0.28525688038E+04  0.28525688038E+04  0.25500000000E-02 0.  1.
         -2   -1    0    0    0  501 -0.00000000000E+00 -0.00000000000E+00 -0.27043317836E+02  0.27043317957E+02  0.25500000000E-02 0. -1.
    5000001    1    1    2    0    0 -0.11156456871E+03  0.70525805604E+02  0.67742838669E+03  0.71828320413E+03  0.19900000000E+03 0.  0.
   -5000001    1    1    2    0    0  0.11156456871E+03 -0.70525805604E+02  0.21480970993E+04  0.21613289176E+04  0.19900000000E+03 0.  0.
<mgrwt>
<rscale>  0 0.55549230E+03</rscale>
<asrwt>0</asrwt>
<pdfrwt beam="1">  1        2 0.40750950E+00 0.55549230E+03</pdfrwt>
<pdfrwt beam="2">  1       -2 0.38633342E-02 0.55549230E+03</pdfrwt>
<totfact> 0.92861039E+02</totfact>
</mgrwt>
</event>
<event>
 4    1  0.5080671E-005  0.8521094E+03  0.7818608E-02  0.9487510E-01
          2   -1    0    0  501    0  0.00000000000E+00  0.00000000000E+00  0.74878608098E+03  0.74878608098E+03  0.25500000000E-02 0.  1.
         -2   -1    0    0    0  501 -0.00000000000E+00 -0.00000000000E+00 -0.24242253322E+03  0.24242253324E+03  0.25500000000E-02 0. -1.
    5000001    1    1    2    0    0 -0.36153237488E+03 -0.59489987266E+02  0.35510254349E+03  0.54767100805E+03  0.19900000000E+03 0.  0.
   -5000001    1    1    2    0    0  0.36153237488E+03  0.59489987266E+02  0.15126100426E+03  0.44353760616E+03  0.19900000000E+03 0.  0.
<mgrwt>
<rscale>  0 0.85210943E+03</rscale>
<asrwt>0</asrwt>
<pdfrwt beam="1">  1        2 0.10696944E+00 0.85210943E+03</pdfrwt>
<pdfrwt beam="2">  1       -2 0.34631790E-01 0.85210943E+03</pdfrwt>
<totfact> 0.32407579E+02</totfact>
</mgrwt>
</event>
<event>
 4    1  0.5080671E-005  0.4510224E+03  0.7818608E-02  0.1027418E+00
          2   -1    0    0  501    0  0.00000000000E+00  0.00000000000E+00  0.83897803023E+03  0.83897803023E+03  0.25500000000E-02 0.  1.
         -2   -1    0    0    0  501 -0.00000000000E+00 -0.00000000000E+00 -0.60615765682E+02  0.60615765736E+02  0.25500000000E-02 0. -1.
    5000001    1    1    2    0    0  0.33516148213E+02 -0.93363283591E+02  0.46419008755E+03  0.51469745705E+03  0.19900000000E+03 0.  0.
   -5000001    1    1    2    0    0 -0.33516148213E+02  0.93363283591E+02  0.31417217699E+03  0.38489633892E+03  0.19900000000E+03 0.  0.
<mgrwt>
<rscale>  0 0.45102238E+03</rscale>
<asrwt>0</asrwt>
<pdfrwt beam="1">  1        2 0.11985400E+00 0.45102238E+03</pdfrwt>
<pdfrwt beam="2">  1       -2 0.86593958E-02 0.45102238E+03</pdfrwt>
<totfact> 0.30809390E+03</totfact>
</mgrwt>
</event>
<event>
 4    1  0.5080671E-005  0.5940622E+03  0.7818608E-02  0.9917802E-01
         -2   -1    0    0    0  501 -0.00000000000E+00  0.00000000000E+00  0.40431635938E+02  0.40431636018E+02  0.25500000000E-02 0. -1.
          2   -1    0    0  501    0  0.00000000000E+00 -0.00000000000E+00 -0.21821399350E+04  0.21821399350E+04  0.25500000000E-02 0.  1.
    5000001    1    1    2    0    0  0.12912809895E+03  0.16217452863E+03 -0.78958708535E+03  0.84025199138E+03  0.19900000000E+03 0.  0.
   -5000001    1    1    2    0    0 -0.12912809895E+03 -0.16217452863E+03 -0.13521212138E+04  0.13823195797E+04  0.19900000000E+03 0.  0.
<mgrwt>
<rscale>  0 0.59406224E+03</rscale>
<asrwt>0</asrwt>
<pdfrwt beam="1">  1        2 0.31173420E+00 0.59406224E+03</pdfrwt>
<pdfrwt beam="2">  1       -2 0.57759494E-02 0.59406224E+03</pdfrwt>
<totfact> 0.11003971E+03</totfact>
</mgrwt>
</event>
<event>
 4    1  0.5080671E-005  0.8465295E+03  0.7818608E-02  0.9495007E-01
         -2   -1    0    0    0  501 -0.00000000000E+00  0.00000000000E+00  0.25675018711E+03  0.25675018713E+03  0.25500000000E-02 0. -1.
          2   -1    0    0  501    0  0.00000000000E+00 -0.00000000000E+00 -0.69777186887E+03  0.69777186887E+03  0.25500000000E-02 0.  1.
    5000001    1    1    2    0    0 -0.25746904918E+02  0.35996811685E+03 -0.11170106893E+03  0.42698720948E+03  0.19900000000E+03 0.  0.
   -5000001    1    1    2    0    0  0.25746904918E+02 -0.35996811685E+03 -0.32932061282E+03  0.52753484652E+03  0.19900000000E+03 0.  0.
<mgrwt>
<rscale>  0 0.84652952E+03</rscale>
<asrwt>0</asrwt>
<pdfrwt beam="1">  1        2 0.99681695E-01 0.84652952E+03</pdfrwt>
<pdfrwt beam="2">  1       -2 0.36678599E-01 0.84652952E+03</pdfrwt>
<totfact> 0.31719767E+02</totfact>
</mgrwt>
</event>
<event>
 4    1  0.5080671E-005  0.8311495E+03  0.7818608E-02  0.9515993E-01
          2   -1    0    0  501    0  0.00000000000E+00  0.00000000000E+00  0.44176989500E+03  0.44176989501E+03  0.25500000000E-02 0.  1.
         -2   -1    0    0    0  501 -0.00000000000E+00 -0.00000000000E+00 -0.39093291041E+03  0.39093291042E+03  0.25500000000E-02 0. -1.
    5000001    1    1    2    0    0 -0.36341787172E+03  0.26919581422E+02  0.79452153626E+01  0.41528464912E+03  0.19900000000E+03 0.  0.
   -5000001    1    1    2    0    0  0.36341787172E+03 -0.26919581422E+02  0.42891769230E+02  0.41741815631E+03  0.19900000000E+03 0.  0.
<mgrwt>
<rscale>  0 0.83114954E+03</rscale>
<asrwt>0</asrwt>
<pdfrwt beam="1">  1        2 0.63109985E-01 0.83114954E+03</pdfrwt>
<pdfrwt beam="2">  1       -2 0.55847559E-01 0.83114954E+03</pdfrwt>
<totfact> 0.23421721E+02</totfact>
</mgrwt>
</event>
<event>
 4    1  0.5080671E-005  0.5403552E+03  0.7818608E-02  0.1003751E+00
          2   -1    0    0  501    0  0.00000000000E+00  0.00000000000E+00  0.80381710675E+03  0.80381710675E+03  0.25500000000E-02 0.  1.
         -2   -1    0    0    0  501 -0.00000000000E+00 -0.00000000000E+00 -0.90811619760E+02  0.90811619796E+02  0.25500000000E-02 0. -1.
    5000001    1    1    2    0    0  0.45254388859E+01 -0.17367948034E+03  0.26270147332E+03  0.37255617774E+03  0.19900000000E+03 0.  0.
   -5000001    1    1    2    0    0 -0.45254388859E+01  0.17367948034E+03  0.45030401367E+03  0.52207254881E+03  0.19900000000E+03 0.  0.
<mgrwt>
<rscale>  0 0.54035519E+03</rscale>
<asrwt>0</asrwt>
<pdfrwt beam="1">  1        2 0.11483102E+00 0.54035519E+03</pdfrwt>
<pdfrwt beam="2">  1       -2 0.12973088E-01 0.54035519E+03</pdfrwt>
<totfact> 0.16901593E+03</totfact>
</mgrwt>
</event>
<event>
 4    1  0.5080671E-005  0.1300280E+04  0.7818608E-02  0.9029343E-01
          2   -1    0    0  501    0  0.00000000000E+00  0.00000000000E+00  0.63099148092E+03  0.63099148093E+03  0.25500000000E-02 0.  1.
         -2   -1    0    0    0  501 -0.00000000000E+00 -0.00000000000E+00 -0.66986928367E+03  0.66986928367E+03  0.25500000000E-02 0. -1.
    5000001    1    1    2    0    0  0.19474489520E+03  0.53509616453E+03 -0.26209075596E+03  0.65768232747E+03  0.19900000000E+03 0.  0.
   -5000001    1    1    2    0    0 -0.19474489520E+03 -0.53509616453E+03  0.22321295322E+03  0.64317843713E+03  0.19900000000E+03 0.  0.
<mgrwt>
<rscale>  0 0.13002797E+04</rscale>
<asrwt>0</asrwt>
<pdfrwt beam="1">  1        2 0.90141640E-01 0.13002797E+04</pdfrwt>
<pdfrwt beam="2">  1       -2 0.95695612E-01 0.13002797E+04</pdfrwt>
<totfact> 0.45952577E+01</totfact>
</mgrwt>
</event>
<event>
 4    1  0.5080671E-005  0.6416880E+03  0.7818608E-02  0.9822502E-01
          2   -1    0    0  501    0  0.00000000000E+00  0.00000000000E+00  0.64403941835E+03  0.64403941835E+03  0.25500000000E-02 0.  1.
         -2   -1    0    0    0  501 -0.00000000000E+00 -0.00000000000E+00 -0.15983630540E+03  0.15983630542E+03  0.25500000000E-02 0. -1.
    5000001    1    1    2    0    0 -0.15388912486E+03 -0.15519846807E+03  0.39842696050E+03  0.49609824642E+03  0.19900000000E+03 0.  0.
   -5000001    1    1    2    0    0  0.15388912486E+03  0.15519846807E+03  0.85776152444E+02  0.30777747736E+03  0.19900000000E+03 0.  0.
<mgrwt>
<rscale>  0 0.64168803E+03</rscale>
<asrwt>0</asrwt>
<pdfrwt beam="1">  1        2 0.92005633E-01 0.64168803E+03</pdfrwt>
<pdfrwt beam="2">  1       -2 0.22833757E-01 0.64168803E+03</pdfrwt>
<totfact> 0.84347285E+02</totfact>
</mgrwt>
</event>
<event>
 4    1  0.5080671E-005  0.5631053E+03  0.7818608E-02  0.9985053E-01
         -2   -1    0    0    0  501 -0.00000000000E+00  0.00000000000E+00  0.37136818988E+03  0.37136818989E+03  0.25500000000E-02 0. -1.
          2   -1    0    0  501    0  0.00000000000E+00 -0.00000000000E+00 -0.21345900976E+03  0.21345900978E+03  0.25500000000E-02 0.  1.
    5000001    1    1    2    0    0 -0.14580020030E+03 -0.12408190717E+03  0.13599939828E+03  0.30781626732E+03  0.19900000000E+03 0.  0.
   -5000001    1    1    2    0    0  0.14580020030E+03  0.12408190717E+03  0.21909781831E+02  0.27701093234E+03  0.19900000000E+03 0.  0.
<mgrwt>
<rscale>  0 0.56310527E+03</rscale>
<asrwt>0</asrwt>
<pdfrwt beam="1">  1        2 0.30494144E-01 0.56310527E+03</pdfrwt>
<pdfrwt beam="2">  1       -2 0.53052599E-01 0.56310527E+03</pdfrwt>
<totfact> 0.58949330E+02</totfact>
</mgrwt>
</event>
<event>
 4    1  0.5080671E-005  0.4751546E+03  0.7818608E-02  0.1020475E+00
         -2   -1    0    0    0  501 -0.00000000000E+00  0.00000000000E+00  0.58205890604E+02  0.58205890660E+02  0.25500000000E-02 0. -1.
          2   -1    0    0  501    0  0.00000000000E+00 -0.00000000000E+00 -0.96971233069E+03  0.96971233069E+03  0.25500000000E-02 0.  1.
    5000001    1    1    2    0    0 -0.69831421578E+02  0.10896910478E+03 -0.43508498253E+03  0.49563155192E+03  0.19900000000E+03 0.  0.
   -5000001    1    1    2    0    0  0.69831421578E+02 -0.10896910478E+03 -0.47642145756E+03  0.53228666944E+03  0.19900000000E+03 0.  0.
<mgrwt>
<rscale>  0 0.47515458E+03</rscale>
<asrwt>0</asrwt>
<pdfrwt beam="1">  1        2 0.13853032E+00 0.47515458E+03</pdfrwt>
<pdfrwt beam="2">  1       -2 0.83151278E-02 0.47515458E+03</pdfrwt>
<totfact> 0.27125616E+03</totfact>
</mgrwt>
</event>
<event>
 4    1  0.5080671E-005  0.4816332E+03  0.7818608E-02  0.1018687E+00
          2   -1    0    0  501    0  0.00000000000E+00  0.00000000000E+00  0.29081047816E+04  0.29081047816E+04  0.25500000000E-02 0.  1.
         -2   -1    0    0    0  501 -0.00000000000E+00 -0.00000000000E+00 -0.19941726133E+02  0.19941726296E+02  0.25500000000E-02 0. -1.
    5000001    1    1    2    0    0 -0.69021125952E+02  0.83105162546E+02  0.19424911912E+04  0.19556439890E+04  0.19900000000E+03 0.  0.
   -5000001    1    1    2    0    0  0.69021125952E+02 -0.83105162546E+02  0.94567186432E+03  0.97240251894E+03  0.19900000000E+03 0.  0.
<mgrwt>
<rscale>  0 0.48163318E+03</rscale>
<asrwt>0</asrwt>
<pdfrwt beam="1">  1        2 0.41544359E+00 0.48163318E+03</pdfrwt>
<pdfrwt beam="2">  1       -2 0.28488177E-02 0.48163318E+03</pdfrwt>
<totfact> 0.13872642E+03</totfact>
</mgrwt>
</event>
<event>
 4    1  0.5080671E-005  0.5534538E+03  0.7818608E-02  0.1000698E+00
         -2   -1    0    0    0  501 -0.00000000000E+00  0.00000000000E+00  0.37631031870E+02  0.37631031957E+02  0.25500000000E-02 0. -1.
          2   -1    0    0  501    0  0.00000000000E+00 -0.00000000000E+00 -0.20349632894E+04  0.20349632894E+04  0.25500000000E-02 0.  1.
    5000001    1    1    2    0    0 -0.18422198105E+03 -0.33151330135E+02 -0.83372232620E+03  0.87734295814E+03  0.19900000000E+03 0.  0.
   -5000001    1    1    2    0    0  0.18422198105E+03  0.33151330135E+02 -0.11636099313E+04  0.11952513632E+04  0.19900000000E+03 0.  0.
<mgrwt>
<rscale>  0 0.55345377E+03</rscale>
<asrwt>0</asrwt>
<pdfrwt beam="1">  1        2 0.29070897E+00 0.55345377E+03</pdfrwt>
<pdfrwt beam="2">  1       -2 0.53758630E-02 0.55345377E+03</pdfrwt>
<totfact> 0.14621167E+03</totfact>
</mgrwt>
</event>
<event>
 4    1  0.5080671E-005  0.5408170E+03  0.7818608E-02  0.1003642E+00
         -2   -1    0    0    0  501 -0.00000000000E+00  0.00000000000E+00  0.14482559398E+04  0.14482559398E+04  0.25500000000E-02 0.  1.
          2   -1    0    0  501    0  0.00000000000E+00 -0.00000000000E+00 -0.50488841217E+02  0.50488841281E+02  0.25500000000E-02 0. -1.
    5000001    1    1    2    0    0 -0.12194807130E+03  0.13439107406E+03  0.63171427212E+03  0.68672863234E+03  0.19900000000E+03 0.  0.
   -5000001    1    1    2    0    0  0.12194807130E+03 -0.13439107406E+03  0.76605282645E+03  0.81201614873E+03  0.19900000000E+03 0.  0.
<mgrwt>
<rscale>  0 0.54081703E+03</rscale>
<asrwt>0</asrwt>
<pdfrwt beam="1">  1        2 0.72126912E-02 0.54081703E+03</pdfrwt>
<pdfrwt beam="2">  1       -2 0.20689372E+00 0.54081703E+03</pdfrwt>
<totfact> 0.12525646E+02</totfact>
</mgrwt>
</event>
<event>
 4    1  0.5080671E-005  0.5431473E+03  0.7818608E-02  0.1003093E+00
          2   -1    0    0  501    0  0.00000000000E+00  0.00000000000E+00  0.12206348166E+03  0.12206348169E+03  0.25500000000E-02 0.  1.
         -2   -1    0    0    0  501 -0.00000000000E+00 -0.00000000000E+00 -0.60421228316E+03  0.60421228317E+03  0.25500000000E-02 0. -1.
    5000001    1    1    2    0    0  0.17068029428E+03 -0.19776683411E+01 -0.33577321178E+03  0.42600507482E+03  0.19900000000E+03 0.  0.
   -5000001    1    1    2    0    0 -0.17068029428E+03  0.19776683411E+01 -0.14637558972E+03  0.30027069003E+03  0.19900000000E+03 0.  0.
<mgrwt>
<rscale>  0 0.54314733E+03</rscale>
<asrwt>0</asrwt>
<pdfrwt beam="1">  1        2 0.17437641E-01 0.54314733E+03</pdfrwt>
<pdfrwt beam="2">  1       -2 0.86316039E-01 0.54314733E+03</pdfrwt>
<totfact> 0.39295626E+02</totfact>
</mgrwt>
</event>
<event>
 4    1  0.5080671E-005  0.6508343E+03  0.7818608E-02  0.9805215E-01
          2   -1    0    0  501    0  0.00000000000E+00  0.00000000000E+00  0.11107746109E+04  0.11107746109E+04  0.25500000000E-02 0.  1.
         -2   -1    0    0    0  501 -0.00000000000E+00 -0.00000000000E+00 -0.95335565289E+02  0.95335565323E+02  0.25500000000E-02 0. -1.
    5000001    1    1    2    0    0  0.24903978569E+03  0.26068302885E+02  0.39660694558E+03  0.50950803777E+03  0.19900000000E+03 0.  0.
   -5000001    1    1    2    0    0 -0.24903978569E+03 -0.26068302885E+02  0.61883210006E+03  0.69660213848E+03  0.19900000000E+03 0.  0.
<mgrwt>
<rscale>  0 0.65083431E+03</rscale>
<asrwt>0</asrwt>
<pdfrwt beam="1">  1        2 0.15868209E+00 0.65083431E+03</pdfrwt>
<pdfrwt beam="2">  1       -2 0.13619367E-01 0.65083431E+03</pdfrwt>
<totfact> 0.99859697E+02</totfact>
</mgrwt>
</event>
<event>
 4    1  0.5080671E-005  0.5277486E+03  0.7818608E-02  0.1006780E+00
          2   -1    0    0  501    0  0.00000000000E+00  0.00000000000E+00  0.10554744519E+04  0.10554744519E+04  0.25500000000E-02 0.  1.
         -2   -1    0    0    0  501 -0.00000000000E+00 -0.00000000000E+00 -0.65969994396E+02  0.65969994446E+02  0.25500000000E-02 0. -1.
    5000001    1    1    2    0    0 -0.31166830273E+02 -0.15274286215E+03  0.65556114341E+03  0.70261167511E+03  0.19900000000E+03 0.  0.
   -5000001    1    1    2    0    0  0.31166830273E+02  0.15274286215E+03  0.33394331414E+03  0.41883277129E+03  0.19900000000E+03 0.  0.
<mgrwt>
<rscale>  0 0.52774859E+03</rscale>
<asrwt>0</asrwt>
<pdfrwt beam="1">  1        2 0.15078208E+00 0.52774859E+03</pdfrwt>
<pdfrwt beam="2">  1       -2 0.94242841E-02 0.52774859E+03</pdfrwt>
<totfact> 0.19713784E+03</totfact>
</mgrwt>
</event>
<event>
 4    1  0.5080671E-005  0.8740695E+03  0.7818608E-02  0.9458589E-01
          2   -1    0    0  501    0  0.00000000000E+00  0.00000000000E+00  0.41007252338E+04  0.41007252338E+04  0.25500000000E-02 0.  1.
         -2   -1    0    0    0  501 -0.00000000000E+00 -0.00000000000E+00 -0.46576972880E+02  0.46576972949E+02  0.25500000000E-02 0. -1.
    5000001    1    1    2    0    0  0.27675374587E+03  0.26308449235E+03  0.23818991704E+04  0.24205062991E+04  0.19900000000E+03 0.  0.
   -5000001    1    1    2    0    0 -0.27675374587E+03 -0.26308449235E+03  0.16722490905E+04  0.17267959076E+04  0.19900000000E+03 0.  0.
<mgrwt>
<rscale>  0 0.87406949E+03</rscale>
<asrwt>0</asrwt>
<pdfrwt beam="1">  1        2 0.58581757E+00 0.87406949E+03</pdfrwt>
<pdfrwt beam="2">  1       -2 0.66538570E-02 0.87406949E+03</pdfrwt>
<totfact> 0.68507590E+01</totfact>
</mgrwt>
</event>
<event>
 4    1  0.5080671E-005  0.4389690E+03  0.7818608E-02  0.1031064E+00
          2   -1    0    0  501    0  0.00000000000E+00  0.00000000000E+00  0.35894057747E+03  0.35894057748E+03  0.25500000000E-02 0.  1.
         -2   -1    0    0    0  501 -0.00000000000E+00 -0.00000000000E+00 -0.13421008516E+03  0.13421008519E+03  0.25500000000E-02 0. -1.
    5000001    1    1    2    0    0 -0.89617740544E+02  0.14923452004E+02  0.13241135150E+03  0.25571041208E+03  0.19900000000E+03 0.  0.
   -5000001    1    1    2    0    0  0.89617740544E+02 -0.14923452004E+02  0.92319140810E+02  0.23744025059E+03  0.19900000000E+03 0.  0.
<mgrwt>
<rscale>  0 0.43896900E+03</rscale>
<asrwt>0</asrwt>
<pdfrwt beam="1">  1        2 0.51277226E-01 0.43896900E+03</pdfrwt>
<pdfrwt beam="2">  1       -2 0.19172869E-01 0.43896900E+03</pdfrwt>
<totfact> 0.22212677E+03</totfact>
</mgrwt>
</event>
<event>
 4    1  0.5080671E-005  0.5567985E+03  0.7818608E-02  0.9999325E-01
         -2   -1    0    0    0  501 -0.00000000000E+00  0.00000000000E+00  0.11166546227E+03  0.11166546230E+03  0.25500000000E-02 0.  1.
          2   -1    0    0  501    0  0.00000000000E+00 -0.00000000000E+00 -0.69409244848E+03  0.69409244848E+03  0.25500000000E-02 0. -1.
    5000001    1    1    2    0    0  0.12915260635E+03 -0.12590809423E+03 -0.18514879481E+03  0.32621207847E+03  0.19900000000E+03 0.  0.
   -5000001    1    1    2    0    0 -0.12915260635E+03  0.12590809423E+03 -0.39727819141E+03  0.47954583231E+03  0.19900000000E+03 0.  0.
<mgrwt>
<rscale>  0 0.55679854E+03</rscale>
<asrwt>0</asrwt>
<pdfrwt beam="1">  1        2 0.99156062E-01 0.55679854E+03</pdfrwt>
<pdfrwt beam="2">  1       -2 0.15952209E-01 0.55679854E+03</pdfrwt>
<totfact> 0.14356041E+03</totfact>
</mgrwt>
</event>
<event>
 4    1  0.5080671E-005  0.4909980E+03  0.7818608E-02  0.1016156E+00
         -2   -1    0    0    0  501 -0.00000000000E+00  0.00000000000E+00  0.57962941309E+02  0.57962941365E+02  0.25500000000E-02 0. -1.
          2   -1    0    0  501    0  0.00000000000E+00 -0.00000000000E+00 -0.10397981022E+04  0.10397981022E+04  0.25500000000E-02 0.  1.
    5000001    1    1    2    0    0  0.10440219995E+03  0.91396645057E+02 -0.40679803966E+03  0.47364418201E+03  0.19900000000E+03 0.  0.
   -5000001    1    1    2    0    0 -0.10440219995E+03 -0.91396645057E+02 -0.57503712119E+03  0.62411686151E+03  0.19900000000E+03 0.  0.
<mgrwt>
<rscale>  0 0.49099799E+03</rscale>
<asrwt>0</asrwt>
<pdfrwt beam="1">  1        2 0.14854257E+00 0.49099799E+03</pdfrwt>
<pdfrwt beam="2">  1       -2 0.82804209E-02 0.49099799E+03</pdfrwt>
<totfact> 0.24775268E+03</totfact>
</mgrwt>
</event>
<event>
 4    1  0.5080671E-005  0.7435250E+03  0.7818608E-02  0.9645564E-01
          2   -1    0    0  501    0  0.00000000000E+00  0.00000000000E+00  0.30950435892E+04  0.30950435892E+04  0.25500000000E-02 0.  1.
         -2   -1    0    0    0  501 -0.00000000000E+00 -0.00000000000E+00 -0.44654416432E+02  0.44654416505E+02  0.25500000000E-02 0. -1.
    5000001    1    1    2    0    0 -0.95364722434E+02  0.24192320821E+03  0.78188674624E+03  0.84768458338E+03  0.19900000000E+03 0.  0.
   -5000001    1    1    2    0    0  0.95364722434E+02 -0.24192320821E+03  0.22685024265E+04  0.22920134223E+04  0.19900000000E+03 0.  0.
<mgrwt>
<rscale>  0 0.74352502E+03</rscale>
<asrwt>0</asrwt>
<pdfrwt beam="1">  1        2 0.44214935E+00 0.74352502E+03</pdfrwt>
<pdfrwt beam="2">  1       -2 0.63791985E-02 0.74352502E+03</pdfrwt>
<totfact> 0.30900730E+02</totfact>
</mgrwt>
</event>
<event>
 4    1  0.5080671E-005  0.5940774E+03  0.7818608E-02  0.9917770E-01
          2   -1    0    0  501    0  0.00000000000E+00  0.00000000000E+00  0.12200267710E+04  0.12200267710E+04  0.25500000000E-02 0.  1.
         -2   -1    0    0    0  501 -0.00000000000E+00 -0.00000000000E+00 -0.72319713207E+02  0.72319713252E+02  0.25500000000E-02 0. -1.
    5000001    1    1    2    0    0 -0.92942718027E+02  0.18951895182E+03  0.71272423184E+03  0.76950153514E+03  0.19900000000E+03 0.  0.
   -5000001    1    1    2    0    0  0.92942718027E+02 -0.18951895182E+03  0.43498282591E+03  0.52284494907E+03  0.19900000000E+03 0.  0.
<mgrwt>
<rscale>  0 0.59407739E+03</rscale>
<asrwt>0</asrwt>
<pdfrwt beam="1">  1        2 0.17428954E+00 0.59407739E+03</pdfrwt>
<pdfrwt beam="2">  1       -2 0.10331387E-01 0.59407739E+03</pdfrwt>
<totfact> 0.13663265E+03</totfact>
</mgrwt>
</event>
<event>
 4    1  0.5080671E-005  0.4699756E+03  0.7818608E-02  0.1021927E+00
         -2   -1    0    0    0  501 -0.00000000000E+00  0.00000000000E+00  0.14125939121E+03  0.14125939123E+03  0.25500000000E-02 0. -1.
          2   -1    0    0  501    0  0.00000000000E+00 -0.00000000000E+00 -0.39090683943E+03  0.39090683944E+03  0.25500000000E-02 0.  1.
    5000001    1    1    2    0    0  0.44266379636E+01 -0.11532204802E+03 -0.70525203739E+02  0.24061083568E+03  0.19900000000E+03 0.  0.
   -5000001    1    1    2    0    0 -0.44266379636E+01  0.11532204802E+03 -0.17912224448E+03  0.29155539500E+03  0.19900000000E+03 0.  0.
<mgrwt>
<rscale>  0 0.46997558E+03</rscale>
<asrwt>0</asrwt>
<pdfrwt beam="1">  1        2 0.55843834E-01 0.46997558E+03</pdfrwt>
<pdfrwt beam="2">  1       -2 0.20179913E-01 0.46997558E+03</pdfrwt>
<totfact> 0.18525418E+03</totfact>
</mgrwt>
</event>
<event>
 4    1  0.5080671E-005  0.4604432E+03  0.7818608E-02  0.1024653E+00
          2   -1    0    0  501    0  0.00000000000E+00  0.00000000000E+00  0.15322894291E+04  0.15322894291E+04  0.25500000000E-02 0.  1.
         -2   -1    0    0    0  501 -0.00000000000E+00 -0.00000000000E+00 -0.34590054787E+02  0.34590054881E+02  0.25500000000E-02 0. -1.
    5000001    1    1    2    0    0  0.36362613753E+02  0.83445090942E+02  0.50545556381E+03  0.55079183896E+03  0.19900000000E+03 0.  0.
   -5000001    1    1    2    0    0 -0.36362613753E+02 -0.83445090942E+02  0.99224381049E+03  0.10160876450E+04  0.19900000000E+03 0.  0.
<mgrwt>
<rscale>  0 0.46044316E+03</rscale>
<asrwt>0</asrwt>
<pdfrwt beam="1">  1        2 0.21889849E+00 0.46044316E+03</pdfrwt>
<pdfrwt beam="2">  1       -2 0.49414364E-02 0.46044316E+03</pdfrwt>
<totfact> 0.29941730E+03</totfact>
</mgrwt>
</event>
<event>
 4    1  0.5080671E-005  0.1067440E+04  0.7818608E-02  0.9237521E-01
          2   -1    0    0  501    0  0.00000000000E+00  0.00000000000E+00  0.13141731971E+04  0.13141731971E+04  0.25500000000E-02 0.  1.
         -2   -1    0    0    0  501 -0.00000000000E+00 -0.00000000000E+00 -0.21675777560E+03  0.21675777561E+03  0.25500000000E-02 0. -1.
    5000001    1    1    2    0    0 -0.24220319055E+03  0.40747428201E+03  0.75434816598E+03  0.91287448838E+03  0.19900000000E+03 0.  0.
   -5000001    1    1    2    0    0  0.24220319055E+03 -0.40747428201E+03  0.34306725551E+03  0.61805648433E+03  0.19900000000E+03 0.  0.
<mgrwt>
<rscale>  0 0.10674404E+04</rscale>
<asrwt>0</asrwt>
<pdfrwt beam="1">  1        2 0.18773902E+00 0.10674404E+04</pdfrwt>
<pdfrwt beam="2">  1       -2 0.30965398E-01 0.10674404E+04</pdfrwt>
<totfact> 0.17685058E+02</totfact>
</mgrwt>
</event>
<event>
 4    1  0.5080671E-005  0.5164890E+03  0.7818608E-02  0.1009562E+00
          2   -1    0    0  501    0  0.00000000000E+00  0.00000000000E+00  0.36485178765E+03  0.36485178765E+03  0.25500000000E-02 0.  1.
         -2   -1    0    0    0  501 -0.00000000000E+00 -0.00000000000E+00 -0.18278716073E+03  0.18278716075E+03  0.25500000000E-02 0. -1.
    5000001    1    1    2    0    0  0.42395083693E+02 -0.15567620527E+03  0.12550136336E+03  0.28527883941E+03  0.19900000000E+03 0.  0.
   -5000001    1    1    2    0    0 -0.42395083693E+02  0.15567620527E+03  0.56563263549E+02  0.26236010900E+03  0.19900000000E+03 0.  0.
<mgrwt>
<rscale>  0 0.51648900E+03</rscale>
<asrwt>0</asrwt>
<pdfrwt beam="1">  1        2 0.52121684E-01 0.51648900E+03</pdfrwt>
<pdfrwt beam="2">  1       -2 0.26112451E-01 0.51648900E+03</pdfrwt>
<totfact> 0.12682067E+03</totfact>
</mgrwt>
</event>
<event>
 4    1  0.5080671E-005  0.7176443E+03  0.7818608E-02  0.9687525E-01
          2   -1    0    0  501    0  0.00000000000E+00  0.00000000000E+00  0.32054415923E+04  0.32054415923E+04  0.25500000000E-02 0.  1.
         -2   -1    0    0    0  501 -0.00000000000E+00 -0.00000000000E+00 -0.40167113699E+02  0.40167113780E+02  0.25500000000E-02 0. -1.
    5000001    1    1    2    0    0 -0.12334141216E+03 -0.18324021472E+03  0.24912412250E+04  0.25089188750E+04  0.19900000000E+03 0.  0.
   -5000001    1    1    2    0    0  0.12334141216E+03  0.18324021472E+03  0.67403325361E+03  0.73668983108E+03  0.19900000000E+03 0.  0.
<mgrwt>
<rscale>  0 0.71764430E+03</rscale>
<asrwt>0</asrwt>
<pdfrwt beam="1">  1        2 0.45792003E+00 0.71764430E+03</pdfrwt>
<pdfrwt beam="2">  1       -2 0.57381616E-02 0.71764430E+03</pdfrwt>
<totfact> 0.31739526E+02</totfact>
</mgrwt>
</event>
<event>
 4    1  0.5080671E-005  0.6753301E+03  0.7818608E-02  0.9760377E-01
         -2   -1    0    0    0  501 -0.00000000000E+00  0.00000000000E+00  0.84473296920E+02  0.84473296958E+02  0.25500000000E-02 0. -1.
          2   -1    0    0  501    0  0.00000000000E+00 -0.00000000000E+00 -0.13497482363E+04  0.13497482363E+04  0.25500000000E-02 0.  1.
    5000001    1    1    2    0    0 -0.43788109471E+02  0.18818384786E+03 -0.10416210400E+04  0.10779174134E+04  0.19900000000E+03 0.  0.
   -5000001    1    1    2    0    0  0.43788109471E+02 -0.18818384786E+03 -0.22365389939E+03  0.35630411988E+03  0.19900000000E+03 0.  0.
<mgrwt>
<rscale>  0 0.67533009E+03</rscale>
<asrwt>0</asrwt>
<pdfrwt beam="1">  1        2 0.19282116E+00 0.67533009E+03</pdfrwt>
<pdfrwt beam="2">  1       -2 0.12067615E-01 0.67533009E+03</pdfrwt>
<totfact> 0.89719612E+02</totfact>
</mgrwt>
</event>
<event>
 4    1  0.5080671E-005  0.8784210E+03  0.7818608E-02  0.9452966E-01
         -2   -1    0    0    0  501 -0.00000000000E+00  0.00000000000E+00  0.92081447772E+02  0.92081447808E+02  0.25500000000E-02 0. -1.
          2   -1    0    0  501    0  0.00000000000E+00 -0.00000000000E+00 -0.20949482906E+04  0.20949482906E+04  0.25500000000E-02 0.  1.
    5000001    1    1    2    0    0  0.72885516369E+02  0.36721053466E+03 -0.12869282674E+04  0.13549690921E+04  0.19900000000E+03 0.  0.
   -5000001    1    1    2    0    0 -0.72885516369E+02 -0.36721053466E+03 -0.71593857544E+03  0.83206064626E+03  0.19900000000E+03 0.  0.
<mgrwt>
<rscale>  0 0.87842102E+03</rscale>
<asrwt>0</asrwt>
<pdfrwt beam="1">  1        2 0.29927830E+00 0.87842102E+03</pdfrwt>
<pdfrwt beam="2">  1       -2 0.13154494E-01 0.87842102E+03</pdfrwt>
<totfact> 0.31711323E+02</totfact>
</mgrwt>
</event>
<event>
 4    1  0.5080671E-005  0.4491689E+03  0.7818608E-02  0.1027970E+00
         -2   -1    0    0    0  501 -0.00000000000E+00  0.00000000000E+00  0.59796018045E+02  0.59796018100E+02  0.25500000000E-02 0. -1.
          2   -1    0    0  501    0  0.00000000000E+00 -0.00000000000E+00 -0.84350383286E+03  0.84350383287E+03  0.25500000000E-02 0.  1.
    5000001    1    1    2    0    0 -0.37976070425E+02 -0.92789519512E+02 -0.33550532512E+03  0.40276159206E+03  0.19900000000E+03 0.  0.
   -5000001    1    1    2    0    0  0.37976070425E+02  0.92789519512E+02 -0.44820248970E+03  0.50053825891E+03  0.19900000000E+03 0.  0.
<mgrwt>
<rscale>  0 0.44916888E+03</rscale>
<asrwt>0</asrwt>
<pdfrwt beam="1">  1        2 0.12050054E+00 0.44916888E+03</pdfrwt>
<pdfrwt beam="2">  1       -2 0.85422888E-02 0.44916888E+03</pdfrwt>
<totfact> 0.31265714E+03</totfact>
</mgrwt>
</event>
<event>
 4    1  0.5080671E-005  0.7212106E+03  0.7818608E-02  0.9681631E-01
         -2   -1    0    0    0  501 -0.00000000000E+00  0.00000000000E+00  0.29052697984E+03  0.29052697985E+03  0.25500000000E-02 0. -1.
          2   -1    0    0  501    0  0.00000000000E+00 -0.00000000000E+00 -0.44758725800E+03  0.44758725800E+03  0.25500000000E-02 0.  1.
    5000001    1    1    2    0    0  0.36826156461E+02 -0.29547942537E+03 -0.35461546368E+02  0.35989273108E+03  0.19900000000E+03 0.  0.
   -5000001    1    1    2    0    0 -0.36826156461E+02  0.29547942537E+03 -0.12159873179E+03  0.37822150678E+03  0.19900000000E+03 0.  0.
<mgrwt>
<rscale>  0 0.72121058E+03</rscale>
<asrwt>0</asrwt>
<pdfrwt beam="1">  1        2 0.63941036E-01 0.72121058E+03</pdfrwt>
<pdfrwt beam="2">  1       -2 0.41503855E-01 0.72121058E+03</pdfrwt>
<totfact> 0.42183370E+02</totfact>
</mgrwt>
</event>
<event>
 4    1  0.5080671E-005  0.5076622E+03  0.7818608E-02  0.1011798E+00
          2   -1    0    0  501    0  0.00000000000E+00  0.00000000000E+00  0.15082289333E+04  0.15082289333E+04  0.25500000000E-02 0.  1.
         -2   -1    0    0    0  501 -0.00000000000E+00 -0.00000000000E+00 -0.42719122716E+02  0.42719122792E+02  0.25500000000E-02 0. -1.
    5000001    1    1    2    0    0  0.13437788903E+03 -0.68840186574E+02  0.87049895311E+03  0.90563006560E+03  0.19900000000E+03 0.  0.
   -5000001    1    1    2    0    0 -0.13437788903E+03  0.68840186574E+02  0.59501085747E+03  0.64531799049E+03  0.19900000000E+03 0.  0.
<mgrwt>
<rscale>  0 0.50766216E+03</rscale>
<asrwt>0</asrwt>
<pdfrwt beam="1">  1        2 0.21546122E+00 0.50766216E+03</pdfrwt>
<pdfrwt beam="2">  1       -2 0.61027334E-02 0.50766216E+03</pdfrwt>
<totfact> 0.22190328E+03</totfact>
</mgrwt>
</event>
<event>
 4    1  0.5080671E-005  0.4251965E+03  0.7818608E-02  0.1035388E+00
         -2   -1    0    0    0  501 -0.00000000000E+00  0.00000000000E+00  0.34361489712E+02  0.34361489807E+02  0.25500000000E-02 0. -1.
          2   -1    0    0  501    0  0.00000000000E+00 -0.00000000000E+00 -0.13153684599E+04  0.13153684599E+04  0.25500000000E-02 0.  1.
    5000001    1    1    2    0    0 -0.15215363580E+01 -0.51339112246E+02 -0.46782839438E+03  0.51098182562E+03  0.19900000000E+03 0.  0.
   -5000001    1    1    2    0    0  0.15215363580E+01  0.51339112246E+02 -0.81317857576E+03  0.83874812405E+03  0.19900000000E+03 0.  0.
<mgrwt>
<rscale>  0 0.42519652E+03</rscale>
<asrwt>0</asrwt>
<pdfrwt beam="1">  1        2 0.18790975E+00 0.42519652E+03</pdfrwt>
<pdfrwt beam="2">  1       -2 0.49087851E-02 0.42519652E+03</pdfrwt>
<totfact> 0.39279564E+03</totfact>
</mgrwt>
</event>
<event>
 4    1  0.5080671E-005  0.4943043E+03  0.7818608E-02  0.1015276E+00
          2   -1    0    0  501    0  0.00000000000E+00  0.00000000000E+00  0.96852393632E+03  0.96852393632E+03  0.25500000000E-02 0.  1.
         -2   -1    0    0    0  501 -0.00000000000E+00 -0.00000000000E+00 -0.63069367479E+02  0.63069367530E+02  0.25500000000E-02 0. -1.
    5000001    1    1    2    0    0  0.78002544153E+02 -0.93650065583E+02  0.62263786928E+03  0.66493131069E+03  0.19900000000E+03 0.  0.
   -5000001    1    1    2    0    0 -0.78002544153E+02  0.93650065583E+02  0.28281669956E+03  0.36666199316E+03  0.19900000000E+03 0.  0.
<mgrwt>
<rscale>  0 0.49430433E+03</rscale>
<asrwt>0</asrwt>
<pdfrwt beam="1">  1        2 0.13836057E+00 0.49430433E+03</pdfrwt>
<pdfrwt beam="2">  1       -2 0.90099093E-02 0.49430433E+03</pdfrwt>
<totfact> 0.23908945E+03</totfact>
</mgrwt>
</event>
<event>
 4    1  0.5080671E-005  0.4941473E+03  0.7818608E-02  0.1015318E+00
         -2   -1    0    0    0  501 -0.00000000000E+00  0.00000000000E+00  0.70933444372E+02  0.70933444418E+02  0.25500000000E-02 0. -1.
          2   -1    0    0  501    0  0.00000000000E+00 -0.00000000000E+00 -0.86060081598E+03  0.86060081598E+03  0.25500000000E-02 0.  1.
    5000001    1    1    2    0    0  0.44034378376E+02  0.12888894010E+03 -0.29343875115E+03  0.37981401506E+03  0.19900000000E+03 0.  0.
   -5000001    1    1    2    0    0 -0.44034378376E+02 -0.12888894010E+03 -0.49622862046E+03  0.55172024534E+03  0.19900000000E+03 0.  0.
<mgrwt>
<rscale>  0 0.49414727E+03</rscale>
<asrwt>0</asrwt>
<pdfrwt beam="1">  1        2 0.12294297E+00 0.49414727E+03</pdfrwt>
<pdfrwt beam="2">  1       -2 0.10133350E-01 0.49414727E+03</pdfrwt>
<totfact> 0.23179038E+03</totfact>
</mgrwt>
</event>
<event>
 4    1  0.5080671E-005  0.5665008E+03  0.7818608E-02  0.9977452E-01
         -2   -1    0    0    0  501 -0.00000000000E+00  0.00000000000E+00  0.93319709748E+02  0.93319709783E+02  0.25500000000E-02 0. -1.
          2   -1    0    0  501    0  0.00000000000E+00 -0.00000000000E+00 -0.85974101155E+03  0.85974101155E+03  0.25500000000E-02 0.  1.
    5000001    1    1    2    0    0  0.17815154338E+02 -0.77017586029E+02 -0.71266117371E+02  0.22567442870E+03  0.19900000000E+03 0.  0.
   -5000001    1    1    2    0    0 -0.17815154338E+02  0.77017586029E+02 -0.69515518443E+03  0.72738629264E+03  0.19900000000E+03 0.  0.
<mgrwt>
<rscale>  0 0.56650077E+03</rscale>
<asrwt>0</asrwt>
<pdfrwt beam="1">  1        2 0.12282014E+00 0.56650077E+03</pdfrwt>
<pdfrwt beam="2">  1       -2 0.13331388E-01 0.56650077E+03</pdfrwt>
<totfact> 0.14806815E+03</totfact>
</mgrwt>
</event>
<event>
 4    1  0.5080671E-005  0.5432245E+03  0.7818608E-02  0.1003074E+00
          2   -1    0    0  501    0  0.00000000000E+00  0.00000000000E+00  0.11771159318E+04  0.11771159318E+04  0.25500000000E-02 0.  1.
         -2   -1    0    0    0  501 -0.00000000000E+00 -0.00000000000E+00 -0.62672861845E+02  0.62672861897E+02  0.25500000000E-02 0. -1.
    5000001    1    1    2    0    0  0.13217998126E+03  0.12333174043E+03  0.46912569049E+03  0.54070526086E+03  0.19900000000E+03 0.  0.
   -5000001    1    1    2    0    0 -0.13217998126E+03 -0.12333174043E+03  0.64531737942E+03  0.69908353280E+03  0.19900000000E+03 0.  0.
<mgrwt>
<rscale>  0 0.54322454E+03</rscale>
<asrwt>0</asrwt>
<pdfrwt beam="1">  1        2 0.16815942E+00 0.54322454E+03</pdfrwt>
<pdfrwt beam="2">  1       -2 0.89532657E-02 0.54322454E+03</pdfrwt>
<totfact> 0.18213730E+03</totfact>
</mgrwt>
</event>
<event>
 4    1  0.5080671E-005  0.9602964E+03  0.7818608E-02  0.9353196E-01
         -2   -1    0    0    0  501 -0.00000000000E+00  0.00000000000E+00  0.21105834129E+03  0.21105834131E+03  0.25500000000E-02 0.  1.
          2   -1    0    0  501    0  0.00000000000E+00 -0.00000000000E+00 -0.10923154788E+04  0.10923154788E+04  0.25500000000E-02 0. -1.
    5000001    1    1    2    0    0  0.11833229141E+03 -0.39871545573E+03 -0.25871116481E+03  0.52868611919E+03  0.19900000000E+03 0.  0.
   -5000001    1    1    2    0    0 -0.11833229141E+03  0.39871545573E+03 -0.62254597271E+03  0.77468770093E+03  0.19900000000E+03 0.  0.
<mgrwt>
<rscale>  0 0.96029640E+03</rscale>
<asrwt>0</asrwt>
<pdfrwt beam="1">  1        2 0.15604507E+00 0.96029640E+03</pdfrwt>
<pdfrwt beam="2">  1       -2 0.30151192E-01 0.96029640E+03</pdfrwt>
<totfact> 0.25011918E+02</totfact>
</mgrwt>
</event>
<event>
 4    1  0.5080671E-005  0.1091016E+04  0.7818608E-02  0.9213992E-01
         -2   -1    0    0    0  501 -0.00000000000E+00  0.00000000000E+00  0.91233587146E+02  0.91233587181E+02  0.25500000000E-02 0. -1.
          2   -1    0    0  501    0  0.00000000000E+00 -0.00000000000E+00 -0.32617285227E+04  0.32617285227E+04  0.25500000000E-02 0.  1.
    5000001    1    1    2    0    0  0.34395924919E+03  0.32939462911E+03 -0.21278247885E+04  0.21895314835E+04  0.19900000000E+03 0.  0.
   -5000001    1    1    2    0    0 -0.34395924919E+03 -0.32939462911E+03 -0.10426701470E+04  0.11634306263E+04  0.19900000000E+03 0.  0.
<mgrwt>
<rscale>  0 0.10910164E+04</rscale>
<asrwt>0</asrwt>
<pdfrwt beam="1">  1        2 0.46596114E+00 0.10910164E+04</pdfrwt>
<pdfrwt beam="2">  1       -2 0.13033372E-01 0.10910164E+04</pdfrwt>
<totfact> 0.75369880E+01</totfact>
</mgrwt>
</event>
<event>
 4    1  0.5080671E-005  0.6861432E+03  0.7818608E-02  0.9741227E-01
         -2   -1    0    0    0  501 -0.00000000000E+00  0.00000000000E+00  0.45344259244E+03  0.45344259245E+03  0.25500000000E-02 0. -1.
          2   -1    0    0  501    0  0.00000000000E+00 -0.00000000000E+00 -0.25956568314E+03  0.25956568315E+03  0.25500000000E-02 0.  1.
    5000001    1    1    2    0    0  0.13546407905E+03  0.21393746444E+03  0.21979341094E+03  0.38991011643E+03  0.19900000000E+03 0.  0.
   -5000001    1    1    2    0    0 -0.13546407905E+03 -0.21393746444E+03 -0.25916501637E+02  0.32309815917E+03  0.19900000000E+03 0.  0.
<mgrwt>
<rscale>  0 0.68614324E+03</rscale>
<asrwt>0</asrwt>
<pdfrwt beam="1">  1        2 0.37080812E-01 0.68614324E+03</pdfrwt>
<pdfrwt beam="2">  1       -2 0.64777513E-01 0.68614324E+03</pdfrwt>
<totfact> 0.31116036E+02</totfact>
</mgrwt>
</event>
<event>
 4    1  0.5080671E-005  0.7666176E+03  0.7818608E-02  0.9609635E-01
         -2   -1    0    0    0  501 -0.00000000000E+00  0.00000000000E+00  0.17768438429E+03  0.17768438431E+03  0.25500000000E-02 0. -1.
          2   -1    0    0  501    0  0.00000000000E+00 -0.00000000000E+00 -0.82689102474E+03  0.82689102474E+03  0.25500000000E-02 0.  1.
    5000001    1    1    2    0    0 -0.45007740888E+02 -0.30538264736E+03 -0.46839163569E+03  0.59521087225E+03  0.19900000000E+03 0.  0.
   -5000001    1    1    2    0    0  0.45007740888E+02  0.30538264736E+03 -0.18081500475E+03  0.40936453681E+03  0.19900000000E+03 0.  0.
<mgrwt>
<rscale>  0 0.76661756E+03</rscale>
<asrwt>0</asrwt>
<pdfrwt beam="1">  1        2 0.11812729E+00 0.76661756E+03</pdfrwt>
<pdfrwt beam="2">  1       -2 0.25383484E-01 0.76661756E+03</pdfrwt>
<totfact> 0.50915874E+02</totfact>
</mgrwt>
</event>
<event>
 4    1  0.5080671E-005  0.4797770E+03  0.7818608E-02  0.1019196E+00
          2   -1    0    0  501    0  0.00000000000E+00  0.00000000000E+00  0.75980924131E+03  0.75980924132E+03  0.25500000000E-02 0.  1.
         -2   -1    0    0    0  501 -0.00000000000E+00 -0.00000000000E+00 -0.75738074380E+02  0.75738074423E+02  0.25500000000E-02 0. -1.
    5000001    1    1    2    0    0 -0.47489918300E+02  0.11879872290E+03  0.41119570353E+03  0.47439575832E+03  0.19900000000E+03 0.  0.
   -5000001    1    1    2    0    0  0.47489918300E+02 -0.11879872290E+03  0.27287546340E+03  0.36115155742E+03  0.19900000000E+03 0.  0.
<mgrwt>
<rscale>  0 0.47977699E+03</rscale>
<asrwt>0</asrwt>
<pdfrwt beam="1">  1        2 0.10854418E+00 0.47977699E+03</pdfrwt>
<pdfrwt beam="2">  1       -2 0.10819725E-01 0.47977699E+03</pdfrwt>
<totfact> 0.24425501E+03</totfact>
</mgrwt>
</event>
<event>
 4    1  0.5080671E-005  0.4374721E+03  0.7818608E-02  0.1031525E+00
         -2   -1    0    0    0  501 -0.00000000000E+00  0.00000000000E+00  0.84038496314E+02  0.84038496353E+02  0.25500000000E-02 0. -1.
          2   -1    0    0  501    0  0.00000000000E+00 -0.00000000000E+00 -0.56932784145E+03  0.56932784145E+03  0.25500000000E-02 0.  1.
    5000001    1    1    2    0    0  0.38169145668E+02 -0.46527679104E+02 -0.34418919000E+03  0.40210559200E+03  0.19900000000E+03 0.  0.
   -5000001    1    1    2    0    0 -0.38169145668E+02  0.46527679104E+02 -0.14110015513E+03  0.25126074580E+03  0.19900000000E+03 0.  0.
<mgrwt>
<rscale>  0 0.43747208E+03</rscale>
<asrwt>0</asrwt>
<pdfrwt beam="1">  1        2 0.81332547E-01 0.43747208E+03</pdfrwt>
<pdfrwt beam="2">  1       -2 0.12005500E-01 0.43747208E+03</pdfrwt>
<totfact> 0.29076418E+03</totfact>
</mgrwt>
</event>
<event>
 4    1  0.5080671E-005  0.4591797E+03  0.7818608E-02  0.1025019E+00
         -2   -1    0    0    0  501 -0.00000000000E+00  0.00000000000E+00  0.67203444998E+02  0.67203445047E+02  0.25500000000E-02 0. -1.
          2   -1    0    0  501    0  0.00000000000E+00 -0.00000000000E+00 -0.78435698355E+03  0.78435698355E+03  0.25500000000E-02 0.  1.
    5000001    1    1    2    0    0 -0.77630569717E+02 -0.83859513051E+02 -0.34525924294E+03  0.41456467302E+03  0.19900000000E+03 0.  0.
   -5000001    1    1    2    0    0  0.77630569717E+02  0.83859513051E+02 -0.37189429561E+03  0.43699575558E+03  0.19900000000E+03 0.  0.
<mgrwt>
<rscale>  0 0.45917967E+03</rscale>
<asrwt>0</asrwt>
<pdfrwt beam="1">  1        2 0.11205099E+00 0.45917967E+03</pdfrwt>
<pdfrwt beam="2">  1       -2 0.96004926E-02 0.45917967E+03</pdfrwt>
<totfact> 0.28462054E+03</totfact>
</mgrwt>
</event>
<event>
 4    1  0.5080671E-005  0.8217150E+03  0.7818608E-02  0.9529107E-01
          2   -1    0    0  501    0  0.00000000000E+00  0.00000000000E+00  0.22533379871E+04  0.22533379871E+04  0.25500000000E-02 0.  1.
         -2   -1    0    0    0  501 -0.00000000000E+00 -0.00000000000E+00 -0.74912812525E+02  0.74912812568E+02  0.25500000000E-02 0. -1.
    5000001    1    1    2    0    0 -0.30061140263E+03 -0.10240558701E+03  0.15662754708E+04  0.16104887364E+04  0.19900000000E+03 0.  0.
   -5000001    1    1    2    0    0  0.30061140263E+03  0.10240558701E+03  0.61214970379E+03  0.71776206329E+03  0.19900000000E+03 0.  0.
<mgrwt>
<rscale>  0 0.82171500E+03</rscale>
<asrwt>0</asrwt>
<pdfrwt beam="1">  1        2 0.32190547E+00 0.82171500E+03</pdfrwt>
<pdfrwt beam="2">  1       -2 0.10701829E-01 0.82171500E+03</pdfrwt>
<totfact> 0.37210703E+02</totfact>
</mgrwt>
</event>
<event>
 4    1  0.5080671E-005  0.5579640E+03  0.7818608E-02  0.9996672E-01
         -2   -1    0    0    0  501 -0.00000000000E+00  0.00000000000E+00  0.63311777256E+03  0.63311777256E+03  0.25500000000E-02 0. -1.
          2   -1    0    0  501    0  0.00000000000E+00 -0.00000000000E+00 -0.12293282919E+03  0.12293282922E+03  0.25500000000E-02 0.  1.
    5000001    1    1    2    0    0  0.13165984067E+03  0.14129833361E+03  0.21376054400E+03  0.35013440690E+03  0.19900000000E+03 0.  0.
   -5000001    1    1    2    0    0 -0.13165984067E+03 -0.14129833361E+03  0.29642439937E+03  0.40591619488E+03  0.19900000000E+03 0.  0.
<mgrwt>
<rscale>  0 0.55796401E+03</rscale>
<asrwt>0</asrwt>
<pdfrwt beam="1">  1        2 0.17561833E-01 0.55796401E+03</pdfrwt>
<pdfrwt beam="2">  1       -2 0.90445395E-01 0.55796401E+03</pdfrwt>
<totfact> 0.35012590E+02</totfact>
</mgrwt>
</event>
<event>
 4    1  0.5080671E-005  0.6212187E+03  0.7818608E-02  0.9862336E-01
         -2   -1    0    0    0  501 -0.00000000000E+00  0.00000000000E+00  0.47337977132E+02  0.47337977200E+02  0.25500000000E-02 0. -1.
          2   -1    0    0  501    0  0.00000000000E+00 -0.00000000000E+00 -0.20380709003E+04  0.20380709003E+04  0.25500000000E-02 0.  1.
    5000001    1    1    2    0    0  0.23000409446E+03 -0.48906527878E+02 -0.11289475694E+04  0.11702210673E+04  0.19900000000E+03 0.  0.
   -5000001    1    1    2    0    0 -0.23000409446E+03  0.48906527878E+02 -0.86178535371E+03  0.91518781013E+03  0.19900000000E+03 0.  0.
<mgrwt>
<rscale>  0 0.62121865E+03</rscale>
<asrwt>0</asrwt>
<pdfrwt beam="1">  1        2 0.29115293E+00 0.62121865E+03</pdfrwt>
<pdfrwt beam="2">  1       -2 0.67625694E-02 0.62121865E+03</pdfrwt>
<totfact> 0.10133694E+03</totfact>
</mgrwt>
</event>
<event>
 4    1  0.5080671E-005  0.7138310E+03  0.7818608E-02  0.9693867E-01
          2   -1    0    0  501    0  0.00000000000E+00  0.00000000000E+00  0.34659149915E+04  0.34659149915E+04  0.25500000000E-02 0.  1.
         -2   -1    0    0    0  501 -0.00000000000E+00 -0.00000000000E+00 -0.36754704619E+02  0.36754704707E+02  0.25500000000E-02 0. -1.
    5000001    1    1    2    0    0  0.12493431696E+03  0.26671709057E+03  0.18729047111E+04  0.19063367087E+04  0.19900000000E+03 0.  0.
   -5000001    1    1    2    0    0 -0.12493431696E+03 -0.26671709057E+03  0.15562555758E+04  0.15963329875E+04  0.19900000000E+03 0.  0.
<mgrwt>
<rscale>  0 0.71383102E+03</rscale>
<asrwt>0</asrwt>
<pdfrwt beam="1">  1        2 0.49513096E+00 0.71383102E+03</pdfrwt>
<pdfrwt beam="2">  1       -2 0.52506695E-02 0.71383102E+03</pdfrwt>
<totfact> 0.25790089E+02</totfact>
</mgrwt>
</event>
<event>
 4    1  0.5080671E-005  0.5497072E+03  0.7818608E-02  0.1001562E+00
         -2   -1    0    0    0  501 -0.00000000000E+00  0.00000000000E+00  0.25088119893E+03  0.25088119894E+03  0.25500000000E-02 0. -1.
          2   -1    0    0  501    0  0.00000000000E+00 -0.00000000000E+00 -0.30111667820E+03  0.30111667821E+03  0.25500000000E-02 0.  1.
    5000001    1    1    2    0    0 -0.19207532557E+02  0.17842820221E+03  0.36275889712E+02  0.27041170985E+03  0.19900000000E+03 0.  0.
   -5000001    1    1    2    0    0  0.19207532557E+02 -0.17842820221E+03 -0.86511368980E+02  0.28158616730E+03  0.19900000000E+03 0.  0.
<mgrwt>
<rscale>  0 0.54970724E+03</rscale>
<asrwt>0</asrwt>
<pdfrwt beam="1">  1        2 0.43016668E-01 0.54970724E+03</pdfrwt>
<pdfrwt beam="2">  1       -2 0.35840171E-01 0.54970724E+03</pdfrwt>
<totfact> 0.87215288E+02</totfact>
</mgrwt>
</event>
<event>
 4    1  0.5080671E-005  0.8096054E+03  0.7818608E-02  0.9546217E-01
         -2   -1    0    0    0  501 -0.00000000000E+00  0.00000000000E+00  0.83484816454E+02  0.83484816493E+02  0.25500000000E-02 0. -1.
          2   -1    0    0  501    0  0.00000000000E+00 -0.00000000000E+00 -0.19628147667E+04  0.19628147667E+04  0.25500000000E-02 0.  1.
    5000001    1    1    2    0    0  0.76188421696E+02 -0.27877152284E+03 -0.42946754507E+03  0.55458237424E+03  0.19900000000E+03 0.  0.
   -5000001    1    1    2    0    0 -0.76188421696E+02  0.27877152284E+03 -0.14498624052E+04  0.14917172089E+04  0.19900000000E+03 0.  0.
<mgrwt>
<rscale>  0 0.80960541E+03</rscale>
<asrwt>0</asrwt>
<pdfrwt beam="1">  1        2 0.28040208E+00 0.80960541E+03</pdfrwt>
<pdfrwt beam="2">  1       -2 0.11926404E-01 0.80960541E+03</pdfrwt>
<totfact> 0.43761965E+02</totfact>
</mgrwt>
</event>
<event>
 4    1  0.5080671E-005  0.8301396E+03  0.7818608E-02  0.9517388E-01
          2   -1    0    0  501    0  0.00000000000E+00  0.00000000000E+00  0.62506007742E+03  0.62506007742E+03  0.25500000000E-02 0.  1.
         -2   -1    0    0    0  501 -0.00000000000E+00 -0.00000000000E+00 -0.27562618723E+03  0.27562618724E+03  0.25500000000E-02 0. -1.
    5000001    1    1    2    0    0 -0.87454999896E+02 -0.21617671009E+03  0.47832030626E+03  0.56813032164E+03  0.19900000000E+03 0.  0.
   -5000001    1    1    2    0    0  0.87454999896E+02  0.21617671009E+03 -0.12888641607E+03  0.33255594302E+03  0.19900000000E+03 0.  0.
<mgrwt>
<rscale>  0 0.83013957E+03</rscale>
<asrwt>0</asrwt>
<pdfrwt beam="1">  1        2 0.89294296E-01 0.83013957E+03</pdfrwt>
<pdfrwt beam="2">  1       -2 0.39375170E-01 0.83013957E+03</pdfrwt>
<totfact> 0.31635383E+02</totfact>
</mgrwt>
</event>
<event>
 4    1  0.5080671E-005  0.1304653E+04  0.7818608E-02  0.9025883E-01
         -2   -1    0    0    0  501 -0.00000000000E+00  0.00000000000E+00  0.40797534420E+03  0.40797534421E+03  0.25500000000E-02 0. -1.
          2   -1    0    0  501    0  0.00000000000E+00 -0.00000000000E+00 -0.10430290763E+04  0.10430290763E+04  0.25500000000E-02 0.  1.
    5000001    1    1    2    0    0  0.55024492556E+03 -0.27425930684E+03 -0.41663855322E+03  0.76887991879E+03  0.19900000000E+03 0.  0.
   -5000001    1    1    2    0    0 -0.55024492556E+03  0.27425930684E+03 -0.21841517889E+03  0.68212450173E+03  0.19900000000E+03 0.  0.
<mgrwt>
<rscale>  0 0.13046534E+04</rscale>
<asrwt>0</asrwt>
<pdfrwt beam="1">  1        2 0.14900415E+00 0.13046534E+04</pdfrwt>
<pdfrwt beam="2">  1       -2 0.58282193E-01 0.13046534E+04</pdfrwt>
<totfact> 0.71377623E+01</totfact>
</mgrwt>
</event>
<event>
 4    1  0.5080671E-005  0.4895289E+03  0.7818608E-02  0.1016549E+00
          2   -1    0    0  501    0  0.00000000000E+00  0.00000000000E+00  0.86587169415E+03  0.86587169416E+03  0.25500000000E-02 0. -1.
         -2   -1    0    0    0  501 -0.00000000000E+00 -0.00000000000E+00 -0.69189967738E+02  0.69189967785E+02  0.25500000000E-02 0.  1.
    5000001    1    1    2    0    0  0.12943486994E+03  0.54326598521E+02  0.35140189319E+03  0.42753836717E+03  0.19900000000E+03 0.  0.
   -5000001    1    1    2    0    0 -0.12943486994E+03 -0.54326598521E+02  0.44527983323E+03  0.50752329478E+03  0.19900000000E+03 0.  0.
<mgrwt>
<rscale>  0 0.48952889E+03</rscale>
<asrwt>0</asrwt>
<pdfrwt beam="1">  1        2 0.12369595E+00 0.48952889E+03</pdfrwt>
<pdfrwt beam="2">  1       -2 0.98842818E-02 0.48952889E+03</pdfrwt>
<totfact> 0.23936605E+03</totfact>
</mgrwt>
</event>
<event>
 4    1  0.5080671E-005  0.6260317E+03  0.7818608E-02  0.9852823E-01
         -2   -1    0    0    0  501 -0.00000000000E+00  0.00000000000E+00  0.35812051194E+03  0.35812051195E+03  0.25500000000E-02 0. -1.
          2   -1    0    0  501    0  0.00000000000E+00 -0.00000000000E+00 -0.27359201574E+03  0.27359201575E+03  0.25500000000E-02 0.  1.
    5000001    1    1    2    0    0 -0.42047962157E+02 -0.22239678424E+03  0.12758655715E+03  0.32727311275E+03  0.19900000000E+03 0.  0.
   -5000001    1    1    2    0    0  0.42047962157E+02  0.22239678424E+03 -0.43058060945E+02  0.30443941495E+03  0.19900000000E+03 0.  0.
<mgrwt>
<rscale>  0 0.62603167E+03</rscale>
<asrwt>0</asrwt>
<pdfrwt beam="1">  1        2 0.39084573E-01 0.62603167E+03</pdfrwt>
<pdfrwt beam="2">  1       -2 0.51160073E-01 0.62603167E+03</pdfrwt>
<totfact> 0.48108951E+02</totfact>
</mgrwt>
</event>
<event>
 4    1  0.5080671E-005  0.4512817E+03  0.7818608E-02  0.1027341E+00
         -2   -1    0    0    0  501 -0.00000000000E+00  0.00000000000E+00  0.17070611448E+03  0.17070611450E+03  0.25500000000E-02 0. -1.
          2   -1    0    0  501    0  0.00000000000E+00 -0.00000000000E+00 -0.29825400747E+03  0.29825400748E+03  0.25500000000E-02 0.  1.
    5000001    1    1    2    0    0  0.71977895729E+02  0.76284867694E+02 -0.45401297697E+02  0.22948306331E+03  0.19900000000E+03 0.  0.
   -5000001    1    1    2    0    0 -0.71977895729E+02 -0.76284867694E+02 -0.82146595291E+02  0.23947705867E+03  0.19900000000E+03 0.  0.
<mgrwt>
<rscale>  0 0.45128165E+03</rscale>
<asrwt>0</asrwt>
<pdfrwt beam="1">  1        2 0.42607715E-01 0.45128165E+03</pdfrwt>
<pdfrwt beam="2">  1       -2 0.24386588E-01 0.45128165E+03</pdfrwt>
<totfact> 0.17867519E+03</totfact>
</mgrwt>
</event>
<event>
 4    1  0.5080671E-005  0.7744897E+03  0.7818608E-02  0.9597694E-01
          2   -1    0    0  501    0  0.00000000000E+00  0.00000000000E+00  0.83441889378E+03  0.83441889379E+03  0.25500000000E-02 0.  1.
         -2   -1    0    0    0  501 -0.00000000000E+00 -0.00000000000E+00 -0.17971615803E+03  0.17971615804E+03  0.25500000000E-02 0. -1.
    5000001    1    1    2    0    0 -0.55697637476E+02  0.32749593710E+03  0.32907968331E+03  0.50818328741E+03  0.19900000000E+03 0.  0.
   -5000001    1    1    2    0    0  0.55697637476E+02 -0.32749593710E+03  0.32562305244E+03  0.50595176442E+03  0.19900000000E+03 0.  0.
<mgrwt>
<rscale>  0 0.77448966E+03</rscale>
<asrwt>0</asrwt>
<pdfrwt beam="1">  1        2 0.11920270E+00 0.77448966E+03</pdfrwt>
<pdfrwt beam="2">  1       -2 0.25673738E-01 0.77448966E+03</pdfrwt>
<totfact> 0.49278839E+02</totfact>
</mgrwt>
</event>
<event>
 4    1  0.5080671E-005  0.7525983E+03  0.7818608E-02  0.9631283E-01
         -2   -1    0    0    0  501 -0.00000000000E+00  0.00000000000E+00  0.13980843187E+03  0.13980843189E+03  0.25500000000E-02 0. -1.
          2   -1    0    0  501    0  0.00000000000E+00 -0.00000000000E+00 -0.10128219991E+04  0.10128219991E+04  0.25500000000E-02 0.  1.
    5000001    1    1    2    0    0 -0.31354863078E+03 -0.58655255286E+02 -0.41244303330E+03  0.55808909553E+03  0.19900000000E+03 0.  0.
   -5000001    1    1    2    0    0  0.31354863078E+03  0.58655255286E+02 -0.46057053393E+03  0.59454133545E+03  0.19900000000E+03 0.  0.
<mgrwt>
<rscale>  0 0.75259831E+03</rscale>
<asrwt>0</asrwt>
<pdfrwt beam="1">  1        2 0.14468885E+00 0.75259831E+03</pdfrwt>
<pdfrwt beam="2">  1       -2 0.19972634E-01 0.75259831E+03</pdfrwt>
<totfact> 0.59201149E+02</totfact>
</mgrwt>
</event>
<event>
 4    1  0.5080671E-005  0.7287773E+03  0.7818608E-02  0.9669246E-01
         -2   -1    0    0    0  501 -0.00000000000E+00  0.00000000000E+00  0.48835996739E+03  0.48835996740E+03  0.25500000000E-02 0.  1.
          2   -1    0    0  501    0  0.00000000000E+00 -0.00000000000E+00 -0.27188777775E+03  0.27188777777E+03  0.25500000000E-02 0. -1.
    5000001    1    1    2    0    0 -0.26343469870E+03 -0.14910838208E+03  0.14926588380E+03  0.39180665404E+03  0.19900000000E+03 0.  0.
   -5000001    1    1    2    0    0  0.26343469870E+03  0.14910838208E+03  0.67206305844E+02  0.36844109113E+03  0.19900000000E+03 0.  0.
<mgrwt>
<rscale>  0 0.72877735E+03</rscale>
<asrwt>0</asrwt>
<pdfrwt beam="1">  1        2 0.38841111E-01 0.72877735E+03</pdfrwt>
<pdfrwt beam="2">  1       -2 0.69765709E-01 0.72877735E+03</pdfrwt>
<totfact> 0.25144905E+02</totfact>
</mgrwt>
</event>
<event>
 4    1  0.5080671E-005  0.5834958E+03  0.7818608E-02  0.9940251E-01
         -2   -1    0    0    0  501 -0.00000000000E+00  0.00000000000E+00  0.45156307351E+02  0.45156307423E+02  0.25500000000E-02 0. -1.
          2   -1    0    0  501    0  0.00000000000E+00 -0.00000000000E+00 -0.18849377298E+04  0.18849377298E+04  0.25500000000E-02 0.  1.
    5000001    1    1    2    0    0  0.14542035119E+03 -0.14623402307E+03 -0.11005941125E+04  0.11372949787E+04  0.19900000000E+03 0.  0.
   -5000001    1    1    2    0    0 -0.14542035119E+03  0.14623402307E+03 -0.73918730988E+03  0.79279905848E+03  0.19900000000E+03 0.  0.
<mgrwt>
<rscale>  0 0.58349577E+03</rscale>
<asrwt>0</asrwt>
<pdfrwt beam="1">  1        2 0.26927677E+00 0.58349577E+03</pdfrwt>
<pdfrwt beam="2">  1       -2 0.64509022E-02 0.58349577E+03</pdfrwt>
<totfact> 0.13057297E+03</totfact>
</mgrwt>
</event>
<event>
 4    1  0.5080671E-005  0.4948514E+03  0.7818608E-02  0.1015132E+00
          2   -1    0    0  501    0  0.00000000000E+00  0.00000000000E+00  0.23777538091E+04  0.23777538091E+04  0.25500000000E-02 0.  1.
         -2   -1    0    0    0  501 -0.00000000000E+00 -0.00000000000E+00 -0.25746769064E+02  0.25746769191E+02  0.25500000000E-02 0. -1.
    5000001    1    1    2    0    0  0.61956322525E+02 -0.12266662814E+03  0.92209772275E+03  0.95328426918E+03  0.19900000000E+03 0.  0.
   -5000001    1    1    2    0    0 -0.61956322525E+02  0.12266662814E+03  0.14299093172E+04  0.14502163091E+04  0.19900000000E+03 0.  0.
<mgrwt>
<rscale>  0 0.49485141E+03</rscale>
<asrwt>0</asrwt>
<pdfrwt beam="1">  1        2 0.33967879E+00 0.49485141E+03</pdfrwt>
<pdfrwt beam="2">  1       -2 0.36781134E-02 0.49485141E+03</pdfrwt>
<totfact> 0.17695884E+03</totfact>
</mgrwt>
</event>
<event>
 4    1  0.5080671E-005  0.5613486E+03  0.7818608E-02  0.9989008E-01
          2   -1    0    0  501    0  0.00000000000E+00  0.00000000000E+00  0.34885251040E+04  0.34885251040E+04  0.25500000000E-02 0.  1.
         -2   -1    0    0    0  501 -0.00000000000E+00 -0.00000000000E+00 -0.22582056302E+02  0.22582056446E+02  0.25500000000E-02 0. -1.
    5000001    1    1    2    0    0  0.13177281948E+03 -0.14259955007E+03  0.19734642530E+04  0.19929528006E+04  0.19900000000E+03 0.  0.
   -5000001    1    1    2    0    0 -0.13177281948E+03  0.14259955007E+03  0.14924787947E+04  0.15181543598E+04  0.19900000000E+03 0.  0.
<mgrwt>
<rscale>  0 0.56134863E+03</rscale>
<asrwt>0</asrwt>
<pdfrwt beam="1">  1        2 0.49836060E+00 0.56134863E+03</pdfrwt>
<pdfrwt beam="2">  1       -2 0.32260089E-02 0.56134863E+03</pdfrwt>
<totfact> 0.53909065E+02</totfact>
</mgrwt>
</event>
<event>
 4    1  0.5080671E-005  0.6281168E+03  0.7818608E-02  0.9848731E-01
         -2   -1    0    0    0  501 -0.00000000000E+00  0.00000000000E+00  0.45115825757E+02  0.45115825829E+02  0.25500000000E-02 0. -1.
          2   -1    0    0  501    0  0.00000000000E+00 -0.00000000000E+00 -0.21862101231E+04  0.21862101232E+04  0.25500000000E-02 0.  1.
    5000001    1    1    2    0    0  0.15374786124E+03 -0.45316879625E+02 -0.42190803026E+03  0.49325390056E+03  0.19900000000E+03 0.  0.
   -5000001    1    1    2    0    0 -0.15374786124E+03  0.45316879625E+02 -0.17191862671E+04  0.17380720484E+04  0.19900000000E+03 0.  0.
<mgrwt>
<rscale>  0 0.62811679E+03</rscale>
<asrwt>0</asrwt>
<pdfrwt beam="1">  1        2 0.31231567E+00 0.62811679E+03</pdfrwt>
<pdfrwt beam="2">  1       -2 0.64451193E-02 0.62811679E+03</pdfrwt>
<totfact> 0.92031101E+02</totfact>
</mgrwt>
</event>
<event>
 4    1  0.5080671E-005  0.5714164E+03  0.7818608E-02  0.9966549E-01
         -2   -1    0    0    0  501 -0.00000000000E+00  0.00000000000E+00  0.34671955378E+02  0.34671955472E+02  0.25500000000E-02 0. -1.
          2   -1    0    0  501    0  0.00000000000E+00 -0.00000000000E+00 -0.23543286201E+04  0.23543286201E+04  0.25500000000E-02 0.  1.
    5000001    1    1    2    0    0  0.47510307474E+02 -0.18241488164E+03 -0.14967884404E+04  0.15216796817E+04  0.19900000000E+03 0.  0.
   -5000001    1    1    2    0    0 -0.47510307474E+02  0.18241488164E+03 -0.82286822424E+03  0.86732089380E+03  0.19900000000E+03 0.  0.
<mgrwt>
<rscale>  0 0.57141640E+03</rscale>
<asrwt>0</asrwt>
<pdfrwt beam="1">  1        2 0.33633256E+00 0.57141640E+03</pdfrwt>
<pdfrwt beam="2">  1       -2 0.49531380E-02 0.57141640E+03</pdfrwt>
<totfact> 0.11457002E+03</totfact>
</mgrwt>
</event>
<event>
 4    1  0.5080671E-005  0.4975157E+03  0.7818608E-02  0.1014429E+00
         -2   -1    0    0    0  501 -0.00000000000E+00  0.00000000000E+00  0.64713755417E+02  0.64713755467E+02  0.25500000000E-02 0. -1.
          2   -1    0    0  501    0  0.00000000000E+00 -0.00000000000E+00 -0.95621799357E+03  0.95621799357E+03  0.25500000000E-02 0.  1.
    5000001    1    1    2    0    0 -0.20919892671E+02 -0.11435110216E+03 -0.63787619623E+03  0.67823363098E+03  0.19900000000E+03 0.  0.
   -5000001    1    1    2    0    0  0.20919892671E+02  0.11435110216E+03 -0.25362804192E+03  0.34269811806E+03  0.19900000000E+03 0.  0.
<mgrwt>
<rscale>  0 0.49751566E+03</rscale>
<asrwt>0</asrwt>
<pdfrwt beam="1">  1        2 0.13660256E+00 0.49751566E+03</pdfrwt>
<pdfrwt beam="2">  1       -2 0.92448228E-02 0.49751566E+03</pdfrwt>
<totfact> 0.23347755E+03</totfact>
</mgrwt>
</event>
<event>
 4    1  0.5080671E-005  0.5162365E+03  0.7818608E-02  0.1009626E+00
         -2   -1    0    0    0  501 -0.00000000000E+00  0.00000000000E+00  0.75236002175E+02  0.75236002218E+02  0.25500000000E-02 0. -1.
          2   -1    0    0  501    0  0.00000000000E+00 -0.00000000000E+00 -0.88554732227E+03  0.88554732227E+03  0.25500000000E-02 0.  1.
    5000001    1    1    2    0    0  0.87983891571E+02  0.27965223784E+02 -0.15200898720E+03  0.26689127207E+03  0.19900000000E+03 0.  0.
   -5000001    1    1    2    0    0 -0.87983891571E+02 -0.27965223784E+02 -0.65830233290E+03  0.69389205242E+03  0.19900000000E+03 0.  0.
<mgrwt>
<rscale>  0 0.51623654E+03</rscale>
<asrwt>0</asrwt>
<pdfrwt beam="1">  1        2 0.12650675E+00 0.51623654E+03</pdfrwt>
<pdfrwt beam="2">  1       -2 0.10748001E-01 0.51623654E+03</pdfrwt>
<totfact> 0.20293844E+03</totfact>
</mgrwt>
</event>
<event>
 4    1  0.5080671E-005  0.6014498E+03  0.7818608E-02  0.9902403E-01
         -2   -1    0    0    0  501 -0.00000000000E+00  0.00000000000E+00  0.89805997080E+02  0.89805997116E+02  0.25500000000E-02 0. -1.
          2   -1    0    0  501    0  0.00000000000E+00 -0.00000000000E+00 -0.10070092252E+04  0.10070092252E+04  0.25500000000E-02 0.  1.
    5000001    1    1    2    0    0  0.13316469115E+03 -0.16262586292E+03 -0.60736310804E+03  0.67280825743E+03  0.19900000000E+03 0.  0.
   -5000001    1    1    2    0    0 -0.13316469115E+03  0.16262586292E+03 -0.30984012006E+03  0.42400696487E+03  0.19900000000E+03 0.  0.
<mgrwt>
<rscale>  0 0.60144981E+03</rscale>
<asrwt>0</asrwt>
<pdfrwt beam="1">  1        2 0.14385845E+00 0.60144981E+03</pdfrwt>
<pdfrwt beam="2">  1       -2 0.12829429E-01 0.60144981E+03</pdfrwt>
<totfact> 0.12726050E+03</totfact>
</mgrwt>
</event>
<event>
 4    1  0.5080671E-005  0.1071938E+04  0.7818608E-02  0.9232983E-01
         -2   -1    0    0    0  501 -0.00000000000E+00  0.00000000000E+00  0.16359534854E+03  0.16359534856E+03  0.25500000000E-02 0. -1.
          2   -1    0    0  501    0  0.00000000000E+00 -0.00000000000E+00 -0.17559337043E+04  0.17559337043E+04  0.25500000000E-02 0.  1.
    5000001    1    1    2    0    0  0.12420645749E+03 -0.45458337745E+03 -0.50972114939E+03  0.72214260453E+03  0.19900000000E+03 0.  0.
   -5000001    1    1    2    0    0 -0.12420645749E+03  0.45458337745E+03 -0.10826172063E+04  0.11973864483E+04  0.19900000000E+03 0.  0.
<mgrwt>
<rscale>  0 0.10719377E+04</rscale>
<asrwt>0</asrwt>
<pdfrwt beam="1">  1        2 0.25084766E+00 0.10719377E+04</pdfrwt>
<pdfrwt beam="2">  1       -2 0.23370765E-01 0.10719377E+04</pdfrwt>
<totfact> 0.17269839E+02</totfact>
</mgrwt>
</event>
<event>
 4    1  0.5080671E-005  0.5232596E+03  0.7818608E-02  0.1007880E+00
          2   -1    0    0  501    0  0.00000000000E+00  0.00000000000E+00  0.66341031850E+03  0.66341031851E+03  0.25500000000E-02 0.  1.
         -2   -1    0    0    0  501 -0.00000000000E+00 -0.00000000000E+00 -0.10317919796E+03  0.10317919799E+03  0.25500000000E-02 0. -1.
    5000001    1    1    2    0    0  0.84435734513E+02 -0.14324327011E+03  0.22934191617E+03  0.34618888227E+03  0.19900000000E+03 0.  0.
   -5000001    1    1    2    0    0 -0.84435734513E+02  0.14324327011E+03  0.33088920436E+03  0.42040063423E+03  0.19900000000E+03 0.  0.
<mgrwt>
<rscale>  0 0.52325957E+03</rscale>
<asrwt>0</asrwt>
<pdfrwt beam="1">  1        2 0.94772906E-01 0.52325957E+03</pdfrwt>
<pdfrwt beam="2">  1       -2 0.14739885E-01 0.52325957E+03</pdfrwt>
<totfact> 0.17322322E+03</totfact>
</mgrwt>
</event>
<event>
 4    1  0.5080671E-005  0.6473405E+03  0.7818608E-02  0.9811782E-01
          2   -1    0    0  501    0  0.00000000000E+00  0.00000000000E+00  0.35515003089E+03  0.35515003090E+03  0.25500000000E-02 0.  1.
         -2   -1    0    0    0  501 -0.00000000000E+00 -0.00000000000E+00 -0.29498076338E+03  0.29498076339E+03  0.25500000000E-02 0. -1.
    5000001    1    1    2    0    0 -0.23233020480E+02  0.12113854245E+03 -0.19436718934E+03  0.30429249744E+03  0.19900000000E+03 0.  0.
   -5000001    1    1    2    0    0  0.23233020480E+02 -0.12113854245E+03  0.25453645684E+03  0.34583829685E+03  0.19900000000E+03 0.  0.
<mgrwt>
<rscale>  0 0.64734049E+03</rscale>
<asrwt>0</asrwt>
<pdfrwt beam="1">  1        2 0.50735719E-01 0.64734049E+03</pdfrwt>
<pdfrwt beam="2">  1       -2 0.42140109E-01 0.64734049E+03</pdfrwt>
<totfact> 0.53101398E+02</totfact>
</mgrwt>
</event>
<event>
 4    1  0.5080671E-005  0.4739274E+03  0.7818608E-02  0.1020818E+00
          2   -1    0    0  501    0  0.00000000000E+00  0.00000000000E+00  0.35350961034E+04  0.35350961034E+04  0.25500000000E-02 0.  1.
         -2   -1    0    0    0  501 -0.00000000000E+00 -0.00000000000E+00 -0.15884093797E+02  0.15884094002E+02  0.25500000000E-02 0. -1.
    5000001    1    1    2    0    0  0.86519780813E+02  0.94715765340E+02  0.16869426735E+04  0.17034768365E+04  0.19900000000E+03 0.  0.
   -5000001    1    1    2    0    0 -0.86519780813E+02 -0.94715765340E+02  0.18322693361E+04  0.18475033609E+04  0.19900000000E+03 0.  0.
<mgrwt>
<rscale>  0 0.47392741E+03</rscale>
<asrwt>0</asrwt>
<pdfrwt beam="1">  1        2 0.50501368E+00 0.47392741E+03</pdfrwt>
<pdfrwt beam="2">  1       -2 0.22691565E-02 0.47392741E+03</pdfrwt>
<totfact> 0.86974071E+02</totfact>
</mgrwt>
</event>
<event>
 4    1  0.5080671E-005  0.7581522E+03  0.7818608E-02  0.9622647E-01
          2   -1    0    0  501    0  0.00000000000E+00  0.00000000000E+00  0.17917989908E+04  0.17917989909E+04  0.25500000000E-02 0.  1.
         -2   -1    0    0    0  501 -0.00000000000E+00 -0.00000000000E+00 -0.80197989512E+02  0.80197989553E+02  0.25500000000E-02 0. -1.
    5000001    1    1    2    0    0 -0.29519873591E+03 -0.12884905210E+03  0.90221177971E+03  0.97843316959E+03  0.19900000000E+03 0.  0.
   -5000001    1    1    2    0    0  0.29519873591E+03  0.12884905210E+03  0.80938922163E+03  0.89356381081E+03  0.19900000000E+03 0.  0.
<mgrwt>
<rscale>  0 0.75815217E+03</rscale>
<asrwt>0</asrwt>
<pdfrwt beam="1">  1        2 0.25597128E+00 0.75815217E+03</pdfrwt>
<pdfrwt beam="2">  1       -2 0.11456856E-01 0.75815217E+03</pdfrwt>
<totfact> 0.57295031E+02</totfact>
</mgrwt>
</event>
<event>
 4    1  0.5080671E-005  0.6240579E+03  0.7818608E-02  0.9856713E-01
         -2   -1    0    0    0  501 -0.00000000000E+00  0.00000000000E+00  0.11425981503E+03  0.11425981506E+03  0.25500000000E-02 0. -1.
          2   -1    0    0  501    0  0.00000000000E+00 -0.00000000000E+00 -0.85211131033E+03  0.85211131034E+03  0.25500000000E-02 0.  1.
    5000001    1    1    2    0    0 -0.19639220312E+03 -0.13806385689E+03 -0.38655141619E+03  0.49664325565E+03  0.19900000000E+03 0.  0.
   -5000001    1    1    2    0    0  0.19639220312E+03  0.13806385689E+03 -0.35130007911E+03  0.46972786974E+03  0.19900000000E+03 0.  0.
<mgrwt>
<rscale>  0 0.62405795E+03</rscale>
<asrwt>0</asrwt>
<pdfrwt beam="1">  1        2 0.12173018E+00 0.62405795E+03</pdfrwt>
<pdfrwt beam="2">  1       -2 0.16322831E-01 0.62405795E+03</pdfrwt>
<totfact> 0.10650868E+03</totfact>
</mgrwt>
</event>
<event>
 4    1  0.5080671E-005  0.4551904E+03  0.7818608E-02  0.1026185E+00
          2   -1    0    0  501    0  0.00000000000E+00  0.00000000000E+00  0.11843074800E+04  0.11843074800E+04  0.25500000000E-02 0.  1.
         -2   -1    0    0    0  501 -0.00000000000E+00 -0.00000000000E+00 -0.43738274344E+02  0.43738274418E+02  0.25500000000E-02 0. -1.
    5000001    1    1    2    0    0 -0.83349018421E+02 -0.26436685695E+01  0.37490722802E+03  0.43256268619E+03  0.19900000000E+03 0.  0.
   -5000001    1    1    2    0    0  0.83349018421E+02  0.26436685695E+01  0.76566197758E+03  0.79548306819E+03  0.19900000000E+03 0.  0.
<mgrwt>
<rscale>  0 0.45519036E+03</rscale>
<asrwt>0</asrwt>
<pdfrwt beam="1">  1        2 0.16918677E+00 0.45519036E+03</pdfrwt>
<pdfrwt beam="2">  1       -2 0.62483254E-02 0.45519036E+03</pdfrwt>
<totfact> 0.31881335E+03</totfact>
</mgrwt>
</event>
<event>
 4    1  0.5080671E-005  0.9554083E+03  0.7818608E-02  0.9358851E-01
         -2   -1    0    0    0  501 -0.00000000000E+00  0.00000000000E+00  0.17593324023E+03  0.17593324025E+03  0.25500000000E-02 0. -1.
          2   -1    0    0  501    0  0.00000000000E+00 -0.00000000000E+00 -0.12970900003E+04  0.12970900003E+04  0.25500000000E-02 0.  1.
    5000001    1    1    2    0    0  0.41174318145E+03  0.12526131422E+03 -0.65017920269E+03  0.80470916480E+03  0.19900000000E+03 0.  0.
   -5000001    1    1    2    0    0 -0.41174318145E+03 -0.12526131422E+03 -0.47097755741E+03  0.66831407578E+03  0.19900000000E+03 0.  0.
<mgrwt>
<rscale>  0 0.95540828E+03</rscale>
<asrwt>0</asrwt>
<pdfrwt beam="1">  1        2 0.18529857E+00 0.95540828E+03</pdfrwt>
<pdfrwt beam="2">  1       -2 0.25133321E-01 0.95540828E+03</pdfrwt>
<totfact> 0.26699656E+02</totfact>
</mgrwt>
</event>
<event>
 4    1  0.5080671E-005  0.7029112E+03  0.7818608E-02  0.9712267E-01
          2   -1    0    0  501    0  0.00000000000E+00  0.00000000000E+00  0.18464528102E+04  0.18464528102E+04  0.25500000000E-02 0.  1.
         -2   -1    0    0    0  501 -0.00000000000E+00 -0.00000000000E+00 -0.66896394636E+02  0.66896394684E+02  0.25500000000E-02 0. -1.
    5000001    1    1    2    0    0 -0.19504183370E+03  0.21305532117E+03  0.82976061889E+03  0.90085380136E+03  0.19900000000E+03 0.  0.
   -5000001    1    1    2    0    0  0.19504183370E+03 -0.21305532117E+03  0.94979579664E+03  0.10124954035E+04  0.19900000000E+03 0.  0.
<mgrwt>
<rscale>  0 0.70291119E+03</rscale>
<asrwt>0</asrwt>
<pdfrwt beam="1">  1        2 0.26377895E+00 0.70291119E+03</pdfrwt>
<pdfrwt beam="2">  1       -2 0.95566286E-02 0.70291119E+03</pdfrwt>
<totfact> 0.72502211E+02</totfact>
</mgrwt>
</event>
<event>
 4    1  0.5080671E-005  0.5446615E+03  0.7818608E-02  0.1002737E+00
         -2   -1    0    0    0  501 -0.00000000000E+00  0.00000000000E+00  0.66084436850E+02  0.66084436899E+02  0.25500000000E-02 0.  1.
          2   -1    0    0  501    0  0.00000000000E+00 -0.00000000000E+00 -0.11222617511E+04  0.11222617511E+04  0.25500000000E-02 0. -1.
    5000001    1    1    2    0    0  0.11908930695E+03 -0.13727573393E+03 -0.61360172911E+03  0.67017532939E+03  0.19900000000E+03 0.  0.
   -5000001    1    1    2    0    0 -0.11908930695E+03  0.13727573393E+03 -0.44257558516E+03  0.51817085863E+03  0.19900000000E+03 0.  0.
<mgrwt>
<rscale>  0 0.54466149E+03</rscale>
<asrwt>0</asrwt>
<pdfrwt beam="1">  1        2 0.16032310E+00 0.54466149E+03</pdfrwt>
<pdfrwt beam="2">  1       -2 0.94406345E-02 0.54466149E+03</pdfrwt>
<totfact> 0.17971446E+03</totfact>
</mgrwt>
</event>
<event>
 4    1  0.5080671E-005  0.5586276E+03  0.7818608E-02  0.9995165E-01
         -2   -1    0    0    0  501 -0.00000000000E+00  0.00000000000E+00  0.64460414162E+02  0.64460414213E+02  0.25500000000E-02 0. -1.
          2   -1    0    0  501    0  0.00000000000E+00 -0.00000000000E+00 -0.12102961551E+04  0.12102961551E+04  0.25500000000E-02 0.  1.
    5000001    1    1    2    0    0  0.77954334585E+02 -0.64788473385E+02 -0.95571868629E+03  0.98146504364E+03  0.19900000000E+03 0.  0.
   -5000001    1    1    2    0    0 -0.77954334585E+02  0.64788473385E+02 -0.19011705464E+03  0.29329152567E+03  0.19900000000E+03 0.  0.
<mgrwt>
<rscale>  0 0.55862757E+03</rscale>
<asrwt>0</asrwt>
<pdfrwt beam="1">  1        2 0.17289944E+00 0.55862757E+03</pdfrwt>
<pdfrwt beam="2">  1       -2 0.92086313E-02 0.55862757E+03</pdfrwt>
<totfact> 0.16675744E+03</totfact>
</mgrwt>
</event>
<event>
 4    1  0.5080671E-005  0.7428763E+03  0.7818608E-02  0.9646593E-01
          2   -1    0    0  501    0  0.00000000000E+00  0.00000000000E+00  0.59788062237E+02  0.59788062291E+02  0.25500000000E-02 0.  1.
         -2   -1    0    0    0  501 -0.00000000000E+00 -0.00000000000E+00 -0.23075892636E+04  0.23075892636E+04  0.25500000000E-02 0. -1.
    5000001    1    1    2    0    0 -0.97736218959E+02  0.29713272794E+03 -0.11969231755E+04  0.12530228708E+04  0.19900000000E+03 0.  0.
   -5000001    1    1    2    0    0  0.97736218959E+02 -0.29713272794E+03 -0.10508780258E+04  0.11143544551E+04  0.19900000000E+03 0.  0.
<mgrwt>
<rscale>  0 0.74287628E+03</rscale>
<asrwt>0</asrwt>
<pdfrwt beam="1">  1        2 0.85411532E-02 0.74287628E+03</pdfrwt>
<pdfrwt beam="2">  1       -2 0.32965555E+00 0.74287628E+03</pdfrwt>
<totfact> 0.17834301E+01</totfact>
</mgrwt>
</event>
<event>
 4    1  0.5080671E-005  0.4413903E+03  0.7818608E-02  0.1030321E+00
          2   -1    0    0  501    0  0.00000000000E+00  0.00000000000E+00  0.34025676832E+03  0.34025676833E+03  0.25500000000E-02 0.  1.
         -2   -1    0    0    0  501 -0.00000000000E+00 -0.00000000000E+00 -0.14314588040E+03  0.14314588042E+03  0.25500000000E-02 0. -1.
    5000001    1    1    2    0    0  0.20550140328E+02  0.92889763319E+02  0.90467522871E+02  0.23840341669E+03  0.19900000000E+03 0.  0.
   -5000001    1    1    2    0    0 -0.20550140328E+02 -0.92889763319E+02  0.10664336505E+03  0.24499923205E+03  0.19900000000E+03 0.  0.
<mgrwt>
<rscale>  0 0.44139032E+03</rscale>
<asrwt>0</asrwt>
<pdfrwt beam="1">  1        2 0.48608110E-01 0.44139032E+03</pdfrwt>
<pdfrwt beam="2">  1       -2 0.20449412E-01 0.44139032E+03</pdfrwt>
<totfact> 0.21070620E+03</totfact>
</mgrwt>
</event>
<event>
 4    1  0.5080671E-005  0.9657096E+03  0.7818608E-02  0.9346975E-01
         -2   -1    0    0    0  501 -0.00000000000E+00  0.00000000000E+00  0.84153805774E+02  0.84153805813E+02  0.25500000000E-02 0. -1.
          2   -1    0    0  501    0  0.00000000000E+00 -0.00000000000E+00 -0.27705077987E+04  0.27705077987E+04  0.25500000000E-02 0.  1.
    5000001    1    1    2    0    0 -0.61726771744E+02 -0.42738387633E+03 -0.10944383906E+04  0.11932575426E+04  0.19900000000E+03 0.  0.
   -5000001    1    1    2    0    0  0.61726771744E+02  0.42738387633E+03 -0.15919156023E+04  0.16614040619E+04  0.19900000000E+03 0.  0.
<mgrwt>
<rscale>  0 0.96570964E+03</rscale>
<asrwt>0</asrwt>
<pdfrwt beam="1">  1        2 0.39578677E+00 0.96570964E+03</pdfrwt>
<pdfrwt beam="2">  1       -2 0.12021974E-01 0.96570964E+03</pdfrwt>
<totfact> 0.16331152E+02</totfact>
</mgrwt>
</event>
<event>
 4    1  0.5080671E-005  0.7063095E+03  0.7818608E-02  0.9706503E-01
          2   -1    0    0  501    0  0.00000000000E+00  0.00000000000E+00  0.40199739116E+03  0.40199739116E+03  0.25500000000E-02 0.  1.
         -2   -1    0    0    0  501 -0.00000000000E+00 -0.00000000000E+00 -0.31024644721E+03  0.31024644722E+03  0.25500000000E-02 0. -1.
    5000001    1    1    2    0    0  0.92214575735E+02  0.16287869091E+03 -0.17979998896E+03  0.32705050369E+03  0.19900000000E+03 0.  0.
   -5000001    1    1    2    0    0 -0.92214575735E+02 -0.16287869091E+03  0.27155093291E+03  0.38519333470E+03  0.19900000000E+03 0.  0.
<mgrwt>
<rscale>  0 0.70630946E+03</rscale>
<asrwt>0</asrwt>
<pdfrwt beam="1">  1        2 0.57428199E-01 0.70630946E+03</pdfrwt>
<pdfrwt beam="2">  1       -2 0.44320921E-01 0.70630946E+03</pdfrwt>
<totfact> 0.41821129E+02</totfact>
</mgrwt>
</event>
<event>
 4    1  0.5080671E-005  0.6849234E+03  0.7818608E-02  0.9743368E-01
         -2   -1    0    0    0  501 -0.00000000000E+00  0.00000000000E+00  0.42510667303E+04  0.42510667303E+04  0.25500000000E-02 0. -1.
          2   -1    0    0  501    0  0.00000000000E+00 -0.00000000000E+00 -0.27588374139E+02  0.27588374257E+02  0.25500000000E-02 0.  1.
    5000001    1    1    2    0    0  0.22218194045E+03  0.15161813566E+03  0.16558368583E+04  0.16893044649E+04  0.19900000000E+03 0.  0.
   -5000001    1    1    2    0    0 -0.22218194045E+03 -0.15161813566E+03  0.25676414979E+04  0.25893506397E+04  0.19900000000E+03 0.  0.
<mgrwt>
<rscale>  0 0.68492341E+03</rscale>
<asrwt>0</asrwt>
<pdfrwt beam="1">  1        2 0.39411973E-02 0.68492341E+03</pdfrwt>
<pdfrwt beam="2">  1       -2 0.60729510E+00 0.68492341E+03</pdfrwt>
<totfact> 0.11263930E+00</totfact>
</mgrwt>
</event>
<event>
 4    1  0.5080671E-005  0.7722235E+03  0.7818608E-02  0.9601116E-01
          2   -1    0    0  501    0  0.00000000000E+00  0.00000000000E+00  0.11645351925E+04  0.11645351925E+04  0.25500000000E-02 0.  1.
         -2   -1    0    0    0  501 -0.00000000000E+00 -0.00000000000E+00 -0.12801869221E+03  0.12801869224E+03  0.25500000000E-02 0. -1.
    5000001    1    1    2    0    0  0.26589788792E+03  0.18670935089E+03  0.62304457014E+03  0.73030651434E+03  0.19900000000E+03 0.  0.
   -5000001    1    1    2    0    0 -0.26589788792E+03 -0.18670935089E+03  0.41347193019E+03  0.56224737044E+03  0.19900000000E+03 0.  0.
<mgrwt>
<rscale>  0 0.77222347E+03</rscale>
<asrwt>0</asrwt>
<pdfrwt beam="1">  1        2 0.16636217E+00 0.77222347E+03</pdfrwt>
<pdfrwt beam="2">  1       -2 0.18288384E-01 0.77222347E+03</pdfrwt>
<totfact> 0.56108925E+02</totfact>
</mgrwt>
</event>
<event>
 4    1  0.5080671E-005  0.6010534E+03  0.7818608E-02  0.9903223E-01
         -2   -1    0    0    0  501 -0.00000000000E+00  0.00000000000E+00  0.23821288875E+02  0.23821289012E+02  0.25500000000E-02 0. -1.
          2   -1    0    0  501    0  0.00000000000E+00 -0.00000000000E+00 -0.37914106394E+04  0.37914106394E+04  0.25500000000E-02 0.  1.
    5000001    1    1    2    0    0 -0.18548101131E+03  0.10376984722E+03 -0.23564185584E+04  0.23743379728E+04  0.19900000000E+03 0.  0.
   -5000001    1    1    2    0    0  0.18548101131E+03 -0.10376984722E+03 -0.14111707921E+04  0.14408939556E+04  0.19900000000E+03 0.  0.
<mgrwt>
<rscale>  0 0.60105337E+03</rscale>
<asrwt>0</asrwt>
<pdfrwt beam="1">  1        2 0.54162971E+00 0.60105337E+03</pdfrwt>
<pdfrwt beam="2">  1       -2 0.34030437E-02 0.60105337E+03</pdfrwt>
<totfact> 0.32276324E+02</totfact>
</mgrwt>
</event>
<event>
 4    1  0.5080671E-005  0.8330716E+03  0.7818608E-02  0.9513344E-01
         -2   -1    0    0    0  501 -0.00000000000E+00  0.00000000000E+00  0.98771183793E+02  0.98771183826E+02  0.25500000000E-02 0. -1.
          2   -1    0    0  501    0  0.00000000000E+00 -0.00000000000E+00 -0.17566061392E+04  0.17566061392E+04  0.25500000000E-02 0.  1.
    5000001    1    1    2    0    0  0.34802812727E+03  0.16834154447E+02 -0.10778619227E+04  0.11501279453E+04  0.19900000000E+03 0.  0.
   -5000001    1    1    2    0    0 -0.34802812727E+03 -0.16834154447E+02 -0.57997303266E+03  0.70524937769E+03  0.19900000000E+03 0.  0.
<mgrwt>
<rscale>  0 0.83307159E+03</rscale>
<asrwt>0</asrwt>
<pdfrwt beam="1">  1        2 0.25094372E+00 0.83307159E+03</pdfrwt>
<pdfrwt beam="2">  1       -2 0.14110170E-01 0.83307159E+03</pdfrwt>
<totfact> 0.42036617E+02</totfact>
</mgrwt>
</event>
<event>
 4    1  0.5080671E-005  0.5982707E+03  0.7818608E-02  0.9909000E-01
          2   -1    0    0  501    0  0.00000000000E+00  0.00000000000E+00  0.53744280860E+03  0.53744280861E+03  0.25500000000E-02 0. -1.
         -2   -1    0    0    0  501 -0.00000000000E+00 -0.00000000000E+00 -0.16649579899E+03  0.16649579901E+03  0.25500000000E-02 0.  1.
    5000001    1    1    2    0    0  0.10147439830E+03 -0.19883225934E+03  0.19376422301E+03  0.35633817503E+03  0.19900000000E+03 0.  0.
   -5000001    1    1    2    0    0 -0.10147439830E+03  0.19883225934E+03  0.17718278659E+03  0.34760043258E+03  0.19900000000E+03 0.  0.
<mgrwt>
<rscale>  0 0.59827074E+03</rscale>
<asrwt>0</asrwt>
<pdfrwt beam="1">  1        2 0.76777545E-01 0.59827074E+03</pdfrwt>
<pdfrwt beam="2">  1       -2 0.23785114E-01 0.59827074E+03</pdfrwt>
<totfact> 0.97068557E+02</totfact>
</mgrwt>
</event>
<event>
 4    1  0.5080671E-005  0.4572734E+03  0.7818608E-02  0.1025575E+00
          2   -1    0    0  501    0  0.00000000000E+00  0.00000000000E+00  0.75558692594E+03  0.75558692594E+03  0.25500000000E-02 0.  1.
         -2   -1    0    0    0  501 -0.00000000000E+00 -0.00000000000E+00 -0.69184270970E+02  0.69184271017E+02  0.25500000000E-02 0. -1.
    5000001    1    1    2    0    0 -0.56943367110E+02 -0.69143781735E+02  0.46619961253E+03  0.51474895662E+03  0.19900000000E+03 0.  0.
   -5000001    1    1    2    0    0  0.56943367110E+02  0.69143781735E+02  0.22020304244E+03  0.31002224034E+03  0.19900000000E+03 0.  0.
<mgrwt>
<rscale>  0 0.45727336E+03</rscale>
<asrwt>0</asrwt>
<pdfrwt beam="1">  1        2 0.10794099E+00 0.45727336E+03</pdfrwt>
<pdfrwt beam="2">  1       -2 0.98834676E-02 0.45727336E+03</pdfrwt>
<totfact> 0.28459816E+03</totfact>
</mgrwt>
</event>
<event>
 4    1  0.5080671E-005  0.8647639E+03  0.7818608E-02  0.9470733E-01
          2   -1    0    0  501    0  0.00000000000E+00  0.00000000000E+00  0.37465229631E+04  0.37465229631E+04  0.25500000000E-02 0.  1.
         -2   -1    0    0    0  501 -0.00000000000E+00 -0.00000000000E+00 -0.49900703849E+02  0.49900703914E+02  0.25500000000E-02 0. -1.
    5000001    1    1    2    0    0  0.32582686583E+03 -0.19434505288E+03  0.15915735974E+04  0.16482234866E+04  0.19900000000E+03 0.  0.
   -5000001    1    1    2    0    0 -0.32582686583E+03  0.19434505288E+03  0.21050486619E+04  0.21482001804E+04  0.19900000000E+03 0.  0.
<mgrwt>
<rscale>  0 0.86476386E+03</rscale>
<asrwt>0</asrwt>
<pdfrwt beam="1">  1        2 0.53521771E+00 0.86476386E+03</pdfrwt>
<pdfrwt beam="2">  1       -2 0.71286701E-02 0.86476386E+03</pdfrwt>
<totfact> 0.10538149E+02</totfact>
</mgrwt>
</event>
<event>
 4    1  0.5080671E-005  0.9196349E+03  0.7818608E-02  0.9401364E-01
          2   -1    0    0  501    0  0.00000000000E+00  0.00000000000E+00  0.32235475507E+04  0.32235475507E+04  0.25500000000E-02 0.  1.
         -2   -1    0    0    0  501 -0.00000000000E+00 -0.00000000000E+00 -0.65589876868E+02  0.65589876917E+02  0.25500000000E-02 0. -1.
    5000001    1    1    2    0    0 -0.36495273902E+03 -0.14019991811E+03  0.10861831046E+04  0.11714270167E+04  0.19900000000E+03 0.  0.
   -5000001    1    1    2    0    0  0.36495273902E+03  0.14019991811E+03  0.20717745693E+04  0.21177104109E+04  0.19900000000E+03 0.  0.
<mgrwt>
<rscale>  0 0.91963490E+03</rscale>
<asrwt>0</asrwt>
<pdfrwt beam="1">  1        2 0.46050675E+00 0.91963490E+03</pdfrwt>
<pdfrwt beam="2">  1       -2 0.93699832E-02 0.91963490E+03</pdfrwt>
<totfact> 0.13892064E+02</totfact>
</mgrwt>
</event>
<event>
 4    1  0.5080671E-005  0.7078059E+03  0.7818608E-02  0.9703975E-01
          2   -1    0    0  501    0  0.00000000000E+00  0.00000000000E+00  0.10748096767E+04  0.10748096767E+04  0.25500000000E-02 0.  1.
         -2   -1    0    0    0  501 -0.00000000000E+00 -0.00000000000E+00 -0.11652975440E+03  0.11652975443E+03  0.25500000000E-02 0. -1.
    5000001    1    1    2    0    0 -0.17504970110E+03  0.19905641179E+03  0.27039985054E+03  0.42776504311E+03  0.19900000000E+03 0.  0.
   -5000001    1    1    2    0    0  0.17504970110E+03 -0.19905641179E+03  0.68788007180E+03  0.76357438806E+03  0.19900000000E+03 0.  0.
<mgrwt>
<rscale>  0 0.70780593E+03</rscale>
<asrwt>0</asrwt>
<pdfrwt beam="1">  1        2 0.15354423E+00 0.70780593E+03</pdfrwt>
<pdfrwt beam="2">  1       -2 0.16647109E-01 0.70780593E+03</pdfrwt>
<totfact> 0.74553474E+02</totfact>
</mgrwt>
</event>
<event>
 4    1  0.5080671E-005  0.4539024E+03  0.7818608E-02  0.1026565E+00
         -2   -1    0    0    0  501 -0.00000000000E+00  0.00000000000E+00  0.51685161857E+02  0.51685161920E+02  0.25500000000E-02 0. -1.
          2   -1    0    0  501    0  0.00000000000E+00 -0.00000000000E+00 -0.99654976318E+03  0.99654976318E+03  0.25500000000E-02 0.  1.
    5000001    1    1    2    0    0  0.71095965738E+02  0.71905822435E+02 -0.56711007459E+03  0.60945871095E+03  0.19900000000E+03 0.  0.
   -5000001    1    1    2    0    0 -0.71095965738E+02 -0.71905822435E+02 -0.37775452673E+03  0.43877621416E+03  0.19900000000E+03 0.  0.
<mgrwt>
<rscale>  0 0.45390235E+03</rscale>
<asrwt>0</asrwt>
<pdfrwt beam="1">  1        2 0.14236424E+00 0.45390235E+03</pdfrwt>
<pdfrwt beam="2">  1       -2 0.73835951E-02 0.45390235E+03</pdfrwt>
<totfact> 0.31520761E+03</totfact>
</mgrwt>
</event>
<event>
 4    1  0.5080671E-005  0.5913861E+03  0.7818608E-02  0.9923440E-01
         -2   -1    0    0    0  501 -0.00000000000E+00  0.00000000000E+00  0.22333889342E+02  0.22333889487E+02  0.25500000000E-02 0. -1.
          2   -1    0    0  501    0  0.00000000000E+00 -0.00000000000E+00 -0.39148751584E+04  0.39148751584E+04  0.25500000000E-02 0.  1.
    5000001    1    1    2    0    0  0.55373619781E+02  0.21101631533E+03 -0.18432895138E+04  0.18667917278E+04  0.19900000000E+03 0.  0.
   -5000001    1    1    2    0    0 -0.55373619781E+02 -0.21101631533E+03 -0.20492517552E+04  0.20704173201E+04  0.19900000000E+03 0.  0.
<mgrwt>
<rscale>  0 0.59138613E+03</rscale>
<asrwt>0</asrwt>
<pdfrwt beam="1">  1        2 0.55926744E+00 0.59138613E+03</pdfrwt>
<pdfrwt beam="2">  1       -2 0.31905581E-02 0.59138613E+03</pdfrwt>
<totfact> 0.29704834E+02</totfact>
</mgrwt>
</event>
<event>
 4    1  0.5080671E-005  0.6085642E+03  0.7818608E-02  0.9887796E-01
          2   -1    0    0  501    0  0.00000000000E+00  0.00000000000E+00  0.19053629211E+04  0.19053629211E+04  0.25500000000E-02 0.  1.
         -2   -1    0    0    0  501 -0.00000000000E+00 -0.00000000000E+00 -0.48593148510E+02  0.48593148577E+02  0.25500000000E-02 0. -1.
    5000001    1    1    2    0    0  0.73935623440E+02  0.11955342030E+03  0.34311718499E+03  0.42082050728E+03  0.19900000000E+03 0.  0.
   -5000001    1    1    2    0    0 -0.73935623440E+02 -0.11955342030E+03  0.15136525876E+04  0.15331355624E+04  0.19900000000E+03 0.  0.
<mgrwt>
<rscale>  0 0.60856416E+03</rscale>
<asrwt>0</asrwt>
<pdfrwt beam="1">  1        2 0.27219471E+00 0.60856416E+03</pdfrwt>
<pdfrwt beam="2">  1       -2 0.69418781E-02 0.60856416E+03</pdfrwt>
<totfact> 0.11345876E+03</totfact>
</mgrwt>
</event>
<event>
 4    1  0.5080671E-005  0.5647451E+03  0.7818608E-02  0.9981375E-01
          2   -1    0    0  501    0  0.00000000000E+00  0.00000000000E+00  0.41943996283E+03  0.41943996284E+03  0.25500000000E-02 0.  1.
         -2   -1    0    0    0  501 -0.00000000000E+00 -0.00000000000E+00 -0.19009692446E+03  0.19009692447E+03  0.25500000000E-02 0. -1.
    5000001    1    1    2    0    0 -0.16991997276E+03 -0.78231553832E+02  0.37289390171E+02  0.27565281021E+03  0.19900000000E+03 0.  0.
   -5000001    1    1    2    0    0  0.16991997276E+03  0.78231553832E+02  0.19205364821E+03  0.33388407711E+03  0.19900000000E+03 0.  0.
<mgrwt>
<rscale>  0 0.56474506E+03</rscale>
<asrwt>0</asrwt>
<pdfrwt beam="1">  1        2 0.59919994E-01 0.56474506E+03</pdfrwt>
<pdfrwt beam="2">  1       -2 0.27156704E-01 0.56474506E+03</pdfrwt>
<totfact> 0.10122744E+03</totfact>
</mgrwt>
</event>
<event>
 4    1  0.5080671E-005  0.8868405E+03  0.7818608E-02  0.9442183E-01
          2   -1    0    0  501    0  0.00000000000E+00  0.00000000000E+00  0.17506616831E+04  0.17506616831E+04  0.25500000000E-02 0.  1.
         -2   -1    0    0    0  501 -0.00000000000E+00 -0.00000000000E+00 -0.11231268347E+03  0.11231268350E+03  0.25500000000E-02 0. -1.
    5000001    1    1    2    0    0 -0.63065755100E+02  0.38229357158E+03  0.64474349184E+03  0.77808793502E+03  0.19900000000E+03 0.  0.
   -5000001    1    1    2    0    0  0.63065755100E+02 -0.38229357158E+03  0.99360550781E+03  0.10848864316E+04  0.19900000000E+03 0.  0.
<mgrwt>
<rscale>  0 0.88684049E+03</rscale>
<asrwt>0</asrwt>
<pdfrwt beam="1">  1        2 0.25009452E+00 0.88684049E+03</pdfrwt>
<pdfrwt beam="2">  1       -2 0.16044669E-01 0.88684049E+03</pdfrwt>
<totfact> 0.33939143E+02</totfact>
</mgrwt>
</event>
<event>
 4    1  0.5080671E-005  0.6669381E+03  0.7818608E-02  0.9775505E-01
         -2   -1    0    0    0  501 -0.00000000000E+00  0.00000000000E+00  0.15608233858E+03  0.15608233860E+03  0.25500000000E-02 0.  1.
          2   -1    0    0  501    0  0.00000000000E+00 -0.00000000000E+00 -0.71245478909E+03  0.71245478910E+03  0.25500000000E-02 0. -1.
    5000001    1    1    2    0    0  0.83202333226E+02 -0.16906171213E+03 -0.52560526083E+03  0.59276165613E+03  0.19900000000E+03 0.  0.
   -5000001    1    1    2    0    0 -0.83202333226E+02  0.16906171213E+03 -0.30767189680E+02  0.27577547157E+03  0.19900000000E+03 0.  0.
<mgrwt>
<rscale>  0 0.66693811E+03</rscale>
<asrwt>0</asrwt>
<pdfrwt beam="1">  1        2 0.10177925E+00 0.66693811E+03</pdfrwt>
<pdfrwt beam="2">  1       -2 0.22297477E-01 0.66693811E+03</pdfrwt>
<totfact> 0.77769028E+02</totfact>
</mgrwt>
</event>
<event>
 4    1  0.5080671E-005  0.6089487E+03  0.7818608E-02  0.9887012E-01
         -2   -1    0    0    0  501 -0.00000000000E+00  0.00000000000E+00  0.13942202234E+03  0.13942202237E+03  0.25500000000E-02 0. -1.
          2   -1    0    0  501    0  0.00000000000E+00 -0.00000000000E+00 -0.66492110375E+03  0.66492110375E+03  0.25500000000E-02 0.  1.
    5000001    1    1    2    0    0  0.20702794630E+03  0.39115290633E+02 -0.13945433904E+03  0.32161947887E+03  0.19900000000E+03 0.  0.
   -5000001    1    1    2    0    0 -0.20702794630E+03 -0.39115290633E+02 -0.38604474237E+03  0.48272364725E+03  0.19900000000E+03 0.  0.
<mgrwt>
<rscale>  0 0.60894875E+03</rscale>
<asrwt>0</asrwt>
<pdfrwt beam="1">  1        2 0.94988728E-01 0.60894875E+03</pdfrwt>
<pdfrwt beam="2">  1       -2 0.19917432E-01 0.60894875E+03</pdfrwt>
<totfact> 0.10326996E+03</totfact>
</mgrwt>
</event>
<event>
 4    1  0.5080671E-005  0.4435003E+03  0.7818608E-02  0.1029678E+00
         -2   -1    0    0    0  501 -0.00000000000E+00  0.00000000000E+00  0.64124361096E+02  0.64124361147E+02  0.25500000000E-02 0. -1.
          2   -1    0    0  501    0  0.00000000000E+00 -0.00000000000E+00 -0.76684005582E+03  0.76684005582E+03  0.25500000000E-02 0.  1.
    5000001    1    1    2    0    0  0.84944371351E+02  0.35565376715E+02 -0.28945117436E+03  0.36313003812E+03  0.19900000000E+03 0.  0.
   -5000001    1    1    2    0    0 -0.84944371351E+02 -0.35565376715E+02 -0.41326452036E+03  0.46783437885E+03  0.19900000000E+03 0.  0.
<mgrwt>
<rscale>  0 0.44350030E+03</rscale>
<asrwt>0</asrwt>
<pdfrwt beam="1">  1        2 0.10954857E+00 0.44350030E+03</pdfrwt>
<pdfrwt beam="2">  1       -2 0.91606235E-02 0.44350030E+03</pdfrwt>
<totfact> 0.31552649E+03</totfact>
</mgrwt>
</event>
<event>
 4    1  0.5080671E-005  0.6710282E+03  0.7818608E-02  0.9768102E-01
         -2   -1    0    0    0  501 -0.00000000000E+00  0.00000000000E+00  0.67830597746E+02  0.67830597794E+02  0.25500000000E-02 0. -1.
          2   -1    0    0  501    0  0.00000000000E+00 -0.00000000000E+00 -0.16595714139E+04  0.16595714139E+04  0.25500000000E-02 0.  1.
    5000001    1    1    2    0    0 -0.12904315697E+03 -0.11569564857E+03 -0.13292527656E+04  0.13551942792E+04  0.19900000000E+03 0.  0.
   -5000001    1    1    2    0    0  0.12904315697E+03  0.11569564857E+03 -0.26248805054E+03  0.37220773250E+03  0.19900000000E+03 0.  0.
<mgrwt>
<rscale>  0 0.67102823E+03</rscale>
<asrwt>0</asrwt>
<pdfrwt beam="1">  1        2 0.23708161E+00 0.67102823E+03</pdfrwt>
<pdfrwt beam="2">  1       -2 0.96900864E-02 0.67102823E+03</pdfrwt>
<totfact> 0.88403081E+02</totfact>
</mgrwt>
</event>
<event>
 4    1  0.5080671E-005  0.5160038E+03  0.7818608E-02  0.1009684E+00
          2   -1    0    0  501    0  0.00000000000E+00  0.00000000000E+00  0.12467603515E+04  0.12467603515E+04  0.25500000000E-02 0.  1.
         -2   -1    0    0    0  501 -0.00000000000E+00 -0.00000000000E+00 -0.53390348086E+02  0.53390348147E+02  0.25500000000E-02 0. -1.
    5000001    1    1    2    0    0 -0.70112936245E+02 -0.14195150075E+03  0.48691607565E+03  0.54932168819E+03  0.19900000000E+03 0.  0.
   -5000001    1    1    2    0    0  0.70112936245E+02  0.14195150075E+03  0.70645392778E+03  0.75082901147E+03  0.19900000000E+03 0.  0.
<mgrwt>
<rscale>  0 0.51600376E+03</rscale>
<asrwt>0</asrwt>
<pdfrwt beam="1">  1        2 0.17810861E+00 0.51600376E+03</pdfrwt>
<pdfrwt beam="2">  1       -2 0.76271930E-02 0.51600376E+03</pdfrwt>
<totfact> 0.21517015E+03</totfact>
</mgrwt>
</event>
<event>
 4    1  0.5080671E-005  0.1070280E+04  0.7818608E-02  0.9234653E-01
         -2   -1    0    0    0  501 -0.00000000000E+00  0.00000000000E+00  0.94003254012E+02  0.94003254047E+02  0.25500000000E-02 0. -1.
          2   -1    0    0  501    0  0.00000000000E+00 -0.00000000000E+00 -0.30464340787E+04  0.30464340787E+04  0.25500000000E-02 0.  1.
    5000001    1    1    2    0    0 -0.30393858611E+03  0.28846510341E+03 -0.22590693670E+04  0.23062060153E+04  0.19900000000E+03 0.  0.
   -5000001    1    1    2    0    0  0.30393858611E+03 -0.28846510341E+03 -0.69336145762E+03  0.83423131739E+03  0.19900000000E+03 0.  0.
<mgrwt>
<rscale>  0 0.10702798E+04</rscale>
<asrwt>0</asrwt>
<pdfrwt beam="1">  1        2 0.43520481E+00 0.10702798E+04</pdfrwt>
<pdfrwt beam="2">  1       -2 0.13429038E-01 0.10702798E+04</pdfrwt>
<totfact> 0.95103049E+01</totfact>
</mgrwt>
</event>
<event>
 4    1  0.5080671E-005  0.5126013E+03  0.7818608E-02  0.1010541E+00
          2   -1    0    0  501    0  0.00000000000E+00  0.00000000000E+00  0.70692053412E+03  0.70692053412E+03  0.25500000000E-02 0. -1.
         -2   -1    0    0    0  501 -0.00000000000E+00 -0.00000000000E+00 -0.92924184151E+02  0.92924184186E+02  0.25500000000E-02 0.  1.
    5000001    1    1    2    0    0 -0.66567254763E+02  0.14706079124E+03  0.31567724901E+03  0.40658480207E+03  0.19900000000E+03 0.  0.
   -5000001    1    1    2    0    0  0.66567254763E+02 -0.14706079124E+03  0.29831910096E+03  0.39325991624E+03  0.19900000000E+03 0.  0.
<mgrwt>
<rscale>  0 0.51260126E+03</rscale>
<asrwt>0</asrwt>
<pdfrwt beam="1">  1        2 0.10098865E+00 0.51260126E+03</pdfrwt>
<pdfrwt beam="2">  1       -2 0.13274883E-01 0.51260126E+03</pdfrwt>
<totfact> 0.19096847E+03</totfact>
</mgrwt>
</event>
<event>
 4    1  0.5080671E-005  0.7640565E+03  0.7818608E-02  0.9613552E-01
         -2   -1    0    0    0  501 -0.00000000000E+00  0.00000000000E+00  0.15828798978E+03  0.15828798980E+03  0.25500000000E-02 0. -1.
          2   -1    0    0  501    0  0.00000000000E+00 -0.00000000000E+00 -0.92202565456E+03  0.92202565457E+03  0.25500000000E-02 0.  1.
    5000001    1    1    2    0    0 -0.19847401695E+03  0.30257287939E+02 -0.18524376975E+02  0.28328711834E+03  0.19900000000E+03 0.  0.
   -5000001    1    1    2    0    0  0.19847401695E+03 -0.30257287939E+02 -0.74521328780E+03  0.79702652603E+03  0.19900000000E+03 0.  0.
<mgrwt>
<rscale>  0 0.76405651E+03</rscale>
<asrwt>0</asrwt>
<pdfrwt beam="1">  1        2 0.13171795E+00 0.76405651E+03</pdfrwt>
<pdfrwt beam="2">  1       -2 0.22612571E-01 0.76405651E+03</pdfrwt>
<totfact> 0.54183358E+02</totfact>
</mgrwt>
</event>
<event>
 4    1  0.5080671E-005  0.8285653E+03  0.7818608E-02  0.9519566E-01
          2   -1    0    0  501    0  0.00000000000E+00  0.00000000000E+00  0.17706916344E+04  0.17706916344E+04  0.25500000000E-02 0. -1.
         -2   -1    0    0    0  501 -0.00000000000E+00 -0.00000000000E+00 -0.96928300240E+02  0.96928300273E+02  0.25500000000E-02 0.  1.
    5000001    1    1    2    0    0 -0.10665756483E+03  0.18988729079E+03  0.14924786380E+04  0.15213567972E+04  0.19900000000E+03 0.  0.
   -5000001    1    1    2    0    0  0.10665756483E+03 -0.18988729079E+03  0.18128469613E+03  0.34626313750E+03  0.19900000000E+03 0.  0.
<mgrwt>
<rscale>  0 0.82856534E+03</rscale>
<asrwt>0</asrwt>
<pdfrwt beam="1">  1        2 0.25295594E+00 0.82856534E+03</pdfrwt>
<pdfrwt beam="2">  1       -2 0.13846900E-01 0.82856534E+03</pdfrwt>
<totfact> 0.42686283E+02</totfact>
</mgrwt>
</event>
<event>
 4    1  0.5080671E-005  0.7213665E+03  0.7818608E-02  0.9681375E-01
          2   -1    0    0  501    0  0.00000000000E+00  0.00000000000E+00  0.20344836522E+03  0.20344836523E+03  0.25500000000E-02 0.  1.
         -2   -1    0    0    0  501 -0.00000000000E+00 -0.00000000000E+00 -0.63943697331E+03  0.63943697332E+03  0.25500000000E-02 0. -1.
    5000001    1    1    2    0    0 -0.28156807008E+03 -0.87681473685E+02 -0.28734579180E+03  0.45731523370E+03  0.19900000000E+03 0.  0.
   -5000001    1    1    2    0    0  0.28156807008E+03  0.87681473685E+02 -0.14864281630E+03  0.38557010485E+03  0.19900000000E+03 0.  0.
<mgrwt>
<rscale>  0 0.72136650E+03</rscale>
<asrwt>0</asrwt>
<pdfrwt beam="1">  1        2 0.29064053E-01 0.72136650E+03</pdfrwt>
<pdfrwt beam="2">  1       -2 0.91348138E-01 0.72136650E+03</pdfrwt>
<totfact> 0.19013559E+02</totfact>
</mgrwt>
</event>
<event>
 4    1  0.5080671E-005  0.5104809E+03  0.7818608E-02  0.1011079E+00
          2   -1    0    0  501    0  0.00000000000E+00  0.00000000000E+00  0.38908772824E+03  0.38908772825E+03  0.25500000000E-02 0.  1.
         -2   -1    0    0    0  501 -0.00000000000E+00 -0.00000000000E+00 -0.16743703931E+03  0.16743703933E+03  0.25500000000E-02 0. -1.
    5000001    1    1    2    0    0  0.10574802041E+03  0.11850951018E+03  0.91337042903E+02  0.27050065292E+03  0.19900000000E+03 0.  0.
   -5000001    1    1    2    0    0 -0.10574802041E+03 -0.11850951018E+03  0.13031364603E+03  0.28602411466E+03  0.19900000000E+03 0.  0.
<mgrwt>
<rscale>  0 0.51048094E+03</rscale>
<asrwt>0</asrwt>
<pdfrwt beam="1">  1        2 0.55583961E-01 0.51048094E+03</pdfrwt>
<pdfrwt beam="2">  1       -2 0.23919577E-01 0.51048094E+03</pdfrwt>
<totfact> 0.13820923E+03</totfact>
</mgrwt>
</event>
<event>
 4    1  0.5080671E-005  0.5859523E+03  0.7818608E-02  0.9934987E-01
         -2   -1    0    0    0  501 -0.00000000000E+00  0.00000000000E+00  0.16795905855E+02  0.16795906049E+02  0.25500000000E-02 0. -1.
          2   -1    0    0  501    0  0.00000000000E+00 -0.00000000000E+00 -0.51104725036E+04  0.51104725036E+04  0.25500000000E-02 0.  1.
    5000001    1    1    2    0    0  0.66825924180E+01  0.21480126914E+03 -0.26085719456E+04  0.26249633974E+04  0.19900000000E+03 0.  0.
   -5000001    1    1    2    0    0 -0.66825924180E+01 -0.21480126914E+03 -0.24851046522E+04  0.25023050123E+04  0.19900000000E+03 0.  0.
<mgrwt>
<rscale>  0 0.58595227E+03</rscale>
<asrwt>0</asrwt>
<pdfrwt beam="1">  1        2 0.73006651E+00 0.58595227E+03</pdfrwt>
<pdfrwt beam="2">  1       -2 0.23994184E-02 0.58595227E+03</pdfrwt>
<totfact> 0.51856198E+01</totfact>
</mgrwt>
</event>
<event>
 4    1  0.5080671E-005  0.4026093E+03  0.7818608E-02  0.1042880E+00
          2   -1    0    0  501    0  0.00000000000E+00  0.00000000000E+00  0.11880230230E+04  0.11880230230E+04  0.25500000000E-02 0.  1.
         -2   -1    0    0    0  501 -0.00000000000E+00 -0.00000000000E+00 -0.34110078473E+02  0.34110078568E+02  0.25500000000E-02 0. -1.
    5000001    1    1    2    0    0  0.13782409567E+02 -0.56385367469E+01  0.65731557571E+03  0.68693996389E+03  0.19900000000E+03 0.  0.
   -5000001    1    1    2    0    0 -0.13782409567E+02  0.56385367469E+01  0.49659736880E+03  0.53519313767E+03  0.19900000000E+03 0.  0.
<mgrwt>
<rscale>  0 0.40260928E+03</rscale>
<asrwt>0</asrwt>
<pdfrwt beam="1">  1        2 0.16971757E+00 0.40260928E+03</pdfrwt>
<pdfrwt beam="2">  1       -2 0.48728685E-02 0.40260928E+03</pdfrwt>
<totfact> 0.46574346E+03</totfact>
</mgrwt>
</event>
<event>
 4    1  0.5080671E-005  0.7604544E+03  0.7818608E-02  0.9619090E-01
          2   -1    0    0  501    0  0.00000000000E+00  0.00000000000E+00  0.53603739440E+03  0.53603739440E+03  0.25500000000E-02 0.  1.
         -2   -1    0    0    0  501 -0.00000000000E+00 -0.00000000000E+00 -0.26970643418E+03  0.26970643419E+03  0.25500000000E-02 0. -1.
    5000001    1    1    2    0    0 -0.24900353949E+02  0.27758519776E+03 -0.41895968888E+02  0.34500701710E+03  0.19900000000E+03 0.  0.
   -5000001    1    1    2    0    0  0.24900353949E+02 -0.27758519776E+03  0.30822692910E+03  0.46073681149E+03  0.19900000000E+03 0.  0.
<mgrwt>
<rscale>  0 0.76045443E+03</rscale>
<asrwt>0</asrwt>
<pdfrwt beam="1">  1        2 0.76576771E-01 0.76045443E+03</pdfrwt>
<pdfrwt beam="2">  1       -2 0.38529491E-01 0.76045443E+03</pdfrwt>
<totfact> 0.39636015E+02</totfact>
</mgrwt>
</event>
<event>
 4    1  0.5080671E-005  0.5748887E+03  0.7818608E-02  0.9958919E-01
         -2   -1    0    0    0  501 -0.00000000000E+00  0.00000000000E+00  0.14691554192E+03  0.14691554194E+03  0.25500000000E-02 0. -1.
          2   -1    0    0  501    0  0.00000000000E+00 -0.00000000000E+00 -0.56239294715E+03  0.56239294715E+03  0.25500000000E-02 0.  1.
    5000001    1    1    2    0    0  0.18596065198E+03  0.77082467471E+02 -0.14604537585E+03  0.31851738207E+03  0.19900000000E+03 0.  0.
   -5000001    1    1    2    0    0 -0.18596065198E+03 -0.77082467471E+02 -0.26943202938E+03  0.39079110702E+03  0.19900000000E+03 0.  0.
<mgrwt>
<rscale>  0 0.57488874E+03</rscale>
<asrwt>0</asrwt>
<pdfrwt beam="1">  1        2 0.80341849E-01 0.57488874E+03</pdfrwt>
<pdfrwt beam="2">  1       -2 0.20987935E-01 0.57488874E+03</pdfrwt>
<totfact> 0.11492049E+03</totfact>
</mgrwt>
</event>
<event>
 4    1  0.5080671E-005  0.6618240E+03  0.7818608E-02  0.9784842E-01
         -2   -1    0    0    0  501 -0.00000000000E+00  0.00000000000E+00  0.84224715543E+02  0.84224715582E+02  0.25500000000E-02 0. -1.
          2   -1    0    0  501    0  0.00000000000E+00 -0.00000000000E+00 -0.13001259781E+04  0.13001259781E+04  0.25500000000E-02 0.  1.
    5000001    1    1    2    0    0  0.19386755153E+03  0.11409759805E+03 -0.31736819395E+03  0.43695132446E+03  0.19900000000E+03 0.  0.
   -5000001    1    1    2    0    0 -0.19386755153E+03 -0.11409759805E+03 -0.89853306862E+03  0.94739936923E+03  0.19900000000E+03 0.  0.
<mgrwt>
<rscale>  0 0.66182397E+03</rscale>
<asrwt>0</asrwt>
<pdfrwt beam="1">  1        2 0.18573227E+00 0.66182397E+03</pdfrwt>
<pdfrwt beam="2">  1       -2 0.12032103E-01 0.66182397E+03</pdfrwt>
<totfact> 0.95971033E+02</totfact>
</mgrwt>
</event>
<event>
 4    1  0.5080671E-005  0.5847710E+03  0.7818608E-02  0.9937515E-01
         -2   -1    0    0    0  501 -0.00000000000E+00  0.00000000000E+00  0.53524943152E+02  0.53524943212E+02  0.25500000000E-02 0. -1.
          2   -1    0    0  501    0  0.00000000000E+00 -0.00000000000E+00 -0.15971859716E+04  0.15971859716E+04  0.25500000000E-02 0.  1.
    5000001    1    1    2    0    0  0.21070976145E+03 -0.24849082615E+02 -0.85519770852E+03  0.90331622432E+03  0.19900000000E+03 0.  0.
   -5000001    1    1    2    0    0 -0.21070976145E+03  0.24849082615E+02 -0.68846331989E+03  0.74739469044E+03  0.19900000000E+03 0.  0.
<mgrwt>
<rscale>  0 0.58477103E+03</rscale>
<asrwt>0</asrwt>
<pdfrwt beam="1">  1        2 0.22816940E+00 0.58477103E+03</pdfrwt>
<pdfrwt beam="2">  1       -2 0.76464214E-02 0.58477103E+03</pdfrwt>
<totfact> 0.13966419E+03</totfact>
</mgrwt>
</event>
<event>
 4    1  0.5080671E-005  0.7728564E+03  0.7818608E-02  0.9600159E-01
         -2   -1    0    0    0  501 -0.00000000000E+00  0.00000000000E+00  0.39911413971E+02  0.39911414053E+02  0.25500000000E-02 0.  1.
          2   -1    0    0  501    0  0.00000000000E+00 -0.00000000000E+00 -0.37414543716E+04  0.37414543716E+04  0.25500000000E-02 0. -1.
    5000001    1    1    2    0    0 -0.28612611587E+03 -0.14490723535E+03 -0.14455473487E+04  0.14940128508E+04  0.19900000000E+03 0.  0.
   -5000001    1    1    2    0    0  0.28612611587E+03  0.14490723535E+03 -0.22559956089E+04  0.22873529349E+04  0.19900000000E+03 0.  0.
<mgrwt>
<rscale>  0 0.77285635E+03</rscale>
<asrwt>0</asrwt>
<pdfrwt beam="1">  1        2 0.53449326E+00 0.77285635E+03</pdfrwt>
<pdfrwt beam="2">  1       -2 0.57016329E-02 0.77285635E+03</pdfrwt>
<totfact> 0.15282150E+02</totfact>
</mgrwt>
</event>
<event>
 4    1  0.5080671E-005  0.4897793E+03  0.7818608E-02  0.1016482E+00
          2   -1    0    0  501    0  0.00000000000E+00  0.00000000000E+00  0.56191662138E+03  0.56191662138E+03  0.25500000000E-02 0.  1.
         -2   -1    0    0    0  501 -0.00000000000E+00 -0.00000000000E+00 -0.10672568655E+03  0.10672568659E+03  0.25500000000E-02 0. -1.
    5000001    1    1    2    0    0 -0.11528372981E+03 -0.77272917787E+02  0.18214270161E+03  0.30337832146E+03  0.19900000000E+03 0.  0.
   -5000001    1    1    2    0    0  0.11528372981E+03  0.77272917787E+02  0.27304823321E+03  0.36526398651E+03  0.19900000000E+03 0.  0.
<mgrwt>
<rscale>  0 0.48977929E+03</rscale>
<asrwt>0</asrwt>
<pdfrwt beam="1">  1        2 0.80273804E-01 0.48977929E+03</pdfrwt>
<pdfrwt beam="2">  1       -2 0.15246527E-01 0.48977929E+03</pdfrwt>
<totfact> 0.19890771E+03</totfact>
</mgrwt>
</event>
<event>
 4    1  0.5080671E-005  0.6181355E+03  0.7818608E-02  0.9868479E-01
          2   -1    0    0  501    0  0.00000000000E+00  0.00000000000E+00  0.17387953408E+03  0.17387953410E+03  0.25500000000E-02 0.  1.
         -2   -1    0    0    0  501 -0.00000000000E+00 -0.00000000000E+00 -0.54936234648E+03  0.54936234649E+03  0.25500000000E-02 0. -1.
    5000001    1    1    2    0    0  0.12259063387E+03  0.19832344008E+03 -0.14151057188E+03  0.33761944902E+03  0.19900000000E+03 0.  0.
   -5000001    1    1    2    0    0 -0.12259063387E+03 -0.19832344008E+03 -0.23397224052E+03  0.38562243157E+03  0.19900000000E+03 0.  0.
<mgrwt>
<rscale>  0 0.61813548E+03</rscale>
<asrwt>0</asrwt>
<pdfrwt beam="1">  1        2 0.24839934E-01 0.61813548E+03</pdfrwt>
<pdfrwt beam="2">  1       -2 0.78480335E-01 0.61813548E+03</pdfrwt>
<totfact> 0.32185116E+02</totfact>
</mgrwt>
</event>
<event>
 4    1  0.5080671E-005  0.7514240E+03  0.7818608E-02  0.9633119E-01
          2   -1    0    0  501    0  0.00000000000E+00  0.00000000000E+00  0.22881146706E+04  0.22881146706E+04  0.25500000000E-02 0.  1.
         -2   -1    0    0    0  501 -0.00000000000E+00 -0.00000000000E+00 -0.61692496993E+02  0.61692497046E+02  0.25500000000E-02 0. -1.
    5000001    1    1    2    0    0  0.15737166441E+03  0.27626476530E+03  0.11810380137E+04  0.12391690164E+04  0.19900000000E+03 0.  0.
   -5000001    1    1    2    0    0 -0.15737166441E+03 -0.27626476530E+03  0.10453841599E+04  0.11106381513E+04  0.19900000000E+03 0.  0.
<mgrwt>
<rscale>  0 0.75142400E+03</rscale>
<asrwt>0</asrwt>
<pdfrwt beam="1">  1        2 0.32687354E+00 0.75142400E+03</pdfrwt>
<pdfrwt beam="2">  1       -2 0.88132134E-02 0.75142400E+03</pdfrwt>
<totfact> 0.49229640E+02</totfact>
</mgrwt>
</event>
<event>
 4    1  0.5080671E-005  0.9229236E+03  0.7818608E-02  0.9397371E-01
          2   -1    0    0  501    0  0.00000000000E+00  0.00000000000E+00  0.12898601301E+04  0.12898601301E+04  0.25500000000E-02 0.  1.
         -2   -1    0    0    0  501 -0.00000000000E+00 -0.00000000000E+00 -0.16509308807E+03  0.16509308809E+03  0.25500000000E-02 0. -1.
    5000001    1    1    2    0    0 -0.34503520127E+03 -0.12980119121E+03  0.86745361664E+03  0.96331428743E+03  0.19900000000E+03 0.  0.
   -5000001    1    1    2    0    0  0.34503520127E+03  0.12980119121E+03  0.25731342539E+03  0.49163893076E+03  0.19900000000E+03 0.  0.
<mgrwt>
<rscale>  0 0.92292360E+03</rscale>
<asrwt>0</asrwt>
<pdfrwt beam="1">  1        2 0.18426574E+00 0.92292360E+03</pdfrwt>
<pdfrwt beam="2">  1       -2 0.23584727E-01 0.92292360E+03</pdfrwt>
<totfact> 0.30268960E+02</totfact>
</mgrwt>
</event>
<event>
 4    1  0.5080671E-005  0.7451492E+03  0.7818608E-02  0.9642991E-01
         -2   -1    0    0    0  501 -0.00000000000E+00  0.00000000000E+00  0.38371260382E+02  0.38371260466E+02  0.25500000000E-02 0. -1.
          2   -1    0    0  501    0  0.00000000000E+00 -0.00000000000E+00 -0.36175987259E+04  0.36175987259E+04  0.25500000000E-02 0.  1.
    5000001    1    1    2    0    0  0.24806913505E+02  0.25009031680E+03 -0.85804762801E+03  0.91597340652E+03  0.19900000000E+03 0.  0.
   -5000001    1    1    2    0    0 -0.24806913505E+02 -0.25009031680E+03 -0.27211798375E+04  0.27399965799E+04  0.19900000000E+03 0.  0.
<mgrwt>
<rscale>  0 0.74514917E+03</rscale>
<asrwt>0</asrwt>
<pdfrwt beam="1">  1        2 0.51679960E+00 0.74514917E+03</pdfrwt>
<pdfrwt beam="2">  1       -2 0.54816109E-02 0.74514917E+03</pdfrwt>
<totfact> 0.19467971E+02</totfact>
</mgrwt>
</event>
<event>
 4    1  0.5080671E-005  0.6845353E+03  0.7818608E-02  0.9744050E-01
          2   -1    0    0  501    0  0.00000000000E+00  0.00000000000E+00  0.74890763697E+03  0.74890763697E+03  0.25500000000E-02 0.  1.
         -2   -1    0    0    0  501 -0.00000000000E+00 -0.00000000000E+00 -0.15642404173E+03  0.15642404175E+03  0.25500000000E-02 0. -1.
    5000001    1    1    2    0    0 -0.15477292301E+03 -0.18943115354E+03  0.12025159088E+03  0.33749113283E+03  0.19900000000E+03 0.  0.
   -5000001    1    1    2    0    0  0.15477292301E+03  0.18943115354E+03  0.47223200435E+03  0.56784054590E+03  0.19900000000E+03 0.  0.
<mgrwt>
<rscale>  0 0.68453534E+03</rscale>
<asrwt>0</asrwt>
<pdfrwt beam="1">  1        2 0.10698680E+00 0.68453534E+03</pdfrwt>
<pdfrwt beam="2">  1       -2 0.22346292E-01 0.68453534E+03</pdfrwt>
<totfact> 0.72772515E+02</totfact>
</mgrwt>
</event>
<event>
 4    1  0.5080671E-005  0.1268346E+04  0.7818608E-02  0.9055050E-01
         -2   -1    0    0    0  501 -0.00000000000E+00  0.00000000000E+00  0.11552054717E+03  0.11552054720E+03  0.25500000000E-02 0. -1.
          2   -1    0    0  501    0  0.00000000000E+00 -0.00000000000E+00 -0.34814199973E+04  0.34814199973E+04  0.25500000000E-02 0.  1.
    5000001    1    1    2    0    0  0.53006141906E+03 -0.28549370552E+03 -0.17117004030E+04  0.18253742174E+04  0.19900000000E+03 0.  0.
   -5000001    1    1    2    0    0 -0.53006141906E+03  0.28549370552E+03 -0.16541990471E+04  0.17715663271E+04  0.19900000000E+03 0.  0.
<mgrwt>
<rscale>  0 0.12683462E+04</rscale>
<asrwt>0</asrwt>
<pdfrwt beam="1">  1        2 0.49734565E+00 0.12683462E+04</pdfrwt>
<pdfrwt beam="2">  1       -2 0.16502937E-01 0.12683462E+04</pdfrwt>
<totfact> 0.36829326E+01</totfact>
</mgrwt>
</event>
<event>
 4    1  0.5080671E-005  0.4498366E+03  0.7818608E-02  0.1027771E+00
         -2   -1    0    0    0  501 -0.00000000000E+00  0.00000000000E+00  0.57624751991E+03  0.57624751992E+03  0.25500000000E-02 0. -1.
          2   -1    0    0  501    0  0.00000000000E+00 -0.00000000000E+00 -0.87789101936E+02  0.87789101973E+02  0.25500000000E-02 0.  1.
    5000001    1    1    2    0    0  0.16949852151E+02  0.10343282921E+03  0.24609913786E+03  0.33339381114E+03  0.19900000000E+03 0.  0.
   -5000001    1    1    2    0    0 -0.16949852151E+02 -0.10343282921E+03  0.24235928012E+03  0.33064281076E+03  0.19900000000E+03 0.  0.
<mgrwt>
<rscale>  0 0.44983665E+03</rscale>
<asrwt>0</asrwt>
<pdfrwt beam="1">  1        2 0.12541300E-01 0.44983665E+03</pdfrwt>
<pdfrwt beam="2">  1       -2 0.82321076E-01 0.44983665E+03</pdfrwt>
<totfact> 0.65159394E+02</totfact>
</mgrwt>
</event>
<event>
 4    1  0.5080671E-005  0.4982322E+03  0.7818608E-02  0.1014241E+00
          2   -1    0    0  501    0  0.00000000000E+00  0.00000000000E+00  0.26953113431E+03  0.26953113432E+03  0.25500000000E-02 0.  1.
         -2   -1    0    0    0  501 -0.00000000000E+00 -0.00000000000E+00 -0.23024737486E+03  0.23024737487E+03  0.25500000000E-02 0. -1.
    5000001    1    1    2    0    0 -0.12208924821E+03 -0.86448587732E+02  0.10743425379E+02  0.24918981528E+03  0.19900000000E+03 0.  0.
   -5000001    1    1    2    0    0  0.12208924821E+03  0.86448587732E+02  0.28540334075E+02  0.25058869391E+03  0.19900000000E+03 0.  0.
<mgrwt>
<rscale>  0 0.49823222E+03</rscale>
<asrwt>0</asrwt>
<pdfrwt beam="1">  1        2 0.38504448E-01 0.49823222E+03</pdfrwt>
<pdfrwt beam="2">  1       -2 0.32892482E-01 0.49823222E+03</pdfrwt>
<totfact> 0.11583289E+03</totfact>
</mgrwt>
</event>
<event>
 4    1  0.5080671E-005  0.5103689E+03  0.7818608E-02  0.1011107E+00
         -2   -1    0    0    0  501 -0.00000000000E+00  0.00000000000E+00  0.97614174056E+02  0.97614174090E+02  0.25500000000E-02 0. -1.
          2   -1    0    0  501    0  0.00000000000E+00 -0.00000000000E+00 -0.66710702964E+03  0.66710702965E+03  0.25500000000E-02 0.  1.
    5000001    1    1    2    0    0 -0.12937856459E+03  0.57474745809E+02 -0.17386766554E+03  0.29978846626E+03  0.19900000000E+03 0.  0.
   -5000001    1    1    2    0    0  0.12937856459E+03 -0.57474745809E+02 -0.39562519004E+03  0.46493273748E+03  0.19900000000E+03 0.  0.
<mgrwt>
<rscale>  0 0.51036889E+03</rscale>
<asrwt>0</asrwt>
<pdfrwt beam="1">  1        2 0.95301001E-01 0.51036889E+03</pdfrwt>
<pdfrwt beam="2">  1       -2 0.13944882E-01 0.51036889E+03</pdfrwt>
<totfact> 0.18876242E+03</totfact>
</mgrwt>
</event>
<event>
 4    1  0.5080671E-005  0.4758504E+03  0.7818608E-02  0.1020282E+00
          2   -1    0    0  501    0  0.00000000000E+00  0.00000000000E+00  0.84182356638E+02  0.84182356677E+02  0.25500000000E-02 0.  1.
         -2   -1    0    0    0  501 -0.00000000000E+00 -0.00000000000E+00 -0.67244983656E+03  0.67244983657E+03  0.25500000000E-02 0. -1.
    5000001    1    1    2    0    0 -0.81408152100E+02 -0.97302792933E+02 -0.24610722359E+03  0.34097637197E+03  0.19900000000E+03 0.  0.
   -5000001    1    1    2    0    0  0.81408152100E+02  0.97302792933E+02 -0.34216025634E+03  0.41565582127E+03  0.19900000000E+03 0.  0.
<mgrwt>
<rscale>  0 0.47585045E+03</rscale>
<asrwt>0</asrwt>
<pdfrwt beam="1">  1        2 0.12026051E-01 0.47585045E+03</pdfrwt>
<pdfrwt beam="2">  1       -2 0.96064259E-01 0.47585045E+03</pdfrwt>
<totfact> 0.48252457E+02</totfact>
</mgrwt>
</event>
<event>
 4    1  0.5080671E-005  0.6029592E+03  0.7818608E-02  0.9899286E-01
         -2   -1    0    0    0  501 -0.00000000000E+00  0.00000000000E+00  0.72721752879E+02  0.72721752924E+02  0.25500000000E-02 0. -1.
          2   -1    0    0  501    0  0.00000000000E+00 -0.00000000000E+00 -0.12498318218E+04  0.12498318218E+04  0.25500000000E-02 0.  1.
    5000001    1    1    2    0    0  0.25945240500E+02  0.20082881137E+03 -0.81098729695E+03  0.85924778894E+03  0.19900000000E+03 0.  0.
   -5000001    1    1    2    0    0 -0.25945240500E+02 -0.20082881137E+03 -0.36612277194E+03  0.46330578576E+03  0.19900000000E+03 0.  0.
<mgrwt>
<rscale>  0 0.60295924E+03</rscale>
<asrwt>0</asrwt>
<pdfrwt beam="1">  1        2 0.17854739E+00 0.60295924E+03</pdfrwt>
<pdfrwt beam="2">  1       -2 0.10388823E-01 0.60295924E+03</pdfrwt>
<totfact> 0.13032253E+03</totfact>
</mgrwt>
</event>
<event>
 4    1  0.5080671E-005  0.4885939E+03  0.7818608E-02  0.1016800E+00
         -2   -1    0    0    0  501 -0.00000000000E+00  0.00000000000E+00  0.10584266028E+03  0.10584266031E+03  0.25500000000E-02 0. -1.
          2   -1    0    0  501    0  0.00000000000E+00 -0.00000000000E+00 -0.56386527141E+03  0.56386527142E+03  0.25500000000E-02 0.  1.
    5000001    1    1    2    0    0 -0.70553466990E+02 -0.26218770783E+02 -0.64444787499E+02  0.22230462497E+03  0.19900000000E+03 0.  0.
   -5000001    1    1    2    0    0  0.70553466990E+02  0.26218770783E+02 -0.39357782363E+03  0.44740330676E+03  0.19900000000E+03 0.  0.
<mgrwt>
<rscale>  0 0.48859390E+03</rscale>
<asrwt>0</asrwt>
<pdfrwt beam="1">  1        2 0.80552180E-01 0.48859390E+03</pdfrwt>
<pdfrwt beam="2">  1       -2 0.15120380E-01 0.48859390E+03</pdfrwt>
<totfact> 0.20089349E+03</totfact>
</mgrwt>
</event>
<event>
 4    1  0.5080671E-005  0.7186802E+03  0.7818608E-02  0.9685809E-01
         -2   -1    0    0    0  501 -0.00000000000E+00  0.00000000000E+00  0.11635733978E+03  0.11635733981E+03  0.25500000000E-02 0. -1.
          2   -1    0    0  501    0  0.00000000000E+00 -0.00000000000E+00 -0.11097305432E+04  0.11097305432E+04  0.25500000000E-02 0.  1.
    5000001    1    1    2    0    0 -0.20152259896E+03 -0.95223145460E+02 -0.15614080713E+03  0.33713462737E+03  0.19900000000E+03 0.  0.
   -5000001    1    1    2    0    0  0.20152259896E+03  0.95223145460E+02 -0.83723239627E+03  0.88895325562E+03  0.19900000000E+03 0.  0.
<mgrwt>
<rscale>  0 0.71868016E+03</rscale>
<asrwt>0</asrwt>
<pdfrwt beam="1">  1        2 0.15853293E+00 0.71868016E+03</pdfrwt>
<pdfrwt beam="2">  1       -2 0.16622478E-01 0.71868016E+03</pdfrwt>
<totfact> 0.71267893E+02</totfact>
</mgrwt>
</event>
<event>
 4    1  0.5080671E-005  0.8616792E+03  0.7818608E-02  0.9474794E-01
          2   -1    0    0  501    0  0.00000000000E+00  0.00000000000E+00  0.25764581628E+04  0.25764581628E+04  0.25500000000E-02 0.  1.
         -2   -1    0    0    0  501 -0.00000000000E+00 -0.00000000000E+00 -0.72045714256E+02  0.72045714301E+02  0.25500000000E-02 0. -1.
    5000001    1    1    2    0    0 -0.30900193123E+03 -0.10236328192E+03  0.63700428492E+03  0.74251996202E+03  0.19900000000E+03 0.  0.
   -5000001    1    1    2    0    0  0.30900193123E+03  0.10236328192E+03  0.18674081636E+04  0.19059839151E+04  0.19900000000E+03 0.  0.
<mgrwt>
<rscale>  0 0.86167922E+03</rscale>
<asrwt>0</asrwt>
<pdfrwt beam="1">  1        2 0.36806536E+00 0.86167922E+03</pdfrwt>
<pdfrwt beam="2">  1       -2 0.10292247E-01 0.86167922E+03</pdfrwt>
<totfact> 0.26946728E+02</totfact>
</mgrwt>
</event>
<event>
 4    1  0.5080671E-005  0.5611579E+03  0.7818608E-02  0.9989438E-01
          2   -1    0    0  501    0  0.00000000000E+00  0.00000000000E+00  0.13786854082E+04  0.13786854082E+04  0.25500000000E-02 0.  1.
         -2   -1    0    0    0  501 -0.00000000000E+00 -0.00000000000E+00 -0.57101163774E+02  0.57101163831E+02  0.25500000000E-02 0. -1.
    5000001    1    1    2    0    0  0.16761215003E+03 -0.10228374109E+02  0.39335769672E+03  0.47173056933E+03  0.19900000000E+03 0.  0.
   -5000001    1    1    2    0    0 -0.16761215003E+03  0.10228374109E+02  0.92822654773E+03  0.96405600273E+03  0.19900000000E+03 0.  0.
<mgrwt>
<rscale>  0 0.56115788E+03</rscale>
<asrwt>0</asrwt>
<pdfrwt beam="1">  1        2 0.19695503E+00 0.56115788E+03</pdfrwt>
<pdfrwt beam="2">  1       -2 0.81573104E-02 0.56115788E+03</pdfrwt>
<totfact> 0.16397176E+03</totfact>
</mgrwt>
</event>
<event>
 4    1  0.5080671E-005  0.5701992E+03  0.7818608E-02  0.9969238E-01
          2   -1    0    0  501    0  0.00000000000E+00  0.00000000000E+00  0.45618827300E+03  0.45618827300E+03  0.25500000000E-02 0.  1.
         -2   -1    0    0    0  501 -0.00000000000E+00 -0.00000000000E+00 -0.17817595413E+03  0.17817595415E+03  0.25500000000E-02 0. -1.
    5000001    1    1    2    0    0 -0.33978620892E+02  0.17572728080E+03  0.29739102670E+02  0.26929544764E+03  0.19900000000E+03 0.  0.
   -5000001    1    1    2    0    0  0.33978620892E+02 -0.17572728080E+03  0.24827321619E+03  0.36506877951E+03  0.19900000000E+03 0.  0.
<mgrwt>
<rscale>  0 0.57019920E+03</rscale>
<asrwt>0</asrwt>
<pdfrwt beam="1">  1        2 0.65169754E-01 0.57019920E+03</pdfrwt>
<pdfrwt beam="2">  1       -2 0.25453708E-01 0.57019920E+03</pdfrwt>
<totfact> 0.10359540E+03</totfact>
</mgrwt>
</event>
<event>
 4    1  0.5080671E-005  0.4785115E+03  0.7818608E-02  0.1019545E+00
          2   -1    0    0  501    0  0.00000000000E+00  0.00000000000E+00  0.22122826775E+04  0.22122826775E+04  0.25500000000E-02 0.  1.
         -2   -1    0    0    0  501 -0.00000000000E+00 -0.00000000000E+00 -0.25875221458E+02  0.25875221584E+02  0.25500000000E-02 0. -1.
    5000001    1    1    2    0    0 -0.53498659176E+00 -0.12739168147E+03  0.91735975569E+03  0.94730082238E+03  0.19900000000E+03 0.  0.
   -5000001    1    1    2    0    0  0.53498659176E+00  0.12739168147E+03  0.12690477003E+04  0.12908570767E+04  0.19900000000E+03 0.  0.
<mgrwt>
<rscale>  0 0.47851146E+03</rscale>
<asrwt>0</asrwt>
<pdfrwt beam="1">  1        2 0.31604048E+00 0.47851146E+03</pdfrwt>
<pdfrwt beam="2">  1       -2 0.36964591E-02 0.47851146E+03</pdfrwt>
<totfact> 0.21286456E+03</totfact>
</mgrwt>
</event>
<event>
 4    1  0.5080671E-005  0.5327347E+03  0.7818608E-02  0.1005571E+00
         -2   -1    0    0    0  501 -0.00000000000E+00  0.00000000000E+00  0.54297270889E+02  0.54297270949E+02  0.25500000000E-02 0. -1.
          2   -1    0    0  501    0  0.00000000000E+00 -0.00000000000E+00 -0.13067245571E+04  0.13067245571E+04  0.25500000000E-02 0.  1.
    5000001    1    1    2    0    0 -0.39921349597E+02 -0.16194263414E+03 -0.47439315743E+03  0.54080402987E+03  0.19900000000E+03 0.  0.
   -5000001    1    1    2    0    0  0.39921349597E+02  0.16194263414E+03 -0.77803412878E+03  0.82021779818E+03  0.19900000000E+03 0.  0.
<mgrwt>
<rscale>  0 0.53273475E+03</rscale>
<asrwt>0</asrwt>
<pdfrwt beam="1">  1        2 0.18667492E+00 0.53273475E+03</pdfrwt>
<pdfrwt beam="2">  1       -2 0.77567538E-02 0.53273475E+03</pdfrwt>
<totfact> 0.19427038E+03</totfact>
</mgrwt>
</event>
<event>
 4    1  0.5080671E-005  0.4785582E+03  0.7818608E-02  0.1019532E+00
          2   -1    0    0  501    0  0.00000000000E+00  0.00000000000E+00  0.15840441351E+04  0.15840441351E+04  0.25500000000E-02 0.  1.
         -2   -1    0    0    0  501 -0.00000000000E+00 -0.00000000000E+00 -0.36144508572E+02  0.36144508662E+02  0.25500000000E-02 0. -1.
    5000001    1    1    2    0    0 -0.12807815722E+03 -0.33339331208E+02  0.73418256615E+03  0.77210139606E+03  0.19900000000E+03 0.  0.
   -5000001    1    1    2    0    0  0.12807815722E+03  0.33339331208E+02  0.81371706040E+03  0.84808724773E+03  0.19900000000E+03 0.  0.
<mgrwt>
<rscale>  0 0.47855824E+03</rscale>
<asrwt>0</asrwt>
<pdfrwt beam="1">  1        2 0.22629196E+00 0.47855824E+03</pdfrwt>
<pdfrwt beam="2">  1       -2 0.51635025E-02 0.47855824E+03</pdfrwt>
<totfact> 0.26314596E+03</totfact>
</mgrwt>
</event>
<event>
 4    1  0.5080671E-005  0.4664229E+03  0.7818608E-02  0.1022935E+00
          2   -1    0    0  501    0  0.00000000000E+00  0.00000000000E+00  0.28332702685E+04  0.28332702685E+04  0.25500000000E-02 0.  1.
         -2   -1    0    0    0  501 -0.00000000000E+00 -0.00000000000E+00 -0.19196045146E+02  0.19196045315E+02  0.25500000000E-02 0. -1.
    5000001    1    1    2    0    0 -0.98370338569E+02  0.68716030082E+02  0.15274959184E+04  0.15450706770E+04  0.19900000000E+03 0.  0.
   -5000001    1    1    2    0    0  0.98370338569E+02 -0.68716030082E+02  0.12865783050E+04  0.13073956368E+04  0.19900000000E+03 0.  0.
<mgrwt>
<rscale>  0 0.46642292E+03</rscale>
<asrwt>0</asrwt>
<pdfrwt beam="1">  1        2 0.40475248E+00 0.46642292E+03</pdfrwt>
<pdfrwt beam="2">  1       -2 0.27422950E-02 0.46642292E+03</pdfrwt>
<totfact> 0.16119988E+03</totfact>
</mgrwt>
</event>
<event>
 4    1  0.5080671E-005  0.1654445E+04  0.7818608E-02  0.8787781E-01
          2   -1    0    0  501    0  0.00000000000E+00  0.00000000000E+00  0.10215555594E+04  0.10215555594E+04  0.25500000000E-02 0.  1.
         -2   -1    0    0    0  501 -0.00000000000E+00 -0.00000000000E+00 -0.66985808090E+03  0.66985808090E+03  0.25500000000E-02 0. -1.
    5000001    1    1    2    0    0 -0.12225747008E+02  0.79863492453E+03  0.25971240252E+03  0.86314468289E+03  0.19900000000E+03 0.  0.
   -5000001    1    1    2    0    0  0.12225747008E+02 -0.79863492453E+03  0.91985075952E+02  0.82826895739E+03  0.19900000000E+03 0.  0.
<mgrwt>
<rscale>  0 0.16544452E+04</rscale>
<asrwt>0</asrwt>
<pdfrwt beam="1">  1        2 0.14593651E+00 0.16544452E+04</pdfrwt>
<pdfrwt beam="2">  1       -2 0.95694011E-01 0.16544452E+04</pdfrwt>
<totfact> 0.23898339E+01</totfact>
</mgrwt>
</event>
<event>
 4    1  0.5080671E-005  0.5142947E+03  0.7818608E-02  0.1010114E+00
          2   -1    0    0  501    0  0.00000000000E+00  0.00000000000E+00  0.29069800362E+04  0.29069800362E+04  0.25500000000E-02 0.  1.
         -2   -1    0    0    0  501 -0.00000000000E+00 -0.00000000000E+00 -0.22746889747E+02  0.22746889890E+02  0.25500000000E-02 0. -1.
    5000001    1    1    2    0    0  0.76730893506E+01 -0.14754960886E+03  0.10518276314E+04  0.10806350585E+04  0.19900000000E+03 0.  0.
   -5000001    1    1    2    0    0 -0.76730893506E+01  0.14754960886E+03  0.18324055150E+04  0.18490918676E+04  0.19900000000E+03 0.  0.
<mgrwt>
<rscale>  0 0.51429468E+03</rscale>
<asrwt>0</asrwt>
<pdfrwt beam="1">  1        2 0.41528267E+00 0.51429468E+03</pdfrwt>
<pdfrwt beam="2">  1       -2 0.32495572E-02 0.51429468E+03</pdfrwt>
<totfact> 0.11349502E+03</totfact>
</mgrwt>
</event>
<event>
 4    1  0.5080671E-005  0.9543808E+03  0.7818608E-02  0.9360045E-01
          2   -1    0    0  501    0  0.00000000000E+00  0.00000000000E+00  0.18791192313E+03  0.18791192314E+03  0.25500000000E-02 0.  1.
         -2   -1    0    0    0  501 -0.00000000000E+00 -0.00000000000E+00 -0.12117946035E+04  0.12117946035E+04  0.25500000000E-02 0. -1.
    5000001    1    1    2    0    0 -0.10270066992E+03  0.38512422428E+03 -0.76273443543E+03  0.88330793879E+03  0.19900000000E+03 0.  0.
   -5000001    1    1    2    0    0  0.10270066992E+03 -0.38512422428E+03 -0.26114824499E+03  0.51639858791E+03  0.19900000000E+03 0.  0.
<mgrwt>
<rscale>  0 0.95438075E+03</rscale>
<asrwt>0</asrwt>
<pdfrwt beam="1">  1        2 0.26844561E-01 0.95438075E+03</pdfrwt>
<pdfrwt beam="2">  1       -2 0.17311351E+00 0.95438075E+03</pdfrwt>
<totfact> 0.40989645E+01</totfact>
</mgrwt>
</event>
<event>
 4    1  0.5080671E-005  0.4152181E+03  0.7818608E-02  0.1038634E+00
         -2   -1    0    0    0  501 -0.00000000000E+00  0.00000000000E+00  0.21111935692E+02  0.21111935846E+02  0.25500000000E-02 0. -1.
          2   -1    0    0  501    0  0.00000000000E+00 -0.00000000000E+00 -0.20415712794E+04  0.20415712794E+04  0.25500000000E-02 0.  1.
    5000001    1    1    2    0    0 -0.17183960781E+02  0.52318477138E+02 -0.90276050581E+03  0.92607237429E+03  0.19900000000E+03 0.  0.
   -5000001    1    1    2    0    0  0.17183960781E+02 -0.52318477138E+02 -0.11176988379E+04  0.11366108409E+04  0.19900000000E+03 0.  0.
<mgrwt>
<rscale>  0 0.41521812E+03</rscale>
<asrwt>0</asrwt>
<pdfrwt beam="1">  1        2 0.29165292E+00 0.41521812E+03</pdfrwt>
<pdfrwt beam="2">  1       -2 0.30159921E-02 0.41521812E+03</pdfrwt>
<totfact> 0.35311382E+03</totfact>
</mgrwt>
</event>
<event>
 4    1  0.5080671E-005  0.8019304E+03  0.7818608E-02  0.9557227E-01
          2   -1    0    0  501    0  0.00000000000E+00  0.00000000000E+00  0.36637282735E+04  0.36637282735E+04  0.25500000000E-02 0.  1.
         -2   -1    0    0    0  501 -0.00000000000E+00 -0.00000000000E+00 -0.43882374975E+02  0.43882375049E+02  0.25500000000E-02 0. -1.
    5000001    1    1    2    0    0  0.30937458293E+03  0.15951248220E+03  0.18279679668E+04  0.18714231890E+04  0.19900000000E+03 0.  0.
   -5000001    1    1    2    0    0 -0.30937458293E+03 -0.15951248220E+03  0.17918779317E+04  0.18361874596E+04  0.19900000000E+03 0.  0.
<mgrwt>
<rscale>  0 0.80193042E+03</rscale>
<asrwt>0</asrwt>
<pdfrwt beam="1">  1        2 0.52338988E+00 0.80193042E+03</pdfrwt>
<pdfrwt beam="2">  1       -2 0.62689092E-02 0.80193042E+03</pdfrwt>
<totfact> 0.14668638E+02</totfact>
</mgrwt>
</event>
<event>
 4    1  0.5080671E-005  0.1158886E+04  0.7818608E-02  0.9149625E-01
         -2   -1    0    0    0  501 -0.00000000000E+00  0.00000000000E+00  0.40001721054E+03  0.40001721055E+03  0.25500000000E-02 0. -1.
          2   -1    0    0  501    0  0.00000000000E+00 -0.00000000000E+00 -0.83934891912E+03  0.83934891913E+03  0.25500000000E-02 0.  1.
    5000001    1    1    2    0    0 -0.14980926762E+03  0.49573872625E+03 -0.39846920652E+03  0.68306545068E+03  0.19900000000E+03 0.  0.
   -5000001    1    1    2    0    0  0.14980926762E+03 -0.49573872625E+03 -0.40862502067E+02  0.55630067899E+03  0.19900000000E+03 0.  0.
<mgrwt>
<rscale>  0 0.11588857E+04</rscale>
<asrwt>0</asrwt>
<pdfrwt beam="1">  1        2 0.11990699E+00 0.11588857E+04</pdfrwt>
<pdfrwt beam="2">  1       -2 0.57145316E-01 0.11588857E+04</pdfrwt>
<totfact> 0.10141755E+02</totfact>
</mgrwt>
</event>
<event>
 4    1  0.5080671E-005  0.7580789E+03  0.7818608E-02  0.9622760E-01
          2   -1    0    0  501    0  0.00000000000E+00  0.00000000000E+00  0.37939068227E+03  0.37939068228E+03  0.25500000000E-02 0.  1.
         -2   -1    0    0    0  501 -0.00000000000E+00 -0.00000000000E+00 -0.37868852760E+03  0.37868852761E+03  0.25500000000E-02 0. -1.
    5000001    1    1    2    0    0 -0.26776139296E+03  0.92860917071E+02 -0.15376123806E+03  0.37889686171E+03  0.19900000000E+03 0.  0.
   -5000001    1    1    2    0    0  0.26776139296E+03 -0.92860917071E+02  0.15446339273E+03  0.37918234819E+03  0.19900000000E+03 0.  0.
<mgrwt>
<rscale>  0 0.75807888E+03</rscale>
<asrwt>0</asrwt>
<pdfrwt beam="1">  1        2 0.54198669E-01 0.75807888E+03</pdfrwt>
<pdfrwt beam="2">  1       -2 0.54098361E-01 0.75807888E+03</pdfrwt>
<totfact> 0.29753466E+02</totfact>
</mgrwt>
</event>
<event>
 4    1  0.5080671E-005  0.8087535E+03  0.7818608E-02  0.9547433E-01
          2   -1    0    0  501    0  0.00000000000E+00  0.00000000000E+00  0.80706305170E+03  0.80706305171E+03  0.25500000000E-02 0.  1.
         -2   -1    0    0    0  501 -0.00000000000E+00 -0.00000000000E+00 -0.20261185716E+03  0.20261185717E+03  0.25500000000E-02 0. -1.
    5000001    1    1    2    0    0  0.33842029732E+03 -0.95391177068E+02  0.32355041464E+03  0.51760375300E+03  0.19900000000E+03 0.  0.
   -5000001    1    1    2    0    0 -0.33842029732E+03  0.95391177068E+02  0.28090077990E+03  0.49207115588E+03  0.19900000000E+03 0.  0.
<mgrwt>
<rscale>  0 0.80875347E+03</rscale>
<asrwt>0</asrwt>
<pdfrwt beam="1">  1        2 0.11529472E+00 0.80875347E+03</pdfrwt>
<pdfrwt beam="2">  1       -2 0.28944551E-01 0.80875347E+03</pdfrwt>
<totfact> 0.41281157E+02</totfact>
</mgrwt>
</event>
<event>
 4    1  0.5080671E-005  0.5013416E+03  0.7818608E-02  0.1013429E+00
          2   -1    0    0  501    0  0.00000000000E+00  0.00000000000E+00  0.46465403638E+03  0.46465403638E+03  0.25500000000E-02 0.  1.
         -2   -1    0    0    0  501 -0.00000000000E+00 -0.00000000000E+00 -0.13523146589E+03  0.13523146591E+03  0.25500000000E-02 0. -1.
    5000001    1    1    2    0    0 -0.92318057273E+02 -0.43660745372E+02  0.29304402045E+02  0.22558508897E+03  0.19900000000E+03 0.  0.
   -5000001    1    1    2    0    0  0.92318057273E+02  0.43660745372E+02  0.30011816845E+03  0.37430041333E+03  0.19900000000E+03 0.  0.
<mgrwt>
<rscale>  0 0.50134159E+03</rscale>
<asrwt>0</asrwt>
<pdfrwt beam="1">  1        2 0.66379148E-01 0.50134159E+03</pdfrwt>
<pdfrwt beam="2">  1       -2 0.19318781E-01 0.50134159E+03</pdfrwt>
<totfact> 0.16497755E+03</totfact>
</mgrwt>
</event>
<event>
 4    1  0.5080671E-005  0.9798251E+03  0.7818608E-02  0.9330953E-01
          2   -1    0    0  501    0  0.00000000000E+00  0.00000000000E+00  0.16329173531E+04  0.16329173531E+04  0.25500000000E-02 0.  1.
         -2   -1    0    0    0  501 -0.00000000000E+00 -0.00000000000E+00 -0.14698496993E+03  0.14698496995E+03  0.25500000000E-02 0. -1.
    5000001    1    1    2    0    0  0.13681148760E+03  0.31259382551E+03  0.12693932380E+04  0.13294331407E+04  0.19900000000E+03 0.  0.
   -5000001    1    1    2    0    0 -0.13681148760E+03 -0.31259382551E+03  0.21653914521E+03  0.45046918240E+03  0.19900000000E+03 0.  0.
<mgrwt>
<rscale>  0 0.97982510E+03</rscale>
<asrwt>0</asrwt>
<pdfrwt beam="1">  1        2 0.23327388E+00 0.97982510E+03</pdfrwt>
<pdfrwt beam="2">  1       -2 0.20997855E-01 0.97982510E+03</pdfrwt>
<totfact> 0.24335491E+02</totfact>
</mgrwt>
</event>
<event>
 4    1  0.5080671E-005  0.4466501E+03  0.7818608E-02  0.1028726E+00
          2   -1    0    0  501    0  0.00000000000E+00  0.00000000000E+00  0.15740930287E+03  0.15740930289E+03  0.25500000000E-02 0.  1.
         -2   -1    0    0    0  501 -0.00000000000E+00 -0.00000000000E+00 -0.31684322333E+03  0.31684322334E+03  0.25500000000E-02 0. -1.
    5000001    1    1    2    0    0  0.32420818892E+02 -0.95973712425E+02 -0.83239818712E+02  0.23831057550E+03  0.19900000000E+03 0.  0.
   -5000001    1    1    2    0    0 -0.32420818892E+02  0.95973712425E+02 -0.76194101753E+02  0.23594195073E+03  0.19900000000E+03 0.  0.
<mgrwt>
<rscale>  0 0.44665007E+03</rscale>
<asrwt>0</asrwt>
<pdfrwt beam="1">  1        2 0.22487043E-01 0.44665007E+03</pdfrwt>
<pdfrwt beam="2">  1       -2 0.45263317E-01 0.44665007E+03</pdfrwt>
<totfact> 0.11458204E+03</totfact>
</mgrwt>
</event>
<event>
 4    1  0.5080671E-005  0.9683654E+03  0.7818608E-02  0.9343938E-01
         -2   -1    0    0    0  501 -0.00000000000E+00  0.00000000000E+00  0.44549709359E+03  0.44549709360E+03  0.25500000000E-02 0. -1.
          2   -1    0    0  501    0  0.00000000000E+00 -0.00000000000E+00 -0.52622766390E+03  0.52622766391E+03  0.25500000000E-02 0.  1.
    5000001    1    1    2    0    0  0.35806806338E+03 -0.29380708140E+02  0.21695348194E+03  0.46448442099E+03  0.19900000000E+03 0.  0.
   -5000001    1    1    2    0    0 -0.35806806338E+03  0.29380708140E+02 -0.29768405225E+03  0.50724033651E+03  0.19900000000E+03 0.  0.
<mgrwt>
<rscale>  0 0.96836542E+03</rscale>
<asrwt>0</asrwt>
<pdfrwt beam="1">  1        2 0.75175380E-01 0.96836542E+03</pdfrwt>
<pdfrwt beam="2">  1       -2 0.63642442E-01 0.96836542E+03</pdfrwt>
<totfact> 0.14468648E+02</totfact>
</mgrwt>
</event>
<event>
 4    1  0.5080671E-005  0.9201803E+03  0.7818608E-02  0.9400701E-01
         -2   -1    0    0    0  501 -0.00000000000E+00  0.00000000000E+00  0.35100347243E+03  0.35100347244E+03  0.25500000000E-02 0. -1.
          2   -1    0    0  501    0  0.00000000000E+00 -0.00000000000E+00 -0.60307939170E+03  0.60307939170E+03  0.25500000000E-02 0.  1.
    5000001    1    1    2    0    0  0.18922671071E+03  0.31778460887E+03 -0.32081045373E+03  0.52850180029E+03  0.19900000000E+03 0.  0.
   -5000001    1    1    2    0    0 -0.18922671071E+03 -0.31778460887E+03  0.68734534462E+02  0.42558106385E+03  0.19900000000E+03 0.  0.
<mgrwt>
<rscale>  0 0.92018033E+03</rscale>
<asrwt>0</asrwt>
<pdfrwt beam="1">  1        2 0.86154199E-01 0.92018033E+03</pdfrwt>
<pdfrwt beam="2">  1       -2 0.50143353E-01 0.92018033E+03</pdfrwt>
<totfact> 0.20329180E+02</totfact>
</mgrwt>
</event>
<event>
 4    1  0.5080671E-005  0.1883714E+04  0.7818608E-02  0.8663006E-01
         -2   -1    0    0    0  501 -0.00000000000E+00  0.00000000000E+00  0.50383039898E+03  0.50383039899E+03  0.25500000000E-02 0. -1.
          2   -1    0    0  501    0  0.00000000000E+00 -0.00000000000E+00 -0.17607005291E+04  0.17607005291E+04  0.25500000000E-02 0.  1.
    5000001    1    1    2    0    0  0.71092905476E+03 -0.54039929352E+03 -0.89735956331E+03  0.12815251473E+04  0.19900000000E+03 0.  0.
   -5000001    1    1    2    0    0 -0.71092905476E+03  0.54039929352E+03 -0.35951056676E+03  0.98300578073E+03  0.19900000000E+03 0.  0.
<mgrwt>
<rscale>  0 0.18837138E+04</rscale>
<asrwt>0</asrwt>
<pdfrwt beam="1">  1        2 0.25152864E+00 0.18837138E+04</pdfrwt>
<pdfrwt beam="2">  1       -2 0.71975772E-01 0.18837138E+04</pdfrwt>
<totfact> 0.17550455E+01</totfact>
</mgrwt>
</event>
<event>
 4    1  0.5080671E-005  0.7154624E+03  0.7818608E-02  0.9691149E-01
         -2   -1    0    0    0  501 -0.00000000000E+00  0.00000000000E+00  0.10994626766E+03  0.10994626769E+03  0.25500000000E-02 0. -1.
          2   -1    0    0  501    0  0.00000000000E+00 -0.00000000000E+00 -0.11639468693E+04  0.11639468693E+04  0.25500000000E-02 0.  1.
    5000001    1    1    2    0    0 -0.18861092467E+03  0.20049290102E+03 -0.72685596139E+03  0.80230422713E+03  0.19900000000E+03 0.  0.
   -5000001    1    1    2    0    0  0.18861092467E+03 -0.20049290102E+03 -0.32714464027E+03  0.47158890988E+03  0.19900000000E+03 0.  0.
<mgrwt>
<rscale>  0 0.71546241E+03</rscale>
<asrwt>0</asrwt>
<pdfrwt beam="1">  1        2 0.16627812E+00 0.71546241E+03</pdfrwt>
<pdfrwt beam="2">  1       -2 0.15706610E-01 0.71546241E+03</pdfrwt>
<totfact> 0.73043308E+02</totfact>
</mgrwt>
</event>
<event>
 4    1  0.5080671E-005  0.5054876E+03  0.7818608E-02  0.1012356E+00
         -2   -1    0    0    0  501 -0.00000000000E+00  0.00000000000E+00  0.13100989364E+03  0.13100989367E+03  0.25500000000E-02 0. -1.
          2   -1    0    0  501    0  0.00000000000E+00 -0.00000000000E+00 -0.48759248172E+03  0.48759248172E+03  0.25500000000E-02 0.  1.
    5000001    1    1    2    0    0 -0.95318455777E+02  0.96648082474E+02 -0.84674787240E+02  0.25533757940E+03  0.19900000000E+03 0.  0.
   -5000001    1    1    2    0    0  0.95318455777E+02 -0.96648082474E+02 -0.27190780083E+03  0.36326479600E+03  0.19900000000E+03 0.  0.
<mgrwt>
<rscale>  0 0.50548764E+03</rscale>
<asrwt>0</asrwt>
<pdfrwt beam="1">  1        2 0.69656068E-01 0.50548764E+03</pdfrwt>
<pdfrwt beam="2">  1       -2 0.18715699E-01 0.50548764E+03</pdfrwt>
<totfact> 0.16506784E+03</totfact>
</mgrwt>
</event>
<event>
 4    1  0.5080671E-005  0.6624228E+03  0.7818608E-02  0.9783744E-01
         -2   -1    0    0    0  501 -0.00000000000E+00  0.00000000000E+00  0.41428435650E+03  0.41428435651E+03  0.25500000000E-02 0. -1.
          2   -1    0    0  501    0  0.00000000000E+00 -0.00000000000E+00 -0.26479633902E+03  0.26479633904E+03  0.25500000000E-02 0.  1.
    5000001    1    1    2    0    0 -0.26048512086E+03 -0.36437103830E+02  0.10583521737E+03  0.34638454636E+03  0.19900000000E+03 0.  0.
   -5000001    1    1    2    0    0  0.26048512086E+03  0.36437103830E+02  0.43652800108E+02  0.33269614918E+03  0.19900000000E+03 0.  0.
<mgrwt>
<rscale>  0 0.66242277E+03</rscale>
<asrwt>0</asrwt>
<pdfrwt beam="1">  1        2 0.37828049E-01 0.66242277E+03</pdfrwt>
<pdfrwt beam="2">  1       -2 0.59183479E-01 0.66242277E+03</pdfrwt>
<totfact> 0.36878625E+02</totfact>
</mgrwt>
</event>
<event>
 4    1  0.5080671E-005  0.1027364E+04  0.7818608E-02  0.9279031E-01
         -2   -1    0    0    0  501 -0.00000000000E+00  0.00000000000E+00  0.18483083216E+03  0.18483083217E+03  0.25500000000E-02 0. -1.
          2   -1    0    0  501    0  0.00000000000E+00 -0.00000000000E+00 -0.14276263233E+04  0.14276263233E+04  0.25500000000E-02 0.  1.
    5000001    1    1    2    0    0 -0.20843346273E+03 -0.42063741417E+03 -0.71926285410E+03  0.88165775439E+03  0.19900000000E+03 0.  0.
   -5000001    1    1    2    0    0  0.20843346273E+03  0.42063741417E+03 -0.52353263705E+03  0.73079940109E+03  0.19900000000E+03 0.  0.
<mgrwt>
<rscale>  0 0.10273643E+04</rscale>
<asrwt>0</asrwt>
<pdfrwt beam="1">  1        2 0.20394661E+00 0.10273643E+04</pdfrwt>
<pdfrwt beam="2">  1       -2 0.26404405E-01 0.10273643E+04</pdfrwt>
<totfact> 0.20643346E+02</totfact>
</mgrwt>
</event>
<event>
 4    1  0.5080671E-005  0.1176731E+04  0.7818608E-02  0.9133471E-01
          2   -1    0    0  501    0  0.00000000000E+00  0.00000000000E+00  0.10504287871E+04  0.10504287871E+04  0.25500000000E-02 0.  1.
         -2   -1    0    0    0  501 -0.00000000000E+00 -0.00000000000E+00 -0.32955476390E+03  0.32955476391E+03  0.25500000000E-02 0. -1.
    5000001    1    1    2    0    0  0.47432987856E+03 -0.22131842431E+03  0.14868877013E+03  0.57937900289E+03  0.19900000000E+03 0.  0.
   -5000001    1    1    2    0    0 -0.47432987856E+03  0.22131842431E+03  0.57218525305E+03  0.80060454810E+03  0.19900000000E+03 0.  0.
<mgrwt>
<rscale>  0 0.11767307E+04</rscale>
<asrwt>0</asrwt>
<pdfrwt beam="1">  1        2 0.15006125E+00 0.11767307E+04</pdfrwt>
<pdfrwt beam="2">  1       -2 0.47079253E-01 0.11767307E+04</pdfrwt>
<totfact> 0.11051963E+02</totfact>
</mgrwt>
</event>
<event>
 4    1  0.5080671E-005  0.7515800E+03  0.7818608E-02  0.9632875E-01
         -2   -1    0    0    0  501 -0.00000000000E+00  0.00000000000E+00  0.14959527165E+03  0.14959527167E+03  0.25500000000E-02 0. -1.
          2   -1    0    0  501    0  0.00000000000E+00 -0.00000000000E+00 -0.94400133468E+03  0.94400133468E+03  0.25500000000E-02 0.  1.
    5000001    1    1    2    0    0  0.12286911797E+03  0.26485758942E+03 -0.21103010839E+03  0.41155931465E+03  0.19900000000E+03 0.  0.
   -5000001    1    1    2    0    0 -0.12286911797E+03 -0.26485758942E+03 -0.58337595464E+03  0.68203729171E+03  0.19900000000E+03 0.  0.
<mgrwt>
<rscale>  0 0.75158003E+03</rscale>
<asrwt>0</asrwt>
<pdfrwt beam="1">  1        2 0.13485733E+00 0.75158003E+03</pdfrwt>
<pdfrwt beam="2">  1       -2 0.21370754E-01 0.75158003E+03</pdfrwt>
<totfact> 0.58008910E+02</totfact>
</mgrwt>
</event>
<event>
 4    1  0.5080671E-005  0.9329221E+03  0.7818608E-02  0.9385338E-01
         -2   -1    0    0    0  501 -0.00000000000E+00  0.00000000000E+00  0.28826915259E+03  0.28826915260E+03  0.25500000000E-02 0. -1.
          2   -1    0    0  501    0  0.00000000000E+00 -0.00000000000E+00 -0.75480121430E+03  0.75480121430E+03  0.25500000000E-02 0.  1.
    5000001    1    1    2    0    0 -0.41512945812E+03 -0.62838608278E+02 -0.27941595633E+03  0.54217657118E+03  0.19900000000E+03 0.  0.
   -5000001    1    1    2    0    0  0.41512945812E+03  0.62838608278E+02 -0.18711610539E+03  0.50089379571E+03  0.19900000000E+03 0.  0.
<mgrwt>
<rscale>  0 0.93292209E+03</rscale>
<asrwt>0</asrwt>
<pdfrwt beam="1">  1        2 0.10782874E+00 0.93292209E+03</pdfrwt>
<pdfrwt beam="2">  1       -2 0.41181308E-01 0.93292209E+03</pdfrwt>
<totfact> 0.22876543E+02</totfact>
</mgrwt>
</event>
<event>
 4    1  0.5080671E-005  0.5050071E+03  0.7818608E-02  0.1012480E+00
         -2   -1    0    0    0  501 -0.00000000000E+00  0.00000000000E+00  0.12791146936E+03  0.12791146939E+03  0.25500000000E-02 0. -1.
          2   -1    0    0  501    0  0.00000000000E+00 -0.00000000000E+00 -0.49845449125E+03  0.49845449126E+03  0.25500000000E-02 0.  1.
    5000001    1    1    2    0    0 -0.15488141863E+03  0.10593851906E+02 -0.17594334355E+03  0.30766466108E+03  0.19900000000E+03 0.  0.
   -5000001    1    1    2    0    0  0.15488141863E+03 -0.10593851906E+02 -0.19459967833E+03  0.31870129956E+03  0.19900000000E+03 0.  0.
<mgrwt>
<rscale>  0 0.50500711E+03</rscale>
<asrwt>0</asrwt>
<pdfrwt beam="1">  1        2 0.71207783E-01 0.50500711E+03</pdfrwt>
<pdfrwt beam="2">  1       -2 0.18273067E-01 0.50500711E+03</pdfrwt>
<totfact> 0.16776729E+03</totfact>
</mgrwt>
</event>
<event>
 4    1  0.5080671E-005  0.5894564E+03  0.7818608E-02  0.9927525E-01
          2   -1    0    0  501    0  0.00000000000E+00  0.00000000000E+00  0.10149474594E+04  0.10149474594E+04  0.25500000000E-02 0.  1.
         -2   -1    0    0    0  501 -0.00000000000E+00 -0.00000000000E+00 -0.85585437768E+02  0.85585437806E+02  0.25500000000E-02 0. -1.
    5000001    1    1    2    0    0 -0.18456626617E+03 -0.11465590803E+03  0.47827816869E+03  0.56174877881E+03  0.19900000000E+03 0.  0.
   -5000001    1    1    2    0    0  0.18456626617E+03  0.11465590803E+03  0.45108385297E+03  0.53878411842E+03  0.19900000000E+03 0.  0.
<mgrwt>
<rscale>  0 0.58945644E+03</rscale>
<asrwt>0</asrwt>
<pdfrwt beam="1">  1        2 0.14499250E+00 0.58945644E+03</pdfrwt>
<pdfrwt beam="2">  1       -2 0.12226491E-01 0.58945644E+03</pdfrwt>
<totfact> 0.13631192E+03</totfact>
</mgrwt>
</event>
<event>
 4    1  0.5080671E-005  0.5324188E+03  0.7818608E-02  0.1005647E+00
          2   -1    0    0  501    0  0.00000000000E+00  0.00000000000E+00  0.20703644504E+04  0.20703644504E+04  0.25500000000E-02 0.  1.
         -2   -1    0    0    0  501 -0.00000000000E+00 -0.00000000000E+00 -0.34229450573E+02  0.34229450668E+02  0.25500000000E-02 0. -1.
    5000001    1    1    2    0    0 -0.18548469557E+02 -0.17558268146E+03  0.97992383876E+03  0.10153940385E+04  0.19900000000E+03 0.  0.
   -5000001    1    1    2    0    0  0.18548469557E+02  0.17558268146E+03  0.10562111611E+04  0.10891998626E+04  0.19900000000E+03 0.  0.
<mgrwt>
<rscale>  0 0.53241877E+03</rscale>
<asrwt>0</asrwt>
<pdfrwt beam="1">  1        2 0.29576636E+00 0.53241877E+03</pdfrwt>
<pdfrwt beam="2">  1       -2 0.48899213E-02 0.53241877E+03</pdfrwt>
<totfact> 0.16274003E+03</totfact>
</mgrwt>
</event>
<event>
 4    1  0.5080671E-005  0.4444224E+03  0.7818608E-02  0.1029399E+00
         -2   -1    0    0    0  501 -0.00000000000E+00  0.00000000000E+00  0.45628604475E+02  0.45628604547E+02  0.25500000000E-02 0. -1.
          2   -1    0    0  501    0  0.00000000000E+00 -0.00000000000E+00 -0.10821678009E+04  0.10821678009E+04  0.25500000000E-02 0.  1.
    5000001    1    1    2    0    0 -0.57203503228E+02 -0.80173265108E+02 -0.54051054447E+03  0.58433949199E+03  0.19900000000E+03 0.  0.
   -5000001    1    1    2    0    0  0.57203503228E+02  0.80173265108E+02 -0.49602865191E+03  0.54345691342E+03  0.19900000000E+03 0.  0.
<mgrwt>
<rscale>  0 0.44442235E+03</rscale>
<asrwt>0</asrwt>
<pdfrwt beam="1">  1        2 0.15459538E+00 0.44442235E+03</pdfrwt>
<pdfrwt beam="2">  1       -2 0.65183727E-02 0.44442235E+03</pdfrwt>
<totfact> 0.34106045E+03</totfact>
</mgrwt>
</event>
<event>
 4    1  0.5080671E-005  0.4240775E+03  0.7818608E-02  0.1035747E+00
          2   -1    0    0  501    0  0.00000000000E+00  0.00000000000E+00  0.15302869882E+04  0.15302869882E+04  0.25500000000E-02 0.  1.
         -2   -1    0    0    0  501 -0.00000000000E+00 -0.00000000000E+00 -0.29380397549E+02  0.29380397660E+02  0.25500000000E-02 0. -1.
    5000001    1    1    2    0    0  0.59572387974E+02 -0.41928220853E+02  0.72378107545E+03  0.75416635452E+03  0.19900000000E+03 0.  0.
   -5000001    1    1    2    0    0 -0.59572387974E+02  0.41928220853E+02  0.77712551518E+03  0.80550103132E+03  0.19900000000E+03 0.  0.
<mgrwt>
<rscale>  0 0.42407754E+03</rscale>
<asrwt>0</asrwt>
<pdfrwt beam="1">  1        2 0.21861247E+00 0.42407754E+03</pdfrwt>
<pdfrwt beam="2">  1       -2 0.41971988E-02 0.42407754E+03</pdfrwt>
<totfact> 0.38558457E+03</totfact>
</mgrwt>
</event>
<event>
 4    1  0.5080671E-005  0.4787976E+03  0.7818608E-02  0.1019466E+00
          2   -1    0    0  501    0  0.00000000000E+00  0.00000000000E+00  0.17846007982E+04  0.17846007982E+04  0.25500000000E-02 0.  1.
         -2   -1    0    0    0  501 -0.00000000000E+00 -0.00000000000E+00 -0.32114624828E+02  0.32114624929E+02  0.25500000000E-02 0. -1.
    5000001    1    1    2    0    0 -0.29427624899E+02 -0.12366927529E+03  0.10256601838E+04  0.10524922268E+04  0.19900000000E+03 0.  0.
   -5000001    1    1    2    0    0  0.29427624899E+02  0.12366927529E+03  0.72682598959E+03  0.76422319639E+03  0.19900000000E+03 0.  0.
<mgrwt>
<rscale>  0 0.47879760E+03</rscale>
<asrwt>0</asrwt>
<pdfrwt beam="1">  1        2 0.25494295E+00 0.47879760E+03</pdfrwt>
<pdfrwt beam="2">  1       -2 0.45878039E-02 0.47879760E+03</pdfrwt>
<totfact> 0.25001332E+03</totfact>
</mgrwt>
</event>
<event>
 4    1  0.5080671E-005  0.6457140E+03  0.7818608E-02  0.9814855E-01
          2   -1    0    0  501    0  0.00000000000E+00  0.00000000000E+00  0.94968107646E+03  0.94968107647E+03  0.25500000000E-02 0. -1.
         -2   -1    0    0    0  501 -0.00000000000E+00 -0.00000000000E+00 -0.10975963634E+03  0.10975963637E+03  0.25500000000E-02 0.  1.
    5000001    1    1    2    0    0 -0.84484708879E+02 -0.23168927621E+03  0.52134204860E+03  0.61009517158E+03  0.19900000000E+03 0.  0.
   -5000001    1    1    2    0    0  0.84484708879E+02  0.23168927621E+03  0.31857939152E+03  0.44934554126E+03  0.19900000000E+03 0.  0.
<mgrwt>
<rscale>  0 0.64571402E+03</rscale>
<asrwt>0</asrwt>
<pdfrwt beam="1">  1        2 0.13566872E+00 0.64571402E+03</pdfrwt>
<pdfrwt beam="2">  1       -2 0.15679948E-01 0.64571402E+03</pdfrwt>
<totfact> 0.98550905E+02</totfact>
</mgrwt>
</event>
<event>
 4    1  0.5080671E-005  0.5938808E+03  0.7818608E-02  0.9918183E-01
          2   -1    0    0  501    0  0.00000000000E+00  0.00000000000E+00  0.42695966808E+03  0.42695966809E+03  0.25500000000E-02 0.  1.
         -2   -1    0    0    0  501 -0.00000000000E+00 -0.00000000000E+00 -0.20651505310E+03  0.20651505312E+03  0.25500000000E-02 0. -1.
    5000001    1    1    2    0    0 -0.18112958703E+03  0.12324279607E+03  0.13581981554E+03  0.32564510801E+03  0.19900000000E+03 0.  0.
   -5000001    1    1    2    0    0  0.18112958703E+03 -0.12324279607E+03  0.84624799444E+02  0.30782961320E+03  0.19900000000E+03 0.  0.
<mgrwt>
<rscale>  0 0.59388079E+03</rscale>
<asrwt>0</asrwt>
<pdfrwt beam="1">  1        2 0.60994238E-01 0.59388079E+03</pdfrwt>
<pdfrwt beam="2">  1       -2 0.29502151E-01 0.59388079E+03</pdfrwt>
<totfact> 0.85267981E+02</totfact>
</mgrwt>
</event>
<event>
 4    1  0.5080671E-005  0.7049534E+03  0.7818608E-02  0.9708799E-01
          2   -1    0    0  501    0  0.00000000000E+00  0.00000000000E+00  0.16601222905E+04  0.16601222905E+04  0.25500000000E-02 0.  1.
         -2   -1    0    0    0  501 -0.00000000000E+00 -0.00000000000E+00 -0.74837751061E+02  0.74837751105E+02  0.25500000000E-02 0. -1.
    5000001    1    1    2    0    0 -0.23338907288E+03  0.53335474629E+01  0.36537456121E+03  0.47707282049E+03  0.19900000000E+03 0.  0.
   -5000001    1    1    2    0    0  0.23338907288E+03 -0.53335474629E+01  0.12199099782E+04  0.12578872211E+04  0.19900000000E+03 0.  0.
<mgrwt>
<rscale>  0 0.70495338E+03</rscale>
<asrwt>0</asrwt>
<pdfrwt beam="1">  1        2 0.23716033E+00 0.70495338E+03</pdfrwt>
<pdfrwt beam="2">  1       -2 0.10691107E-01 0.70495338E+03</pdfrwt>
<totfact> 0.75155552E+02</totfact>
</mgrwt>
</event>
<event>
 4    1  0.5080671E-005  0.8787755E+03  0.7818608E-02  0.9452509E-01
         -2   -1    0    0    0  501 -0.00000000000E+00  0.00000000000E+00  0.33628084298E+03  0.33628084299E+03  0.25500000000E-02 0. -1.
          2   -1    0    0  501    0  0.00000000000E+00 -0.00000000000E+00 -0.57410823724E+03  0.57410823724E+03  0.25500000000E-02 0.  1.
    5000001    1    1    2    0    0  0.38698993333E+03 -0.88403404073E+01 -0.18125528475E+03  0.47148047506E+03  0.19900000000E+03 0.  0.
   -5000001    1    1    2    0    0 -0.38698993333E+03  0.88403404073E+01 -0.56572109512E+02  0.43890860517E+03  0.19900000000E+03 0.  0.
<mgrwt>
<rscale>  0 0.87877552E+03</rscale>
<asrwt>0</asrwt>
<pdfrwt beam="1">  1        2 0.82015462E-01 0.87877552E+03</pdfrwt>
<pdfrwt beam="2">  1       -2 0.48040121E-01 0.87877552E+03</pdfrwt>
<totfact> 0.23549081E+02</totfact>
</mgrwt>
</event>
<event>
 4    1  0.5080671E-005  0.7767959E+03  0.7818608E-02  0.9594225E-01
          2   -1    0    0  501    0  0.00000000000E+00  0.00000000000E+00  0.14324163784E+04  0.14324163784E+04  0.25500000000E-02 0.  1.
         -2   -1    0    0    0  501 -0.00000000000E+00 -0.00000000000E+00 -0.10531362699E+03  0.10531362703E+03  0.25500000000E-02 0. -1.
    5000001    1    1    2    0    0  0.24434242214E+03  0.14115479105E+03  0.31151945140E+03  0.46505189269E+03  0.19900000000E+03 0.  0.
   -5000001    1    1    2    0    0 -0.24434242214E+03 -0.14115479105E+03  0.10155833000E+04  0.10726781127E+04  0.19900000000E+03 0.  0.
<mgrwt>
<rscale>  0 0.77679589E+03</rscale>
<asrwt>0</asrwt>
<pdfrwt beam="1">  1        2 0.20463090E+00 0.77679589E+03</pdfrwt>
<pdfrwt beam="2">  1       -2 0.15044805E-01 0.77679589E+03</pdfrwt>
<totfact> 0.55798595E+02</totfact>
</mgrwt>
</event>
<event>
 4    1  0.5080671E-005  0.8545616E+03  0.7818608E-02  0.9484235E-01
          2   -1    0    0  501    0  0.00000000000E+00  0.00000000000E+00  0.86980127935E+03  0.86980127936E+03  0.25500000000E-02 0.  1.
         -2   -1    0    0    0  501 -0.00000000000E+00 -0.00000000000E+00 -0.20989722528E+03  0.20989722530E+03  0.25500000000E-02 0. -1.
    5000001    1    1    2    0    0 -0.25886201754E+03 -0.89993505317E+02  0.65907974760E+03  0.74100977646E+03  0.19900000000E+03 0.  0.
   -5000001    1    1    2    0    0  0.25886201754E+03  0.89993505317E+02  0.82430647443E+00  0.33868872819E+03  0.19900000000E+03 0.  0.
<mgrwt>
<rscale>  0 0.85456158E+03</rscale>
<asrwt>0</asrwt>
<pdfrwt beam="1">  1        2 0.12425733E+00 0.85456158E+03</pdfrwt>
<pdfrwt beam="2">  1       -2 0.29985318E-01 0.85456158E+03</pdfrwt>
<totfact> 0.34983319E+02</totfact>
</mgrwt>
</event>
<event>
 4    1  0.5080671E-005  0.9945918E+03  0.7818608E-02  0.9314496E-01
          2   -1    0    0  501    0  0.00000000000E+00  0.00000000000E+00  0.88920698414E+03  0.88920698414E+03  0.25500000000E-02 0.  1.
         -2   -1    0    0    0  501 -0.00000000000E+00 -0.00000000000E+00 -0.27811656353E+03  0.27811656354E+03  0.25500000000E-02 0. -1.
    5000001    1    1    2    0    0  0.36265027715E+03  0.34394826612E+02  0.62697675589E+03  0.75193023615E+03  0.19900000000E+03 0.  0.
   -5000001    1    1    2    0    0 -0.36265027715E+03 -0.34394826612E+02 -0.15886335282E+02  0.41539331153E+03  0.19900000000E+03 0.  0.
<mgrwt>
<rscale>  0 0.99459176E+03</rscale>
<asrwt>0</asrwt>
<pdfrwt beam="1">  1        2 0.12702957E+00 0.99459176E+03</pdfrwt>
<pdfrwt beam="2">  1       -2 0.39730937E-01 0.99459176E+03</pdfrwt>
<totfact> 0.19750819E+02</totfact>
</mgrwt>
</event>
<event>
 4    1  0.5080671E-005  0.5787941E+03  0.7818608E-02  0.9950405E-01
         -2   -1    0    0    0  501 -0.00000000000E+00  0.00000000000E+00  0.41959072417E+03  0.41959072418E+03  0.25500000000E-02 0.  1.
          2   -1    0    0  501    0  0.00000000000E+00 -0.00000000000E+00 -0.19960082768E+03  0.19960082770E+03  0.25500000000E-02 0. -1.
    5000001    1    1    2    0    0 -0.17802173842E+03 -0.44239733084E+02  0.21962038494E+03  0.34854412463E+03  0.19900000000E+03 0.  0.
   -5000001    1    1    2    0    0  0.17802173842E+03  0.44239733084E+02  0.36951154673E+00  0.27064742724E+03  0.19900000000E+03 0.  0.
<mgrwt>
<rscale>  0 0.57879411E+03</rscale>
<asrwt>0</asrwt>
<pdfrwt beam="1">  1        2 0.28514404E-01 0.57879411E+03</pdfrwt>
<pdfrwt beam="2">  1       -2 0.59941531E-01 0.57879411E+03</pdfrwt>
<totfact> 0.49337326E+02</totfact>
</mgrwt>
</event>
<event>
 4    1  0.5080671E-005  0.4620855E+03  0.7818608E-02  0.1024178E+00
          2   -1    0    0  501    0  0.00000000000E+00  0.00000000000E+00  0.79296199950E+03  0.79296199951E+03  0.25500000000E-02 0.  1.
         -2   -1    0    0    0  501 -0.00000000000E+00 -0.00000000000E+00 -0.67318184957E+02  0.67318185005E+02  0.25500000000E-02 0. -1.
    5000001    1    1    2    0    0 -0.50784647903E+02  0.64097925209E+02  0.51960749151E+03  0.56238827309E+03  0.19900000000E+03 0.  0.
   -5000001    1    1    2    0    0  0.50784647903E+02 -0.64097925209E+02  0.20603632304E+03  0.29789191142E+03  0.19900000000E+03 0.  0.
<mgrwt>
<rscale>  0 0.46208554E+03</rscale>
<asrwt>0</asrwt>
<pdfrwt beam="1">  1        2 0.11328028E+00 0.46208554E+03</pdfrwt>
<pdfrwt beam="2">  1       -2 0.96168843E-02 0.46208554E+03</pdfrwt>
<totfact> 0.27998297E+03</totfact>
</mgrwt>
</event>
<event>
 4    1  0.5080671E-005  0.7509261E+03  0.7818608E-02  0.9633899E-01
          2   -1    0    0  501    0  0.00000000000E+00  0.00000000000E+00  0.18122066720E+04  0.18122066720E+04  0.25500000000E-02 0.  1.
         -2   -1    0    0    0  501 -0.00000000000E+00 -0.00000000000E+00 -0.77790513169E+02  0.77790513211E+02  0.25500000000E-02 0. -1.
    5000001    1    1    2    0    0 -0.16641157749E+02  0.26054612097E+03  0.40853818568E+03  0.52408554497E+03  0.19900000000E+03 0.  0.
   -5000001    1    1    2    0    0  0.16641157749E+02 -0.26054612097E+03  0.13258779732E+04  0.13659116403E+04  0.19900000000E+03 0.  0.
<mgrwt>
<rscale>  0 0.75092606E+03</rscale>
<asrwt>0</asrwt>
<pdfrwt beam="1">  1        2 0.25888668E+00 0.75092606E+03</pdfrwt>
<pdfrwt beam="2">  1       -2 0.11112930E-01 0.75092606E+03</pdfrwt>
<totfact> 0.58840700E+02</totfact>
</mgrwt>
</event>
<event>
 4    1  0.5080671E-005  0.4377093E+03  0.7818608E-02  0.1031452E+00
         -2   -1    0    0    0  501 -0.00000000000E+00  0.00000000000E+00  0.82626116308E+02  0.82626116347E+02  0.25500000000E-02 0. -1.
          2   -1    0    0  501    0  0.00000000000E+00 -0.00000000000E+00 -0.57968792502E+03  0.57968792503E+03  0.25500000000E-02 0.  1.
    5000001    1    1    2    0    0  0.59484355477E+02  0.24496069302E+02 -0.34610084119E+03  0.40438253947E+03  0.19900000000E+03 0.  0.
   -5000001    1    1    2    0    0 -0.59484355477E+02 -0.24496069302E+02 -0.15096096752E+03  0.25793150190E+03  0.19900000000E+03 0.  0.
<mgrwt>
<rscale>  0 0.43770932E+03</rscale>
<asrwt>0</asrwt>
<pdfrwt beam="1">  1        2 0.82812558E-01 0.43770932E+03</pdfrwt>
<pdfrwt beam="2">  1       -2 0.11803731E-01 0.43770932E+03</pdfrwt>
<totfact> 0.29277337E+03</totfact>
</mgrwt>
</event>
<event>
 4    1  0.5080671E-005  0.9646619E+03  0.7818608E-02  0.9348175E-01
         -2   -1    0    0    0  501 -0.00000000000E+00  0.00000000000E+00  0.79472077031E+02  0.79472077072E+02  0.25500000000E-02 0. -1.
          2   -1    0    0  501    0  0.00000000000E+00 -0.00000000000E+00 -0.29273569141E+04  0.29273569141E+04  0.25500000000E-02 0.  1.
    5000001    1    1    2    0    0  0.38764744630E+03  0.31875420482E+02 -0.20608709640E+04  0.21066743258E+04  0.19900000000E+03 0.  0.
   -5000001    1    1    2    0    0 -0.38764744630E+03 -0.31875420482E+02 -0.78701387307E+03  0.90015466530E+03  0.19900000000E+03 0.  0.
<mgrwt>
<rscale>  0 0.96466188E+03</rscale>
<asrwt>0</asrwt>
<pdfrwt beam="1">  1        2 0.41819378E+00 0.96466188E+03</pdfrwt>
<pdfrwt beam="2">  1       -2 0.11353156E-01 0.96466188E+03</pdfrwt>
<totfact> 0.14773685E+02</totfact>
</mgrwt>
</event>
<event>
 4    1  0.5080671E-005  0.7306487E+03  0.7818608E-02  0.9666208E-01
          2   -1    0    0  501    0  0.00000000000E+00  0.00000000000E+00  0.14150267103E+03  0.14150267105E+03  0.25500000000E-02 0.  1.
         -2   -1    0    0    0  501 -0.00000000000E+00 -0.00000000000E+00 -0.94317565985E+03  0.94317565986E+03  0.25500000000E-02 0. -1.
    5000001    1    1    2    0    0 -0.26055710322E+03  0.35675604350E+02 -0.16753134409E+03  0.36990607461E+03  0.19900000000E+03 0.  0.
   -5000001    1    1    2    0    0  0.26055710322E+03 -0.35675604350E+02 -0.63414164473E+03  0.71477225629E+03  0.19900000000E+03 0.  0.
<mgrwt>
<rscale>  0 0.73064868E+03</rscale>
<asrwt>0</asrwt>
<pdfrwt beam="1">  1        2 0.20214668E-01 0.73064868E+03</pdfrwt>
<pdfrwt beam="2">  1       -2 0.13473938E+00 0.73064868E+03</pdfrwt>
<totfact> 0.11244983E+02</totfact>
</mgrwt>
</event>
<event>
 4    1  0.5080671E-005  0.4471889E+03  0.7818608E-02  0.1028564E+00
          2   -1    0    0  501    0  0.00000000000E+00  0.00000000000E+00  0.17575227110E+04  0.17575227110E+04  0.25500000000E-02 0.  1.
         -2   -1    0    0    0  501 -0.00000000000E+00 -0.00000000000E+00 -0.28445986623E+02  0.28445986737E+02  0.25500000000E-02 0. -1.
    5000001    1    1    2    0    0  0.53229969902E+02 -0.82687686659E+02  0.97190942736E+03  0.99693511234E+03  0.19900000000E+03 0.  0.
   -5000001    1    1    2    0    0 -0.53229969902E+02  0.82687686659E+02  0.75716729706E+03  0.78903358544E+03  0.19900000000E+03 0.  0.
<mgrwt>
<rscale>  0 0.44718885E+03</rscale>
<asrwt>0</asrwt>
<pdfrwt beam="1">  1        2 0.25107470E+00 0.44718885E+03</pdfrwt>
<pdfrwt beam="2">  1       -2 0.40637120E-02 0.44718885E+03</pdfrwt>
<totfact> 0.31084560E+03</totfact>
</mgrwt>
</event>
<event>
 4    1  0.5080671E-005  0.6552248E+03  0.7818608E-02  0.9797024E-01
          2   -1    0    0  501    0  0.00000000000E+00  0.00000000000E+00  0.28034163907E+04  0.28034163907E+04  0.25500000000E-02 0.  1.
         -2   -1    0    0    0  501 -0.00000000000E+00 -0.00000000000E+00 -0.38285386741E+02  0.38285386826E+02  0.25500000000E-02 0. -1.
    5000001    1    1    2    0    0 -0.22831132607E+03 -0.78655618672E+02  0.96171872284E+03  0.10113439918E+04  0.19900000000E+03 0.  0.
   -5000001    1    1    2    0    0  0.22831132607E+03  0.78655618672E+02  0.18034122811E+04  0.18303577857E+04  0.19900000000E+03 0.  0.
<mgrwt>
<rscale>  0 0.65522479E+03</rscale>
<asrwt>0</asrwt>
<pdfrwt beam="1">  1        2 0.40048817E+00 0.65522479E+03</pdfrwt>
<pdfrwt beam="2">  1       -2 0.54693394E-02 0.65522479E+03</pdfrwt>
<totfact> 0.57117825E+02</totfact>
</mgrwt>
</event>
<event>
 4    1  0.5080671E-005  0.5957657E+03  0.7818608E-02  0.9914230E-01
         -2   -1    0    0    0  501 -0.00000000000E+00  0.00000000000E+00  0.15381910319E+03  0.15381910322E+03  0.25500000000E-02 0. -1.
          2   -1    0    0  501    0  0.00000000000E+00 -0.00000000000E+00 -0.57687374037E+03  0.57687374038E+03  0.25500000000E-02 0.  1.
    5000001    1    1    2    0    0  0.17956132812E+03  0.58028956604E+02 -0.35415539637E+03  0.44792485434E+03  0.19900000000E+03 0.  0.
   -5000001    1    1    2    0    0 -0.17956132812E+03 -0.58028956604E+02 -0.68899240807E+02  0.28276798925E+03  0.19900000000E+03 0.  0.
<mgrwt>
<rscale>  0 0.59576573E+03</rscale>
<asrwt>0</asrwt>
<pdfrwt beam="1">  1        2 0.82410533E-01 0.59576573E+03</pdfrwt>
<pdfrwt beam="2">  1       -2 0.21974158E-01 0.59576573E+03</pdfrwt>
<totfact> 0.10290307E+03</totfact>
</mgrwt>
</event>
<event>
 4    1  0.5080671E-005  0.7685810E+03  0.7818608E-02  0.9606642E-01
         -2   -1    0    0    0  501 -0.00000000000E+00  0.00000000000E+00  0.10156169837E+03  0.10156169841E+03  0.25500000000E-02 0. -1.
          2   -1    0    0  501    0  0.00000000000E+00 -0.00000000000E+00 -0.14540833879E+04  0.14540833879E+04  0.25500000000E-02 0.  1.
    5000001    1    1    2    0    0  0.78740962284E+02 -0.28116848979E+03 -0.37048668300E+03  0.51197386756E+03  0.19900000000E+03 0.  0.
   -5000001    1    1    2    0    0 -0.78740962284E+02  0.28116848979E+03 -0.98203500655E+03  0.10436712188E+04  0.19900000000E+03 0.  0.
<mgrwt>
<rscale>  0 0.76858097E+03</rscale>
<asrwt>0</asrwt>
<pdfrwt beam="1">  1        2 0.20772618E+00 0.76858097E+03</pdfrwt>
<pdfrwt beam="2">  1       -2 0.14508815E-01 0.76858097E+03</pdfrwt>
<totfact> 0.57795554E+02</totfact>
</mgrwt>
</event>
<event>
 4    1  0.5080671E-005  0.6758770E+03  0.7818608E-02  0.9759399E-01
          2   -1    0    0  501    0  0.00000000000E+00  0.00000000000E+00  0.53323785020E+02  0.53323785081E+02  0.25500000000E-02 0.  1.
         -2   -1    0    0    0  501 -0.00000000000E+00 -0.00000000000E+00 -0.21416792610E+04  0.21416792610E+04  0.25500000000E-02 0. -1.
    5000001    1    1    2    0    0 -0.18615530927E+03  0.19011164137E+03 -0.12445126785E+04  0.12881028849E+04  0.19900000000E+03 0.  0.
   -5000001    1    1    2    0    0  0.18615530927E+03 -0.19011164137E+03 -0.84384279756E+03  0.90690016118E+03  0.19900000000E+03 0.  0.
<mgrwt>
<rscale>  0 0.67587704E+03</rscale>
<asrwt>0</asrwt>
<pdfrwt beam="1">  1        2 0.76176849E-02 0.67587704E+03</pdfrwt>
<pdfrwt beam="2">  1       -2 0.30595413E+00 0.67587704E+03</pdfrwt>
<totfact> 0.29001779E+01</totfact>
</mgrwt>
</event>
<event>
 4    1  0.5080671E-005  0.5708158E+03  0.7818608E-02  0.9967875E-01
          2   -1    0    0  501    0  0.00000000000E+00  0.00000000000E+00  0.40671259088E+03  0.40671259088E+03  0.25500000000E-02 0.  1.
         -2   -1    0    0    0  501 -0.00000000000E+00 -0.00000000000E+00 -0.20028309177E+03  0.20028309178E+03  0.25500000000E-02 0. -1.
    5000001    1    1    2    0    0 -0.17958230312E+03  0.59729817947E+01  0.20724802786E+03  0.33887789122E+03  0.19900000000E+03 0.  0.
   -5000001    1    1    2    0    0  0.17958230312E+03 -0.59729817947E+01 -0.81852875335E+00  0.26811779145E+03  0.19900000000E+03 0.  0.
<mgrwt>
<rscale>  0 0.57081575E+03</rscale>
<asrwt>0</asrwt>
<pdfrwt beam="1">  1        2 0.58101800E-01 0.57081575E+03</pdfrwt>
<pdfrwt beam="2">  1       -2 0.28611870E-01 0.57081575E+03</pdfrwt>
<totfact> 0.95238141E+02</totfact>
</mgrwt>
</event>
<event>
 4    1  0.5080671E-005  0.4787587E+03  0.7818608E-02  0.1019477E+00
         -2   -1    0    0    0  501 -0.00000000000E+00  0.00000000000E+00  0.24134501243E+03  0.24134501244E+03  0.25500000000E-02 0.  1.
          2   -1    0    0  501    0  0.00000000000E+00 -0.00000000000E+00 -0.23742966100E+03  0.23742966102E+03  0.25500000000E-02 0. -1.
    5000001    1    1    2    0    0 -0.70963420151E+02 -0.10144627904E+03  0.50686196738E+02  0.23978583167E+03  0.19900000000E+03 0.  0.
   -5000001    1    1    2    0    0  0.70963420151E+02  0.10144627904E+03 -0.46770845313E+02  0.23898884179E+03  0.19900000000E+03 0.  0.
<mgrwt>
<rscale>  0 0.47875866E+03</rscale>
<asrwt>0</asrwt>
<pdfrwt beam="1">  1        2 0.33918523E-01 0.47875866E+03</pdfrwt>
<pdfrwt beam="2">  1       -2 0.34477859E-01 0.47875866E+03</pdfrwt>
<totfact> 0.12197463E+03</totfact>
</mgrwt>
</event>
<event>
 4    1  0.5080671E-005  0.8717467E+03  0.7818608E-02  0.9461605E-01
          2   -1    0    0  501    0  0.00000000000E+00  0.00000000000E+00  0.13620764385E+04  0.13620764385E+04  0.25500000000E-02 0.  1.
         -2   -1    0    0    0  501 -0.00000000000E+00 -0.00000000000E+00 -0.13948233121E+03  0.13948233124E+03  0.25500000000E-02 0. -1.
    5000001    1    1    2    0    0 -0.33303996873E+03  0.11427369154E+03  0.33137294200E+03  0.52286052064E+03  0.19900000000E+03 0.  0.
   -5000001    1    1    2    0    0  0.33303996873E+03 -0.11427369154E+03  0.89122116529E+03  0.97869824911E+03  0.19900000000E+03 0.  0.
<mgrwt>
<rscale>  0 0.87174675E+03</rscale>
<asrwt>0</asrwt>
<pdfrwt beam="1">  1        2 0.19458234E+00 0.87174675E+03</pdfrwt>
<pdfrwt beam="2">  1       -2 0.19926048E-01 0.87174675E+03</pdfrwt>
<totfact> 0.37354919E+02</totfact>
</mgrwt>
</event>
<event>
 4    1  0.5080671E-005  0.5253078E+03  0.7818608E-02  0.1007376E+00
          2   -1    0    0  501    0  0.00000000000E+00  0.00000000000E+00  0.12460232982E+03  0.12460232984E+03  0.25500000000E-02 0.  1.
         -2   -1    0    0    0  501 -0.00000000000E+00 -0.00000000000E+00 -0.55365802816E+03  0.55365802816E+03  0.25500000000E-02 0. -1.
    5000001    1    1    2    0    0 -0.15949237711E+03 -0.61974392169E+02 -0.22791100956E+03  0.34759613335E+03  0.19900000000E+03 0.  0.
   -5000001    1    1    2    0    0  0.15949237711E+03  0.61974392169E+02 -0.20114468879E+03  0.33066422466E+03  0.19900000000E+03 0.  0.
<mgrwt>
<rscale>  0 0.52530783E+03</rscale>
<asrwt>0</asrwt>
<pdfrwt beam="1">  1        2 0.17800333E-01 0.52530783E+03</pdfrwt>
<pdfrwt beam="2">  1       -2 0.79094003E-01 0.52530783E+03</pdfrwt>
<totfact> 0.46688577E+02</totfact>
</mgrwt>
</event>
<event>
 4    1  0.5080671E-005  0.1075600E+04  0.7818608E-02  0.9229306E-01
          2   -1    0    0  501    0  0.00000000000E+00  0.00000000000E+00  0.40422741227E+04  0.40422741227E+04  0.25500000000E-02 0.  1.
         -2   -1    0    0    0  501 -0.00000000000E+00 -0.00000000000E+00 -0.71550986974E+02  0.71550987020E+02  0.25500000000E-02 0. -1.
    5000001    1    1    2    0    0 -0.45149425748E+03 -0.15109895091E+03  0.25647690145E+04  0.26161649519E+04  0.19900000000E+03 0.  0.
   -5000001    1    1    2    0    0  0.45149425748E+03  0.15109895091E+03  0.14059541212E+04  0.14976601578E+04  0.19900000000E+03 0.  0.
<mgrwt>
<rscale>  0 0.10755997E+04</rscale>
<asrwt>0</asrwt>
<pdfrwt beam="1">  1        2 0.57746799E+00 0.10755997E+04</pdfrwt>
<pdfrwt beam="2">  1       -2 0.10221565E-01 0.10755997E+04</pdfrwt>
<totfact> 0.36697997E+01</totfact>
</mgrwt>
</event>
<event>
 4    1  0.5080671E-005  0.5877515E+03  0.7818608E-02  0.9931149E-01
          2   -1    0    0  501    0  0.00000000000E+00  0.00000000000E+00  0.44030429995E+03  0.44030429995E+03  0.25500000000E-02 0.  1.
         -2   -1    0    0    0  501 -0.00000000000E+00 -0.00000000000E+00 -0.19614376548E+03  0.19614376550E+03  0.25500000000E-02 0. -1.
    5000001    1    1    2    0    0 -0.46931405356E+02 -0.20335964708E+03  0.18337622133E+03  0.34173899605E+03  0.19900000000E+03 0.  0.
   -5000001    1    1    2    0    0  0.46931405356E+02  0.20335964708E+03  0.60784313130E+02  0.29470906941E+03  0.19900000000E+03 0.  0.
<mgrwt>
<rscale>  0 0.58775146E+03</rscale>
<asrwt>0</asrwt>
<pdfrwt beam="1">  1        2 0.62900615E-01 0.58775146E+03</pdfrwt>
<pdfrwt beam="2">  1       -2 0.28020538E-01 0.58775146E+03</pdfrwt>
<totfact> 0.90555960E+02</totfact>
</mgrwt>
</event>
<event>
 4    1  0.5080671E-005  0.2950669E+04  0.7818608E-02  0.8257960E-01
         -2   -1    0    0    0  501 -0.00000000000E+00  0.00000000000E+00  0.11523524172E+04  0.11523524172E+04  0.25500000000E-02 0. -1.
          2   -1    0    0  501    0  0.00000000000E+00 -0.00000000000E+00 -0.18888424309E+04  0.18888424309E+04  0.25500000000E-02 0.  1.
    5000001    1    1    2    0    0 -0.48539766531E+03 -0.80282543608E+03  0.78725293850E+03  0.12407690210E+04  0.19900000000E+03 0.  0.
   -5000001    1    1    2    0    0  0.48539766531E+03  0.80282543608E+03 -0.15237429523E+04  0.18004258271E+04  0.19900000000E+03 0.  0.
<mgrwt>
<rscale>  0 0.29506692E+04</rscale>
<asrwt>0</asrwt>
<pdfrwt beam="1">  1        2 0.26983463E+00 0.29506692E+04</pdfrwt>
<pdfrwt beam="2">  1       -2 0.16462177E+00 0.29506692E+04</pdfrwt>
<totfact> 0.18479721E+00</totfact>
</mgrwt>
</event>
<event>
 4    1  0.5080671E-005  0.9930238E+03  0.7818608E-02  0.9316229E-01
         -2   -1    0    0    0  501 -0.00000000000E+00  0.00000000000E+00  0.69803087489E+02  0.69803087536E+02  0.25500000000E-02 0. -1.
          2   -1    0    0  501    0  0.00000000000E+00 -0.00000000000E+00 -0.35317072453E+04  0.35317072453E+04  0.25500000000E-02 0.  1.
    5000001    1    1    2    0    0  0.44714687463E+03 -0.72802927450E+02 -0.18797166339E+04  0.19437531267E+04  0.19900000000E+03 0.  0.
   -5000001    1    1    2    0    0 -0.44714687463E+03  0.72802927450E+02 -0.15821875239E+04  0.16577572062E+04  0.19900000000E+03 0.  0.
<mgrwt>
<rscale>  0 0.99302381E+03</rscale>
<asrwt>0</asrwt>
<pdfrwt beam="1">  1        2 0.50452949E+00 0.99302381E+03</pdfrwt>
<pdfrwt beam="2">  1       -2 0.99718719E-02 0.99302381E+03</pdfrwt>
<totfact> 0.82106490E+01</totfact>
</mgrwt>
</event>
<event>
 4    1  0.5080671E-005  0.7050440E+03  0.7818608E-02  0.9708645E-01
          2   -1    0    0  501    0  0.00000000000E+00  0.00000000000E+00  0.57215655182E+03  0.57215655183E+03  0.25500000000E-02 0.  1.
         -2   -1    0    0    0  501 -0.00000000000E+00 -0.00000000000E+00 -0.21719885760E+03  0.21719885761E+03  0.25500000000E-02 0. -1.
    5000001    1    1    2    0    0 -0.10826406841E+02 -0.18772665365E+03  0.42609752998E+03  0.50647666544E+03  0.19900000000E+03 0.  0.
   -5000001    1    1    2    0    0  0.10826406841E+02  0.18772665365E+03 -0.71139835754E+02  0.28287874400E+03  0.19900000000E+03 0.  0.
<mgrwt>
<rscale>  0 0.70504397E+03</rscale>
<asrwt>0</asrwt>
<pdfrwt beam="1">  1        2 0.81736650E-01 0.70504397E+03</pdfrwt>
<pdfrwt beam="2">  1       -2 0.31028408E-01 0.70504397E+03</pdfrwt>
<totfact> 0.55500080E+02</totfact>
</mgrwt>
</event>
<event>
 4    1  0.5080671E-005  0.5494190E+03  0.7818608E-02  0.1001629E+00
          2   -1    0    0  501    0  0.00000000000E+00  0.00000000000E+00  0.23472920692E+04  0.23472920692E+04  0.25500000000E-02 0.  1.
         -2   -1    0    0    0  501 -0.00000000000E+00 -0.00000000000E+00 -0.32149939495E+02  0.32149939597E+02  0.25500000000E-02 0. -1.
    5000001    1    1    2    0    0 -0.79405926852E+02 -0.17121277161E+03  0.12253847457E+04  0.12557021499E+04  0.19900000000E+03 0.  0.
   -5000001    1    1    2    0    0  0.79405926852E+02  0.17121277161E+03  0.10897573840E+04  0.11237398588E+04  0.19900000000E+03 0.  0.
<mgrwt>
<rscale>  0 0.54941896E+03</rscale>
<asrwt>0</asrwt>
<pdfrwt beam="1">  1        2 0.33532747E+00 0.54941896E+03</pdfrwt>
<pdfrwt beam="2">  1       -2 0.45928480E-02 0.54941896E+03</pdfrwt>
<totfact> 0.13000349E+03</totfact>
</mgrwt>
</event>
<event>
 4    1  0.5080671E-005  0.1036204E+04  0.7818608E-02  0.9269705E-01
          2   -1    0    0  501    0  0.00000000000E+00  0.00000000000E+00  0.65274237630E+03  0.65274237631E+03  0.25500000000E-02 0.  1.
         -2   -1    0    0    0  501 -0.00000000000E+00 -0.00000000000E+00 -0.41123370744E+03  0.41123370745E+03  0.25500000000E-02 0. -1.
    5000001    1    1    2    0    0  0.15143158668E+03 -0.44593515751E+03  0.20690157979E+03  0.55154234095E+03  0.19900000000E+03 0.  0.
   -5000001    1    1    2    0    0 -0.15143158668E+03  0.44593515751E+03  0.34607089079E+02  0.51243374280E+03  0.19900000000E+03 0.  0.
<mgrwt>
<rscale>  0 0.10362040E+04</rscale>
<asrwt>0</asrwt>
<pdfrwt beam="1">  1        2 0.93248910E-01 0.10362040E+04</pdfrwt>
<pdfrwt beam="2">  1       -2 0.58747673E-01 0.10362040E+04</pdfrwt>
<totfact> 0.13238691E+02</totfact>
</mgrwt>
</event>
<event>
 4    1  0.5080671E-005  0.6412197E+03  0.7818608E-02  0.9823396E-01
          2   -1    0    0  501    0  0.00000000000E+00  0.00000000000E+00  0.33244201349E+04  0.33244201349E+04  0.25500000000E-02 0.  1.
         -2   -1    0    0    0  501 -0.00000000000E+00 -0.00000000000E+00 -0.30919883118E+02  0.30919883223E+02  0.25500000000E-02 0. -1.
    5000001    1    1    2    0    0  0.17659947798E+03  0.16237536264E+03  0.12538915138E+04  0.12920518807E+04  0.19900000000E+03 0.  0.
   -5000001    1    1    2    0    0 -0.17659947798E+03 -0.16237536264E+03  0.20396087380E+04  0.20632881374E+04  0.19900000000E+03 0.  0.
<mgrwt>
<rscale>  0 0.64121972E+03</rscale>
<asrwt>0</asrwt>
<pdfrwt beam="1">  1        2 0.47491740E+00 0.64121972E+03</pdfrwt>
<pdfrwt beam="2">  1       -2 0.44171240E-02 0.64121972E+03</pdfrwt>
<totfact> 0.41132110E+02</totfact>
</mgrwt>
</event>
<event>
 4    1  0.5080671E-005  0.8135032E+03  0.7818608E-02  0.9540675E-01
          2   -1    0    0  501    0  0.00000000000E+00  0.00000000000E+00  0.32807680336E+03  0.32807680337E+03  0.25500000000E-02 0.  1.
         -2   -1    0    0    0  501 -0.00000000000E+00 -0.00000000000E+00 -0.50429311602E+03  0.50429311602E+03  0.25500000000E-02 0. -1.
    5000001    1    1    2    0    0 -0.13892490712E+03  0.23806556994E+03 -0.31660440927E+03  0.46455860489E+03  0.19900000000E+03 0.  0.
   -5000001    1    1    2    0    0  0.13892490712E+03 -0.23806556994E+03  0.14038809662E+03  0.36781131451E+03  0.19900000000E+03 0.  0.
<mgrwt>
<rscale>  0 0.81350322E+03</rscale>
<asrwt>0</asrwt>
<pdfrwt beam="1">  1        2 0.46868115E-01 0.81350322E+03</pdfrwt>
<pdfrwt beam="2">  1       -2 0.72041873E-01 0.81350322E+03</pdfrwt>
<totfact> 0.18969595E+02</totfact>
</mgrwt>
</event>
<event>
 4    1  0.5080671E-005  0.7172499E+03  0.7818608E-02  0.9688179E-01
          2   -1    0    0  501    0  0.00000000000E+00  0.00000000000E+00  0.41666996912E+03  0.41666996912E+03  0.25500000000E-02 0.  1.
         -2   -1    0    0    0  501 -0.00000000000E+00 -0.00000000000E+00 -0.30866600476E+03  0.30866600477E+03  0.25500000000E-02 0. -1.
    5000001    1    1    2    0    0 -0.16463585281E+03  0.15685920497E+01  0.30561092816E+03  0.40013305777E+03  0.19900000000E+03 0.  0.
   -5000001    1    1    2    0    0  0.16463585281E+03 -0.15685920497E+01 -0.19760696381E+03  0.32520291612E+03  0.19900000000E+03 0.  0.
<mgrwt>
<rscale>  0 0.71724990E+03</rscale>
<asrwt>0</asrwt>
<pdfrwt beam="1">  1        2 0.59524281E-01 0.71724990E+03</pdfrwt>
<pdfrwt beam="2">  1       -2 0.44095144E-01 0.71724990E+03</pdfrwt>
<totfact> 0.40575396E+02</totfact>
</mgrwt>
</event>
<event>
 4    1  0.5080671E-005  0.8667356E+03  0.7818608E-02  0.9468146E-01
          2   -1    0    0  501    0  0.00000000000E+00  0.00000000000E+00  0.76834547702E+03  0.76834547703E+03  0.25500000000E-02 0.  1.
         -2   -1    0    0    0  501 -0.00000000000E+00 -0.00000000000E+00 -0.24443125587E+03  0.24443125589E+03  0.25500000000E-02 0. -1.
    5000001    1    1    2    0    0  0.21303273865E+03 -0.18976969232E+03  0.56398817030E+03  0.66263047024E+03  0.19900000000E+03 0.  0.
   -5000001    1    1    2    0    0 -0.21303273865E+03  0.18976969232E+03 -0.40073949149E+02  0.35014626267E+03  0.19900000000E+03 0.  0.
<mgrwt>
<rscale>  0 0.86673560E+03</rscale>
<asrwt>0</asrwt>
<pdfrwt beam="1">  1        2 0.10976364E+00 0.86673560E+03</pdfrwt>
<pdfrwt beam="2">  1       -2 0.34918751E-01 0.86673560E+03</pdfrwt>
<totfact> 0.30858057E+02</totfact>
</mgrwt>
</event>
<event>
 4    1  0.5080671E-005  0.5253130E+03  0.7818608E-02  0.1007375E+00
          2   -1    0    0  501    0  0.00000000000E+00  0.00000000000E+00  0.44477836315E+02  0.44477836388E+02  0.25500000000E-02 0.  1.
         -2   -1    0    0    0  501 -0.00000000000E+00 -0.00000000000E+00 -0.15510746844E+04  0.15510746844E+04  0.25500000000E-02 0. -1.
    5000001    1    1    2    0    0  0.14599886964E+03  0.62729663889E+02 -0.94865290149E+03  0.98223928254E+03  0.19900000000E+03 0.  0.
   -5000001    1    1    2    0    0 -0.14599886964E+03 -0.62729663889E+02 -0.55794394662E+03  0.61331323827E+03  0.19900000000E+03 0.  0.
<mgrwt>
<rscale>  0 0.52531303E+03</rscale>
<asrwt>0</asrwt>
<pdfrwt beam="1">  1        2 0.63539776E-02 0.52531303E+03</pdfrwt>
<pdfrwt beam="2">  1       -2 0.22158206E+00 0.52531303E+03</pdfrwt>
<totfact> 0.11983876E+02</totfact>
</mgrwt>
</event>
<event>
 4    1  0.5080671E-005  0.4434424E+03  0.7818608E-02  0.1029696E+00
         -2   -1    0    0    0  501 -0.00000000000E+00  0.00000000000E+00  0.10078260824E+03  0.10078260827E+03  0.25500000000E-02 0. -1.
          2   -1    0    0  501    0  0.00000000000E+00 -0.00000000000E+00 -0.48778554070E+03  0.48778554070E+03  0.25500000000E-02 0.  1.
    5000001    1    1    2    0    0  0.74721591497E+02  0.59338979743E+02 -0.22180902017E+03  0.31289722303E+03  0.19900000000E+03 0.  0.
   -5000001    1    1    2    0    0 -0.74721591497E+02 -0.59338979743E+02 -0.16519391229E+03  0.27567092594E+03  0.19900000000E+03 0.  0.
<mgrwt>
<rscale>  0 0.44344244E+03</rscale>
<asrwt>0</asrwt>
<pdfrwt beam="1">  1        2 0.69683647E-01 0.44344244E+03</pdfrwt>
<pdfrwt beam="2">  1       -2 0.14397516E-01 0.44344244E+03</pdfrwt>
<totfact> 0.25688352E+03</totfact>
</mgrwt>
</event>
<event>
 4    1  0.5080671E-005  0.7200826E+03  0.7818608E-02  0.9683492E-01
         -2   -1    0    0    0  501 -0.00000000000E+00  0.00000000000E+00  0.14665097188E+03  0.14665097190E+03  0.25500000000E-02 0. -1.
          2   -1    0    0  501    0  0.00000000000E+00 -0.00000000000E+00 -0.88393358945E+03  0.88393358946E+03  0.25500000000E-02 0.  1.
    5000001    1    1    2    0    0 -0.23350144443E+03 -0.14939934607E+03 -0.20429808530E+03  0.39772075230E+03  0.19900000000E+03 0.  0.
   -5000001    1    1    2    0    0  0.23350144443E+03  0.14939934607E+03 -0.53298453228E+03  0.63286380905E+03  0.19900000000E+03 0.  0.
<mgrwt>
<rscale>  0 0.72008255E+03</rscale>
<asrwt>0</asrwt>
<pdfrwt beam="1">  1        2 0.12627622E+00 0.72008255E+03</pdfrwt>
<pdfrwt beam="2">  1       -2 0.20950139E-01 0.72008255E+03</pdfrwt>
<totfact> 0.65746766E+02</totfact>
</mgrwt>
</event>
<event>
 4    1  0.5080671E-005  0.6085828E+03  0.7818608E-02  0.9887758E-01
          2   -1    0    0  501    0  0.00000000000E+00  0.00000000000E+00  0.11047381201E+04  0.11047381201E+04  0.25500000000E-02 0.  1.
         -2   -1    0    0    0  501 -0.00000000000E+00 -0.00000000000E+00 -0.83814667944E+02  0.83814667982E+02  0.25500000000E-02 0. -1.
    5000001    1    1    2    0    0 -0.22367365493E+03  0.49303694077E+02  0.55548640855E+03  0.63295095248E+03  0.19900000000E+03 0.  0.
   -5000001    1    1    2    0    0  0.22367365493E+03 -0.49303694077E+02  0.46543704356E+03  0.55560183556E+03  0.19900000000E+03 0.  0.
<mgrwt>
<rscale>  0 0.60858281E+03</rscale>
<asrwt>0</asrwt>
<pdfrwt beam="1">  1        2 0.15781974E+00 0.60858281E+03</pdfrwt>
<pdfrwt beam="2">  1       -2 0.11973523E-01 0.60858281E+03</pdfrwt>
<totfact> 0.12477570E+03</totfact>
</mgrwt>
</event>
<event>
 4    1  0.5080671E-005  0.7404204E+03  0.7818608E-02  0.9650500E-01
          2   -1    0    0  501    0  0.00000000000E+00  0.00000000000E+00  0.27439314525E+04  0.27439314525E+04  0.25500000000E-02 0.  1.
         -2   -1    0    0    0  501 -0.00000000000E+00 -0.00000000000E+00 -0.49948623798E+02  0.49948623863E+02  0.25500000000E-02 0. -1.
    5000001    1    1    2    0    0  0.27724200372E+03  0.46352541075E+02  0.18594327260E+04  0.18910586319E+04  0.19900000000E+03 0.  0.
   -5000001    1    1    2    0    0 -0.27724200372E+03 -0.46352541075E+02  0.83455010268E+03  0.90282144446E+03  0.19900000000E+03 0.  0.
<mgrwt>
<rscale>  0 0.74042042E+03</rscale>
<asrwt>0</asrwt>
<pdfrwt beam="1">  1        2 0.39199030E+00 0.74042042E+03</pdfrwt>
<pdfrwt beam="2">  1       -2 0.71355160E-02 0.74042042E+03</pdfrwt>
<totfact> 0.40105833E+02</totfact>
</mgrwt>
</event>
<event>
 4    1  0.5080671E-005  0.5892195E+03  0.7818608E-02  0.9928028E-01
          2   -1    0    0  501    0  0.00000000000E+00  0.00000000000E+00  0.16803662599E+04  0.16803662599E+04  0.25500000000E-02 0.  1.
         -2   -1    0    0    0  501 -0.00000000000E+00 -0.00000000000E+00 -0.51652374246E+02  0.51652374309E+02  0.25500000000E-02 0. -1.
    5000001    1    1    2    0    0  0.11681053507E+03 -0.17703347182E+03  0.67621996190E+03  0.73611139654E+03  0.19900000000E+03 0.  0.
   -5000001    1    1    2    0    0 -0.11681053507E+03  0.17703347182E+03  0.95249392373E+03  0.99590723764E+03  0.19900000000E+03 0.  0.
<mgrwt>
<rscale>  0 0.58921951E+03</rscale>
<asrwt>0</asrwt>
<pdfrwt beam="1">  1        2 0.24005227E+00 0.58921951E+03</pdfrwt>
<pdfrwt beam="2">  1       -2 0.73789123E-02 0.58921951E+03</pdfrwt>
<totfact> 0.13397257E+03</totfact>
</mgrwt>
</event>
<event>
 4    1  0.5080671E-005  0.6042473E+03  0.7818608E-02  0.9896633E-01
          2   -1    0    0  501    0  0.00000000000E+00  0.00000000000E+00  0.11207925138E+03  0.11207925141E+03  0.25500000000E-02 0.  1.
         -2   -1    0    0    0  501 -0.00000000000E+00 -0.00000000000E+00 -0.81441208085E+03  0.81441208085E+03  0.25500000000E-02 0. -1.
    5000001    1    1    2    0    0  0.20289254961E+02  0.22573621944E+03 -0.32420469438E+03  0.44280715723E+03  0.19900000000E+03 0.  0.
   -5000001    1    1    2    0    0 -0.20289254961E+02 -0.22573621944E+03 -0.37812813508E+03  0.48368417503E+03  0.19900000000E+03 0.  0.
<mgrwt>
<rscale>  0 0.60424729E+03</rscale>
<asrwt>0</asrwt>
<pdfrwt beam="1">  1        2 0.16011322E-01 0.60424729E+03</pdfrwt>
<pdfrwt beam="2">  1       -2 0.11634458E+00 0.60424729E+03</pdfrwt>
<totfact> 0.21504619E+02</totfact>
</mgrwt>
</event>
<event>
 4    1  0.5080671E-005  0.7386897E+03  0.7818608E-02  0.9653263E-01
          2   -1    0    0  501    0  0.00000000000E+00  0.00000000000E+00  0.14833553083E+04  0.14833553084E+04  0.25500000000E-02 0.  1.
         -2   -1    0    0    0  501 -0.00000000000E+00 -0.00000000000E+00 -0.91964221688E+02  0.91964221724E+02  0.25500000000E-02 0. -1.
    5000001    1    1    2    0    0  0.27452236705E+03 -0.94067913797E+02  0.93510924164E+03  0.99912041127E+03  0.19900000000E+03 0.  0.
   -5000001    1    1    2    0    0 -0.27452236705E+03  0.94067913797E+02  0.45628184502E+03  0.57619911880E+03  0.19900000000E+03 0.  0.
<mgrwt>
<rscale>  0 0.73868970E+03</rscale>
<asrwt>0</asrwt>
<pdfrwt beam="1">  1        2 0.21190789E+00 0.73868970E+03</pdfrwt>
<pdfrwt beam="2">  1       -2 0.13137747E-01 0.73868970E+03</pdfrwt>
<totfact> 0.65967455E+02</totfact>
</mgrwt>
</event>
<event>
 4    1  0.5080671E-005  0.1255575E+04  0.7818608E-02  0.9065556E-01
          2   -1    0    0  501    0  0.00000000000E+00  0.00000000000E+00  0.11665899996E+04  0.11665899996E+04  0.25500000000E-02 0.  1.
         -2   -1    0    0    0  501 -0.00000000000E+00 -0.00000000000E+00 -0.33783708973E+03  0.33783708974E+03  0.25500000000E-02 0. -1.
    5000001    1    1    2    0    0 -0.49616282714E+03  0.39962723168E+02  0.22909036118E+02  0.53656350436E+03  0.19900000000E+03 0.  0.
   -5000001    1    1    2    0    0  0.49616282714E+03 -0.39962723168E+02  0.80584387378E+03  0.96786358501E+03  0.19900000000E+03 0.  0.
<mgrwt>
<rscale>  0 0.12555754E+04</rscale>
<asrwt>0</asrwt>
<pdfrwt beam="1">  1        2 0.16665571E+00 0.12555754E+04</pdfrwt>
<pdfrwt beam="2">  1       -2 0.48262441E-01 0.12555754E+04</pdfrwt>
<totfact> 0.89316743E+01</totfact>
</mgrwt>
</event>
<event>
 4    1  0.5080671E-005  0.6954059E+03  0.7818608E-02  0.9725121E-01
         -2   -1    0    0    0  501 -0.00000000000E+00  0.00000000000E+00  0.72195904342E+02  0.72195904387E+02  0.25500000000E-02 0. -1.
          2   -1    0    0  501    0  0.00000000000E+00 -0.00000000000E+00 -0.16745734564E+04  0.16745734564E+04  0.25500000000E-02 0.  1.
    5000001    1    1    2    0    0 -0.12634299857E+03 -0.16597565421E+03 -0.12894608928E+04  0.13212951469E+04  0.19900000000E+03 0.  0.
   -5000001    1    1    2    0    0  0.12634299857E+03  0.16597565421E+03 -0.31291665931E+03  0.42547421397E+03  0.19900000000E+03 0.  0.
<mgrwt>
<rscale>  0 0.69540591E+03</rscale>
<asrwt>0</asrwt>
<pdfrwt beam="1">  1        2 0.23922476E+00 0.69540591E+03</pdfrwt>
<pdfrwt beam="2">  1       -2 0.10313702E-01 0.69540591E+03</pdfrwt>
<totfact> 0.78385684E+02</totfact>
</mgrwt>
</event>
<event>
 4    1  0.5080671E-005  0.6244464E+03  0.7818608E-02  0.9855947E-01
          2   -1    0    0  501    0  0.00000000000E+00  0.00000000000E+00  0.10879757710E+04  0.10879757710E+04  0.25500000000E-02 0.  1.
         -2   -1    0    0    0  501 -0.00000000000E+00 -0.00000000000E+00 -0.89600647088E+02  0.89600647124E+02  0.25500000000E-02 0. -1.
    5000001    1    1    2    0    0  0.21202273575E+03 -0.10635379929E+03  0.42334301002E+03  0.52448553387E+03  0.19900000000E+03 0.  0.
   -5000001    1    1    2    0    0 -0.21202273575E+03  0.10635379929E+03  0.57503211389E+03  0.65309088426E+03  0.19900000000E+03 0.  0.
<mgrwt>
<rscale>  0 0.62444642E+03</rscale>
<asrwt>0</asrwt>
<pdfrwt beam="1">  1        2 0.15542509E+00 0.62444642E+03</pdfrwt>
<pdfrwt beam="2">  1       -2 0.12800094E-01 0.62444642E+03</pdfrwt>
<totfact> 0.11424557E+03</totfact>
</mgrwt>
</event>
<event>
 4    1  0.5080671E-005  0.4510302E+03  0.7818608E-02  0.1027415E+00
         -2   -1    0    0    0  501 -0.00000000000E+00  0.00000000000E+00  0.15588699916E+03  0.15588699918E+03  0.25500000000E-02 0. -1.
          2   -1    0    0  501    0  0.00000000000E+00 -0.00000000000E+00 -0.32624305759E+03  0.32624305760E+03  0.25500000000E-02 0.  1.
    5000001    1    1    2    0    0 -0.77406936462E+02  0.55087486826E+02 -0.34703676210E+02  0.22323039703E+03  0.19900000000E+03 0.  0.
   -5000001    1    1    2    0    0  0.77406936462E+02 -0.55087486826E+02 -0.13565238221E+03  0.25889965975E+03  0.19900000000E+03 0.  0.
<mgrwt>
<rscale>  0 0.45103016E+03</rscale>
<asrwt>0</asrwt>
<pdfrwt beam="1">  1        2 0.46606151E-01 0.45103016E+03</pdfrwt>
<pdfrwt beam="2">  1       -2 0.22269571E-01 0.45103016E+03</pdfrwt>
<totfact> 0.19016345E+03</totfact>
</mgrwt>
</event>
<event>
 4    1  0.5080671E-005  0.8617333E+03  0.7818608E-02  0.9474723E-01
          2   -1    0    0  501    0  0.00000000000E+00  0.00000000000E+00  0.54944683860E+03  0.54944683860E+03  0.25500000000E-02 0.  1.
         -2   -1    0    0    0  501 -0.00000000000E+00 -0.00000000000E+00 -0.33787809172E+03  0.33787809173E+03  0.25500000000E-02 0. -1.
    5000001    1    1    2    0    0 -0.27167920365E+03  0.25238145270E+03  0.10633032105E+02  0.42097511653E+03  0.19900000000E+03 0.  0.
   -5000001    1    1    2    0    0  0.27167920365E+03 -0.25238145270E+03  0.20093571478E+03  0.46634981380E+03  0.19900000000E+03 0.  0.
<mgrwt>
<rscale>  0 0.86173325E+03</rscale>
<asrwt>0</asrwt>
<pdfrwt beam="1">  1        2 0.78492406E-01 0.86173325E+03</pdfrwt>
<pdfrwt beam="2">  1       -2 0.48268299E-01 0.86173325E+03</pdfrwt>
<totfact> 0.24573360E+02</totfact>
</mgrwt>
</event>
<event>
 4    1  0.5080671E-005  0.5114793E+03  0.7818608E-02  0.1010825E+00
         -2   -1    0    0    0  501 -0.00000000000E+00  0.00000000000E+00  0.38788925480E+02  0.38788925564E+02  0.25500000000E-02 0. -1.
          2   -1    0    0  501    0  0.00000000000E+00 -0.00000000000E+00 -0.16861198243E+04  0.16861198243E+04  0.25500000000E-02 0.  1.
    5000001    1    1    2    0    0 -0.15779597626E+03  0.19910905542E+02 -0.89950768715E+03  0.93488560452E+03  0.19900000000E+03 0.  0.
   -5000001    1    1    2    0    0  0.15779597626E+03 -0.19910905542E+02 -0.74782321165E+03  0.79002314534E+03  0.19900000000E+03 0.  0.
<mgrwt>
<rscale>  0 0.51147933E+03</rscale>
<asrwt>0</asrwt>
<pdfrwt beam="1">  1        2 0.24087421E+00 0.51147933E+03</pdfrwt>
<pdfrwt beam="2">  1       -2 0.55412761E-02 0.51147933E+03</pdfrwt>
<totfact> 0.20914319E+03</totfact>
</mgrwt>
</event>
<event>
 4    1  0.5080671E-005  0.7434578E+03  0.7818608E-02  0.9645670E-01
          2   -1    0    0  501    0  0.00000000000E+00  0.00000000000E+00  0.11867056361E+04  0.11867056361E+04  0.25500000000E-02 0.  1.
         -2   -1    0    0    0  501 -0.00000000000E+00 -0.00000000000E+00 -0.11644200321E+03  0.11644200324E+03  0.25500000000E-02 0. -1.
    5000001    1    1    2    0    0 -0.18313854447E+02  0.28709524884E+03  0.75561330326E+03  0.83265331515E+03  0.19900000000E+03 0.  0.
   -5000001    1    1    2    0    0  0.18313854447E+02 -0.28709524884E+03  0.31465032965E+03  0.47049432422E+03  0.19900000000E+03 0.  0.
<mgrwt>
<rscale>  0 0.74345782E+03</rscale>
<asrwt>0</asrwt>
<pdfrwt beam="1">  1        2 0.16952938E+00 0.74345782E+03</pdfrwt>
<pdfrwt beam="2">  1       -2 0.16634572E-01 0.74345782E+03</pdfrwt>
<totfact> 0.64222761E+02</totfact>
</mgrwt>
</event>
<event>
 4    1  0.5080671E-005  0.6419308E+03  0.7818608E-02  0.9822039E-01
         -2   -1    0    0    0  501 -0.00000000000E+00  0.00000000000E+00  0.63817137510E+02  0.63817137561E+02  0.25500000000E-02 0. -1.
          2   -1    0    0  501    0  0.00000000000E+00 -0.00000000000E+00 -0.16142810018E+04  0.16142810018E+04  0.25500000000E-02 0.  1.
    5000001    1    1    2    0    0 -0.21930338713E+03  0.38306612681E+02 -0.46751268594E+03  0.55473460655E+03  0.19900000000E+03 0.  0.
   -5000001    1    1    2    0    0  0.21930338713E+03 -0.38306612681E+02 -0.10829511784E+04  0.11233635329E+04  0.19900000000E+03 0.  0.
<mgrwt>
<rscale>  0 0.64193081E+03</rscale>
<asrwt>0</asrwt>
<pdfrwt beam="1">  1        2 0.23061155E+00 0.64193081E+03</pdfrwt>
<pdfrwt beam="2">  1       -2 0.91167349E-02 0.64193081E+03</pdfrwt>
<totfact> 0.10306467E+03</totfact>
</mgrwt>
</event>
<event>
 4    1  0.5080671E-005  0.4725419E+03  0.7818608E-02  0.1021205E+00
          2   -1    0    0  501    0  0.00000000000E+00  0.00000000000E+00  0.22208598201E+03  0.22208598202E+03  0.25500000000E-02 0.  1.
         -2   -1    0    0    0  501 -0.00000000000E+00 -0.00000000000E+00 -0.25136195660E+03  0.25136195661E+03  0.25500000000E-02 0. -1.
    5000001    1    1    2    0    0 -0.27937407091E+02 -0.12381489032E+03 -0.40185523471E+01  0.23606730935E+03  0.19900000000E+03 0.  0.
   -5000001    1    1    2    0    0  0.27937407091E+02  0.12381489032E+03 -0.25257422246E+02  0.23738062928E+03  0.19900000000E+03 0.  0.
<mgrwt>
<rscale>  0 0.47254192E+03</rscale>
<asrwt>0</asrwt>
<pdfrwt beam="1">  1        2 0.31726569E-01 0.47254192E+03</pdfrwt>
<pdfrwt beam="2">  1       -2 0.35908851E-01 0.47254192E+03</pdfrwt>
<totfact> 0.12164298E+03</totfact>
</mgrwt>
</event>
<event>
 4    1  0.5080671E-005  0.6593570E+03  0.7818608E-02  0.9789378E-01
         -2   -1    0    0    0  501 -0.00000000000E+00  0.00000000000E+00  0.37070015464E+02  0.37070015552E+02  0.25500000000E-02 0. -1.
          2   -1    0    0  501    0  0.00000000000E+00 -0.00000000000E+00 -0.29319633508E+04  0.29319633508E+04  0.25500000000E-02 0.  1.
    5000001    1    1    2    0    0 -0.76532558393E+02  0.58127095877E+02 -0.25490618183E+04  0.25586232910E+04  0.19900000000E+03 0.  0.
   -5000001    1    1    2    0    0  0.76532558393E+02 -0.58127095877E+02 -0.34583151703E+03  0.41041007534E+03  0.19900000000E+03 0.  0.
<mgrwt>
<rscale>  0 0.65935704E+03</rscale>
<asrwt>0</asrwt>
<pdfrwt beam="1">  1        2 0.41885176E+00 0.65935704E+03</pdfrwt>
<pdfrwt beam="2">  1       -2 0.52957184E-02 0.65935704E+03</pdfrwt>
<totfact> 0.51240447E+02</totfact>
</mgrwt>
</event>
<event>
 4    1  0.5080671E-005  0.6185062E+03  0.7818608E-02  0.9867738E-01
         -2   -1    0    0    0  501 -0.00000000000E+00  0.00000000000E+00  0.56719386632E+02  0.56719386689E+02  0.25500000000E-02 0. -1.
          2   -1    0    0  501    0  0.00000000000E+00 -0.00000000000E+00 -0.16861515299E+04  0.16861515299E+04  0.25500000000E-02 0.  1.
    5000001    1    1    2    0    0  0.10122302333E+03 -0.18755607887E+03 -0.52441927787E+03  0.60003330088E+03  0.19900000000E+03 0.  0.
   -5000001    1    1    2    0    0 -0.10122302333E+03  0.18755607887E+03 -0.11050128654E+04  0.11428376157E+04  0.19900000000E+03 0.  0.
<mgrwt>
<rscale>  0 0.61850620E+03</rscale>
<asrwt>0</asrwt>
<pdfrwt beam="1">  1        2 0.24087876E+00 0.61850620E+03</pdfrwt>
<pdfrwt beam="2">  1       -2 0.81027706E-02 0.61850620E+03</pdfrwt>
<totfact> 0.11452036E+03</totfact>
</mgrwt>
</event>
<event>
 4    1  0.5080671E-005  0.7962412E+03  0.7818608E-02  0.9565474E-01
          2   -1    0    0  501    0  0.00000000000E+00  0.00000000000E+00  0.43852685838E+03  0.43852685839E+03  0.25500000000E-02 0.  1.
         -2   -1    0    0    0  501 -0.00000000000E+00 -0.00000000000E+00 -0.36143741459E+03  0.36143741460E+03  0.25500000000E-02 0. -1.
    5000001    1    1    2    0    0 -0.23262972112E+03 -0.60174676569E+02  0.28700946815E+03  0.42392571715E+03  0.19900000000E+03 0.  0.
   -5000001    1    1    2    0    0  0.23262972112E+03  0.60174676569E+02 -0.20992002437E+03  0.37603855584E+03  0.19900000000E+03 0.  0.
<mgrwt>
<rscale>  0 0.79624120E+03</rscale>
<asrwt>0</asrwt>
<pdfrwt beam="1">  1        2 0.62646694E-01 0.79624120E+03</pdfrwt>
<pdfrwt beam="2">  1       -2 0.51633916E-01 0.79624120E+03</pdfrwt>
<totfact> 0.27804858E+02</totfact>
</mgrwt>
</event>
<event>
 4    1  0.5080671E-005  0.1126652E+04  0.7818608E-02  0.9179597E-01
          2   -1    0    0  501    0  0.00000000000E+00  0.00000000000E+00  0.10313607271E+04  0.10313607271E+04  0.25500000000E-02 0.  1.
         -2   -1    0    0    0  501 -0.00000000000E+00 -0.00000000000E+00 -0.30768689454E+03  0.30768689455E+03  0.25500000000E-02 0. -1.
    5000001    1    1    2    0    0 -0.24459092498E+02 -0.50265326619E+03  0.54778084768E+03  0.77001520134E+03  0.19900000000E+03 0.  0.
   -5000001    1    1    2    0    0  0.24459092498E+02  0.50265326619E+03  0.17589298487E+03  0.56903242029E+03  0.19900000000E+03 0.  0.
<mgrwt>
<rscale>  0 0.11266520E+04</rscale>
<asrwt>0</asrwt>
<pdfrwt beam="1">  1        2 0.14733725E+00 0.11266520E+04</pdfrwt>
<pdfrwt beam="2">  1       -2 0.43955271E-01 0.11266520E+04</pdfrwt>
<totfact> 0.13062325E+02</totfact>
</mgrwt>
</event>
<event>
 4    1  0.5080671E-005  0.5930346E+03  0.7818608E-02  0.9919963E-01
          2   -1    0    0  501    0  0.00000000000E+00  0.00000000000E+00  0.13372532132E+04  0.13372532132E+04  0.25500000000E-02 0.  1.
         -2   -1    0    0    0  501 -0.00000000000E+00 -0.00000000000E+00 -0.65748595909E+02  0.65748595959E+02  0.25500000000E-02 0. -1.
    5000001    1    1    2    0    0 -0.17446987104E+03  0.13200051832E+03  0.68636322050E+03  0.74736827816E+03  0.19900000000E+03 0.  0.
   -5000001    1    1    2    0    0  0.17446987104E+03 -0.13200051832E+03  0.58514139674E+03  0.65563353095E+03  0.19900000000E+03 0.  0.
<mgrwt>
<rscale>  0 0.59303464E+03</rscale>
<asrwt>0</asrwt>
<pdfrwt beam="1">  1        2 0.19103617E+00 0.59303464E+03</pdfrwt>
<pdfrwt beam="2">  1       -2 0.93926565E-02 0.59303464E+03</pdfrwt>
<totfact> 0.13752987E+03</totfact>
</mgrwt>
</event>
<event>
 4    1  0.5080671E-005  0.6242381E+03  0.7818608E-02  0.9856358E-01
          2   -1    0    0  501    0  0.00000000000E+00  0.00000000000E+00  0.12163630881E+04  0.12163630881E+04  0.25500000000E-02 0.  1.
         -2   -1    0    0    0  501 -0.00000000000E+00 -0.00000000000E+00 -0.80089824685E+02  0.80089824726E+02  0.25500000000E-02 0. -1.
    5000001    1    1    2    0    0  0.20771792417E+03  0.10628367563E+03  0.44749378445E+03  0.54248930206E+03  0.19900000000E+03 0.  0.
   -5000001    1    1    2    0    0 -0.20771792417E+03 -0.10628367563E+03  0.68877947896E+03  0.75396361077E+03  0.19900000000E+03 0.  0.
<mgrwt>
<rscale>  0 0.62423812E+03</rscale>
<asrwt>0</asrwt>
<pdfrwt beam="1">  1        2 0.17376613E+00 0.62423812E+03</pdfrwt>
<pdfrwt beam="2">  1       -2 0.11441405E-01 0.62423812E+03</pdfrwt>
<totfact> 0.11610940E+03</totfact>
</mgrwt>
</event>
<event>
 4    1  0.5080671E-005  0.8909290E+03  0.7818608E-02  0.9436992E-01
         -2   -1    0    0    0  501 -0.00000000000E+00  0.00000000000E+00  0.19465445619E+03  0.19465445621E+03  0.25500000000E-02 0. -1.
          2   -1    0    0  501    0  0.00000000000E+00 -0.00000000000E+00 -0.10194404242E+04  0.10194404242E+04  0.25500000000E-02 0.  1.
    5000001    1    1    2    0    0  0.36347497127E+03  0.16039531611E+03 -0.45541961515E+03  0.63627724934E+03  0.19900000000E+03 0.  0.
   -5000001    1    1    2    0    0 -0.36347497127E+03 -0.16039531611E+03 -0.36936635288E+03  0.57781763110E+03  0.19900000000E+03 0.  0.
<mgrwt>
<rscale>  0 0.89092900E+03</rscale>
<asrwt>0</asrwt>
<pdfrwt beam="1">  1        2 0.14563434E+00 0.89092900E+03</pdfrwt>
<pdfrwt beam="2">  1       -2 0.27807780E-01 0.89092900E+03</pdfrwt>
<totfact> 0.32239934E+02</totfact>
</mgrwt>
</event>
<event>
 4    1  0.5080671E-005  0.7704390E+03  0.7818608E-02  0.9603819E-01
         -2   -1    0    0    0  501 -0.00000000000E+00  0.00000000000E+00  0.27694356275E+03  0.27694356277E+03  0.25500000000E-02 0. -1.
          2   -1    0    0  501    0  0.00000000000E+00 -0.00000000000E+00 -0.53582778539E+03  0.53582778540E+03  0.25500000000E-02 0.  1.
    5000001    1    1    2    0    0 -0.10661873447E+03 -0.29264747065E+03 -0.24395577933E+03  0.44286060887E+03  0.19900000000E+03 0.  0.
   -5000001    1    1    2    0    0  0.10661873447E+03  0.29264747065E+03 -0.14928443302E+02  0.36991073929E+03  0.19900000000E+03 0.  0.
<mgrwt>
<rscale>  0 0.77043898E+03</rscale>
<asrwt>0</asrwt>
<pdfrwt beam="1">  1        2 0.76546826E-01 0.77043898E+03</pdfrwt>
<pdfrwt beam="2">  1       -2 0.39563366E-01 0.77043898E+03</pdfrwt>
<totfact> 0.37656330E+02</totfact>
</mgrwt>
</event>
<event>
 4    1  0.5080671E-005  0.5078267E+03  0.7818608E-02  0.1011756E+00
         -2   -1    0    0    0  501 -0.00000000000E+00  0.00000000000E+00  0.10801069899E+03  0.10801069902E+03  0.25500000000E-02 0. -1.
          2   -1    0    0  501    0  0.00000000000E+00 -0.00000000000E+00 -0.59690371648E+03  0.59690371648E+03  0.25500000000E-02 0.  1.
    5000001    1    1    2    0    0  0.37363812936E+02  0.72112969356E+02 -0.56797863331E+02  0.22231358966E+03  0.19900000000E+03 0.  0.
   -5000001    1    1    2    0    0 -0.37363812936E+02 -0.72112969356E+02 -0.43209515416E+03  0.48260082585E+03  0.19900000000E+03 0.  0.
<mgrwt>
<rscale>  0 0.50782669E+03</rscale>
<asrwt>0</asrwt>
<pdfrwt beam="1">  1        2 0.85271958E-01 0.50782669E+03</pdfrwt>
<pdfrwt beam="2">  1       -2 0.15430100E-01 0.50782669E+03</pdfrwt>
<totfact> 0.18177228E+03</totfact>
</mgrwt>
</event>
<event>
 4    1  0.5080671E-005  0.5392312E+03  0.7818608E-02  0.1004018E+00
          2   -1    0    0  501    0  0.00000000000E+00  0.00000000000E+00  0.71553251036E+03  0.71553251037E+03  0.25500000000E-02 0.  1.
         -2   -1    0    0    0  501 -0.00000000000E+00 -0.00000000000E+00 -0.10159225563E+03  0.10159225567E+03  0.25500000000E-02 0. -1.
    5000001    1    1    2    0    0 -0.33878300706E+02 -0.10503122517E+03  0.87834031712E+02  0.24391620415E+03  0.19900000000E+03 0.  0.
   -5000001    1    1    2    0    0  0.33878300706E+02  0.10503122517E+03  0.52610622301E+03  0.57320856188E+03  0.19900000000E+03 0.  0.
<mgrwt>
<rscale>  0 0.53923116E+03</rscale>
<asrwt>0</asrwt>
<pdfrwt beam="1">  1        2 0.10221893E+00 0.53923116E+03</pdfrwt>
<pdfrwt beam="2">  1       -2 0.14513180E-01 0.53923116E+03</pdfrwt>
<totfact> 0.16218640E+03</totfact>
</mgrwt>
</event>
<event>
 4    1  0.5080671E-005  0.5159510E+03  0.7818608E-02  0.1009697E+00
          2   -1    0    0  501    0  0.00000000000E+00  0.00000000000E+00  0.11397880403E+04  0.11397880403E+04  0.25500000000E-02 0.  1.
         -2   -1    0    0    0  501 -0.00000000000E+00 -0.00000000000E+00 -0.58389239702E+02  0.58389239758E+02  0.25500000000E-02 0. -1.
    5000001    1    1    2    0    0  0.13896332812E+03  0.80512645658E+02  0.61969973551E+03  0.67038933081E+03  0.19900000000E+03 0.  0.
   -5000001    1    1    2    0    0 -0.13896332812E+03 -0.80512645658E+02  0.46169906511E+03  0.52778794928E+03  0.19900000000E+03 0.  0.
<mgrwt>
<rscale>  0 0.51595099E+03</rscale>
<asrwt>0</asrwt>
<pdfrwt beam="1">  1        2 0.16282686E+00 0.51595099E+03</pdfrwt>
<pdfrwt beam="2">  1       -2 0.83413203E-02 0.51595099E+03</pdfrwt>
<totfact> 0.21420189E+03</totfact>
</mgrwt>
</event>
<event>
 4    1  0.5080671E-005  0.6250053E+03  0.7818608E-02  0.9854844E-01
          2   -1    0    0  501    0  0.00000000000E+00  0.00000000000E+00  0.42065116768E+03  0.42065116768E+03  0.25500000000E-02 0.  1.
         -2   -1    0    0    0  501 -0.00000000000E+00 -0.00000000000E+00 -0.23215886467E+03  0.23215886468E+03  0.25500000000E-02 0. -1.
    5000001    1    1    2    0    0  0.12476020476E+03  0.18044958856E+03  0.19832727330E+03  0.35645738881E+03  0.19900000000E+03 0.  0.
   -5000001    1    1    2    0    0 -0.12476020476E+03 -0.18044958856E+03 -0.98349702952E+01  0.29635264356E+03  0.19900000000E+03 0.  0.
<mgrwt>
<rscale>  0 0.62500527E+03</rscale>
<asrwt>0</asrwt>
<pdfrwt beam="1">  1        2 0.60093024E-01 0.62500527E+03</pdfrwt>
<pdfrwt beam="2">  1       -2 0.33165552E-01 0.62500527E+03</pdfrwt>
<totfact> 0.69699510E+02</totfact>
</mgrwt>
</event>
<event>
 4    1  0.5080671E-005  0.5737539E+03  0.7818608E-02  0.9961406E-01
          2   -1    0    0  501    0  0.00000000000E+00  0.00000000000E+00  0.28524916732E+04  0.28524916732E+04  0.25500000000E-02 0.  1.
         -2   -1    0    0    0  501 -0.00000000000E+00 -0.00000000000E+00 -0.28851397202E+02  0.28851397315E+02  0.25500000000E-02 0. -1.
    5000001    1    1    2    0    0  0.93528322130E+02 -0.24438571853E+02  0.23289568375E+04  0.23394413311E+04  0.19900000000E+03 0.  0.
   -5000001    1    1    2    0    0 -0.93528322130E+02  0.24438571853E+02  0.49468343854E+03  0.54190173943E+03  0.19900000000E+03 0.  0.
<mgrwt>
<rscale>  0 0.57375385E+03</rscale>
<asrwt>0</asrwt>
<pdfrwt beam="1">  1        2 0.40749888E+00 0.57375385E+03</pdfrwt>
<pdfrwt beam="2">  1       -2 0.41216275E-02 0.57375385E+03</pdfrwt>
<totfact> 0.83957418E+02</totfact>
</mgrwt>
</event>
<event>
 4    1  0.5080671E-005  0.9389728E+03  0.7818608E-02  0.9378133E-01
         -2   -1    0    0    0  501 -0.00000000000E+00  0.00000000000E+00  0.36475464045E+03  0.36475464046E+03  0.25500000000E-02 0. -1.
          2   -1    0    0  501    0  0.00000000000E+00 -0.00000000000E+00 -0.60428966604E+03  0.60428966605E+03  0.25500000000E-02 0.  1.
    5000001    1    1    2    0    0  0.38340803556E+03  0.99874563513E+01 -0.30926443136E+03  0.53136330276E+03  0.19900000000E+03 0.  0.
   -5000001    1    1    2    0    0 -0.38340803556E+03 -0.99874563513E+01  0.69729405772E+02  0.43768100375E+03  0.19900000000E+03 0.  0.
<mgrwt>
<rscale>  0 0.93897276E+03</rscale>
<asrwt>0</asrwt>
<pdfrwt beam="1">  1        2 0.86327094E-01 0.93897276E+03</pdfrwt>
<pdfrwt beam="2">  1       -2 0.52107806E-01 0.93897276E+03</pdfrwt>
<totfact> 0.18730935E+02</totfact>
</mgrwt>
</event>
<event>
 4    1  0.5080671E-005  0.8561304E+03  0.7818608E-02  0.9482146E-01
         -2   -1    0    0    0  501 -0.00000000000E+00  0.00000000000E+00  0.31367850358E+03  0.31367850359E+03  0.25500000000E-02 0. -1.
          2   -1    0    0  501    0  0.00000000000E+00 -0.00000000000E+00 -0.58416437023E+03  0.58416437024E+03  0.25500000000E-02 0.  1.
    5000001    1    1    2    0    0 -0.15786452303E+02  0.31746845881E+03  0.81219439987E+02  0.38370956705E+03  0.19900000000E+03 0.  0.
   -5000001    1    1    2    0    0  0.15786452303E+02 -0.31746845881E+03 -0.35170530664E+03  0.51413330677E+03  0.19900000000E+03 0.  0.
<mgrwt>
<rscale>  0 0.85613038E+03</rscale>
<asrwt>0</asrwt>
<pdfrwt beam="1">  1        2 0.83452053E-01 0.85613038E+03</pdfrwt>
<pdfrwt beam="2">  1       -2 0.44811215E-01 0.85613038E+03</pdfrwt>
<totfact> 0.26553344E+02</totfact>
</mgrwt>
</event>
<event>
 4    1  0.5080671E-005  0.4926299E+03  0.7818608E-02  0.1015721E+00
          2   -1    0    0  501    0  0.00000000000E+00  0.00000000000E+00  0.53644318608E+03  0.53644318609E+03  0.25500000000E-02 0.  1.
         -2   -1    0    0    0  501 -0.00000000000E+00 -0.00000000000E+00 -0.11309875566E+03  0.11309875569E+03  0.25500000000E-02 0. -1.
    5000001    1    1    2    0    0 -0.12379684679E+03  0.54721562198E+02  0.14252914181E+03  0.27970639054E+03  0.19900000000E+03 0.  0.
   -5000001    1    1    2    0    0  0.12379684679E+03 -0.54721562198E+02  0.28081528861E+03  0.36983555124E+03  0.19900000000E+03 0.  0.
<mgrwt>
<rscale>  0 0.49262991E+03</rscale>
<asrwt>0</asrwt>
<pdfrwt beam="1">  1        2 0.76634742E-01 0.49262991E+03</pdfrwt>
<pdfrwt beam="2">  1       -2 0.16156965E-01 0.49262991E+03</pdfrwt>
<totfact> 0.19027308E+03</totfact>
</mgrwt>
</event>
<event>
 4    1  0.5080671E-005  0.4698380E+03  0.7818608E-02  0.1021966E+00
          2   -1    0    0  501    0  0.00000000000E+00  0.00000000000E+00  0.62679493391E+03  0.62679493392E+03  0.25500000000E-02 0.  1.
         -2   -1    0    0    0  501 -0.00000000000E+00 -0.00000000000E+00 -0.88046231066E+02  0.88046231103E+02  0.25500000000E-02 0. -1.
    5000001    1    1    2    0    0 -0.43692616676E+02 -0.93144278158E+02  0.16177957761E+03  0.27633047794E+03  0.19900000000E+03 0.  0.
   -5000001    1    1    2    0    0  0.43692616676E+02  0.93144278158E+02  0.37696912524E+03  0.43851068708E+03  0.19900000000E+03 0.  0.
<mgrwt>
<rscale>  0 0.46983798E+03</rscale>
<asrwt>0</asrwt>
<pdfrwt beam="1">  1        2 0.89542134E-01 0.46983798E+03</pdfrwt>
<pdfrwt beam="2">  1       -2 0.12578033E-01 0.46983798E+03</pdfrwt>
<totfact> 0.24102679E+03</totfact>
</mgrwt>
</event>
<event>
 4    1  0.5080671E-005  0.6139449E+03  0.7818608E-02  0.9876890E-01
          2   -1    0    0  501    0  0.00000000000E+00  0.00000000000E+00  0.31849185141E+04  0.31849185141E+04  0.25500000000E-02 0.  1.
         -2   -1    0    0    0  501 -0.00000000000E+00 -0.00000000000E+00 -0.29586967488E+02  0.29586967598E+02  0.25500000000E-02 0. -1.
    5000001    1    1    2    0    0  0.12316385337E+03  0.14765643502E+03  0.22734455656E+04  0.22902243334E+04  0.19900000000E+03 0.  0.
   -5000001    1    1    2    0    0 -0.12316385337E+03 -0.14765643502E+03  0.88188598096E+03  0.92428114824E+03  0.19900000000E+03 0.  0.
<mgrwt>
<rscale>  0 0.61394489E+03</rscale>
<asrwt>0</asrwt>
<pdfrwt beam="1">  1        2 0.45498785E+00 0.61394489E+03</pdfrwt>
<pdfrwt beam="2">  1       -2 0.42267144E-02 0.61394489E+03</pdfrwt>
<totfact> 0.52984444E+02</totfact>
</mgrwt>
</event>
<event>
 4    1  0.5080671E-005  0.6852088E+03  0.7818608E-02  0.9742867E-01
         -2   -1    0    0    0  501 -0.00000000000E+00  0.00000000000E+00  0.67675033779E+02  0.67675033827E+02  0.25500000000E-02 0. -1.
          2   -1    0    0  501    0  0.00000000000E+00 -0.00000000000E+00 -0.17344323620E+04  0.17344323620E+04  0.25500000000E-02 0.  1.
    5000001    1    1    2    0    0 -0.24244845722E+03  0.11444707538E+03 -0.10353488899E+04  0.10878546371E+04  0.19900000000E+03 0.  0.
   -5000001    1    1    2    0    0  0.24244845722E+03 -0.11444707538E+03 -0.63140843824E+03  0.71425275873E+03  0.19900000000E+03 0.  0.
<mgrwt>
<rscale>  0 0.68520878E+03</rscale>
<asrwt>0</asrwt>
<pdfrwt beam="1">  1        2 0.24777602E+00 0.68520878E+03</pdfrwt>
<pdfrwt beam="2">  1       -2 0.96678630E-02 0.68520878E+03</pdfrwt>
<totfact> 0.81193847E+02</totfact>
</mgrwt>
</event>
<event>
 4    1  0.5080671E-005  0.5297624E+03  0.7818608E-02  0.1006290E+00
         -2   -1    0    0    0  501 -0.00000000000E+00  0.00000000000E+00  0.12369081486E+03  0.12369081489E+03  0.25500000000E-02 0. -1.
          2   -1    0    0  501    0  0.00000000000E+00 -0.00000000000E+00 -0.56723729072E+03  0.56723729072E+03  0.25500000000E-02 0.  1.
    5000001    1    1    2    0    0 -0.14225809544E+03 -0.75312494996E+02 -0.13282080348E+03  0.28836037082E+03  0.19900000000E+03 0.  0.
   -5000001    1    1    2    0    0  0.14225809544E+03  0.75312494996E+02 -0.31072567237E+03  0.40256773479E+03  0.19900000000E+03 0.  0.
<mgrwt>
<rscale>  0 0.52976237E+03</rscale>
<asrwt>0</asrwt>
<pdfrwt beam="1">  1        2 0.81033897E-01 0.52976237E+03</pdfrwt>
<pdfrwt beam="2">  1       -2 0.17670117E-01 0.52976237E+03</pdfrwt>
<totfact> 0.15327170E+03</totfact>
</mgrwt>
</event>
<event>
 4    1  0.5080671E-005  0.7095520E+03  0.7818608E-02  0.9701035E-01
          2   -1    0    0  501    0  0.00000000000E+00  0.00000000000E+00  0.21073519972E+04  0.21073519972E+04  0.25500000000E-02 0.  1.
         -2   -1    0    0    0  501 -0.00000000000E+00 -0.00000000000E+00 -0.59727101259E+02  0.59727101314E+02  0.25500000000E-02 0. -1.
    5000001    1    1    2    0    0  0.24597670488E+03 -0.14399978590E+03  0.80732185563E+03  0.87898239815E+03  0.19900000000E+03 0.  0.
   -5000001    1    1    2    0    0 -0.24597670488E+03  0.14399978590E+03  0.12403030403E+04  0.12880967004E+04  0.19900000000E+03 0.  0.
<mgrwt>
<rscale>  0 0.70955205E+03</rscale>
<asrwt>0</asrwt>
<pdfrwt beam="1">  1        2 0.30105033E+00 0.70955205E+03</pdfrwt>
<pdfrwt beam="2">  1       -2 0.85324417E-02 0.70955205E+03</pdfrwt>
<totfact> 0.64233555E+02</totfact>
</mgrwt>
</event>
<event>
 4    1  0.5080671E-005  0.4396476E+03  0.7818608E-02  0.1030855E+00
          2   -1    0    0  501    0  0.00000000000E+00  0.00000000000E+00  0.40058238544E+03  0.40058238544E+03  0.25500000000E-02 0.  1.
         -2   -1    0    0    0  501 -0.00000000000E+00 -0.00000000000E+00 -0.12063061894E+03  0.12063061897E+03  0.25500000000E-02 0. -1.
    5000001    1    1    2    0    0 -0.63999109291E+02 -0.48617155319E+02  0.19635985022E+03  0.29089122462E+03  0.19900000000E+03 0.  0.
   -5000001    1    1    2    0    0  0.63999109291E+02  0.48617155319E+02  0.83591916269E+02  0.23032177979E+03  0.19900000000E+03 0.  0.
<mgrwt>
<rscale>  0 0.43964759E+03</rscale>
<asrwt>0</asrwt>
<pdfrwt beam="1">  1        2 0.57226054E-01 0.43964759E+03</pdfrwt>
<pdfrwt beam="2">  1       -2 0.17232946E-01 0.43964759E+03</pdfrwt>
<totfact> 0.23627015E+03</totfact>
</mgrwt>
</event>
<event>
 4    1  0.5080671E-005  0.6183326E+03  0.7818608E-02  0.9868085E-01
         -2   -1    0    0    0  501 -0.00000000000E+00  0.00000000000E+00  0.14281094020E+03  0.14281094022E+03  0.25500000000E-02 0. -1.
          2   -1    0    0  501    0  0.00000000000E+00 -0.00000000000E+00 -0.66930305616E+03  0.66930305616E+03  0.25500000000E-02 0.  1.
    5000001    1    1    2    0    0 -0.59538247089E+02  0.20799675504E+03 -0.38905342583E+03  0.48761769977E+03  0.19900000000E+03 0.  0.
   -5000001    1    1    2    0    0  0.59538247089E+02 -0.20799675504E+03 -0.13743869012E+03  0.32449629662E+03  0.19900000000E+03 0.  0.
<mgrwt>
<rscale>  0 0.61833259E+03</rscale>
<asrwt>0</asrwt>
<pdfrwt beam="1">  1        2 0.95614720E-01 0.61833259E+03</pdfrwt>
<pdfrwt beam="2">  1       -2 0.20401563E-01 0.61833259E+03</pdfrwt>
<totfact> 0.98234989E+02</totfact>
</mgrwt>
</event>
<event>
 4    1  0.5080671E-005  0.7977815E+03  0.7818608E-02  0.9563234E-01
          2   -1    0    0  501    0  0.00000000000E+00  0.00000000000E+00  0.11771952380E+03  0.11771952382E+03  0.25500000000E-02 0.  1.
         -2   -1    0    0    0  501 -0.00000000000E+00 -0.00000000000E+00 -0.13516350627E+04  0.13516350627E+04  0.25500000000E-02 0. -1.
    5000001    1    1    2    0    0  0.64463316239E+02 -0.18954377420E+03 -0.11360400724E+04  0.11705854978E+04  0.19900000000E+03 0.  0.
   -5000001    1    1    2    0    0 -0.64463316239E+02  0.18954377420E+03 -0.97875466556E+02  0.29876908881E+03  0.19900000000E+03 0.  0.
<mgrwt>
<rscale>  0 0.79778151E+03</rscale>
<asrwt>0</asrwt>
<pdfrwt beam="1">  1        2 0.16817076E-01 0.79778151E+03</pdfrwt>
<pdfrwt beam="2">  1       -2 0.19309071E+00 0.79778151E+03</pdfrwt>
<totfact> 0.52311493E+01</totfact>
</mgrwt>
</event>
<event>
 4    1  0.5080671E-005  0.6657828E+03  0.7818608E-02  0.9777606E-01
          2   -1    0    0  501    0  0.00000000000E+00  0.00000000000E+00  0.15237711789E+03  0.15237711791E+03  0.25500000000E-02 0.  1.
         -2   -1    0    0    0  501 -0.00000000000E+00 -0.00000000000E+00 -0.72725274370E+03  0.72725274371E+03  0.25500000000E-02 0. -1.
    5000001    1    1    2    0    0 -0.10639069920E+03  0.24273829657E+03 -0.24618736794E+03  0.41285600593E+03  0.19900000000E+03 0.  0.
   -5000001    1    1    2    0    0  0.10639069920E+03 -0.24273829657E+03 -0.32868825787E+03  0.46677385570E+03  0.19900000000E+03 0.  0.
<mgrwt>
<rscale>  0 0.66578278E+03</rscale>
<asrwt>0</asrwt>
<pdfrwt beam="1">  1        2 0.21768160E-01 0.66578278E+03</pdfrwt>
<pdfrwt beam="2">  1       -2 0.10389325E+00 0.66578278E+03</pdfrwt>
<totfact> 0.19613204E+02</totfact>
</mgrwt>
</event>
<event>
 4    1  0.5080671E-005  0.6100404E+03  0.7818608E-02  0.9884792E-01
         -2   -1    0    0    0  501 -0.00000000000E+00  0.00000000000E+00  0.77993624416E+02  0.77993624458E+02  0.25500000000E-02 0. -1.
          2   -1    0    0  501    0  0.00000000000E+00 -0.00000000000E+00 -0.11928836555E+04  0.11928836555E+04  0.25500000000E-02 0.  1.
    5000001    1    1    2    0    0  0.22096432066E+03  0.63566901209E+02 -0.60719708366E+03  0.67908414820E+03  0.19900000000E+03 0.  0.
   -5000001    1    1    2    0    0 -0.22096432066E+03 -0.63566901209E+02 -0.50769294741E+03  0.59179313175E+03  0.19900000000E+03 0.  0.
<mgrwt>
<rscale>  0 0.61004039E+03</rscale>
<asrwt>0</asrwt>
<pdfrwt beam="1">  1        2 0.17041194E+00 0.61004039E+03</pdfrwt>
<pdfrwt beam="2">  1       -2 0.11141947E-01 0.61004039E+03</pdfrwt>
<totfact> 0.12504569E+03</totfact>
</mgrwt>
</event>
<event>
 4    1  0.5080671E-005  0.5860342E+03  0.7818608E-02  0.9934812E-01
          2   -1    0    0  501    0  0.00000000000E+00  0.00000000000E+00  0.10279273618E+04  0.10279273618E+04  0.25500000000E-02 0.  1.
         -2   -1    0    0    0  501 -0.00000000000E+00 -0.00000000000E+00 -0.83526344792E+02  0.83526344831E+02  0.25500000000E-02 0. -1.
    5000001    1    1    2    0    0  0.18880764168E+03 -0.92772104623E+02  0.38731926011E+03  0.48360334801E+03  0.19900000000E+03 0.  0.
   -5000001    1    1    2    0    0 -0.18880764168E+03  0.92772104623E+02  0.55708175686E+03  0.62785035859E+03  0.19900000000E+03 0.  0.
<mgrwt>
<rscale>  0 0.58603418E+03</rscale>
<asrwt>0</asrwt>
<pdfrwt beam="1">  1        2 0.14684676E+00 0.58603418E+03</pdfrwt>
<pdfrwt beam="2">  1       -2 0.11932336E-01 0.58603418E+03</pdfrwt>
<totfact> 0.13936560E+03</totfact>
</mgrwt>
</event>
<event>
 4    1  0.5080671E-005  0.5551338E+03  0.7818608E-02  0.1000313E+00
         -2   -1    0    0    0  501 -0.00000000000E+00  0.00000000000E+00  0.10503365714E+03  0.10503365717E+03  0.25500000000E-02 0. -1.
          2   -1    0    0  501    0  0.00000000000E+00 -0.00000000000E+00 -0.73351144419E+03  0.73351144420E+03  0.25500000000E-02 0.  1.
    5000001    1    1    2    0    0  0.13194492070E+03 -0.10986536331E+03 -0.44902783543E+03  0.52029497129E+03  0.19900000000E+03 0.  0.
   -5000001    1    1    2    0    0 -0.13194492070E+03  0.10986536331E+03 -0.17944995162E+03  0.31825013008E+03  0.19900000000E+03 0.  0.
<mgrwt>
<rscale>  0 0.55513382E+03</rscale>
<asrwt>0</asrwt>
<pdfrwt beam="1">  1        2 0.10478735E+00 0.55513382E+03</pdfrwt>
<pdfrwt beam="2">  1       -2 0.15004809E-01 0.55513382E+03</pdfrwt>
<totfact> 0.14874031E+03</totfact>
</mgrwt>
</event>
<event>
 4    1  0.5080671E-005  0.8061370E+03  0.7818608E-02  0.9551176E-01
          2   -1    0    0  501    0  0.00000000000E+00  0.00000000000E+00  0.87879873658E+03  0.87879873659E+03  0.25500000000E-02 0.  1.
         -2   -1    0    0    0  501 -0.00000000000E+00 -0.00000000000E+00 -0.18487078498E+03  0.18487078499E+03  0.25500000000E-02 0. -1.
    5000001    1    1    2    0    0 -0.29331080496E+03  0.60827089597E+02  0.10679217561E+03  0.37514894630E+03  0.19900000000E+03 0.  0.
   -5000001    1    1    2    0    0  0.29331080496E+03 -0.60827089597E+02  0.58713577600E+03  0.68852057528E+03  0.19900000000E+03 0.  0.
<mgrwt>
<rscale>  0 0.80613699E+03</rscale>
<asrwt>0</asrwt>
<pdfrwt beam="1">  1        2 0.12554267E+00 0.80613699E+03</pdfrwt>
<pdfrwt beam="2">  1       -2 0.26410112E-01 0.80613699E+03</pdfrwt>
<totfact> 0.43661270E+02</totfact>
</mgrwt>
</event>
<event>
 4    1  0.5080671E-005  0.1231994E+04  0.7818608E-02  0.9085304E-01
          2   -1    0    0  501    0  0.00000000000E+00  0.00000000000E+00  0.36863353177E+04  0.36863353177E+04  0.25500000000E-02 0.  1.
         -2   -1    0    0    0  501 -0.00000000000E+00 -0.00000000000E+00 -0.10293487423E+03  0.10293487426E+03  0.25500000000E-02 0. -1.
    5000001    1    1    2    0    0  0.96298804450E+01  0.31691278192E+03  0.28703134179E+03  0.47171435967E+03  0.19900000000E+03 0.  0.
   -5000001    1    1    2    0    0 -0.96298804450E+01 -0.31691278192E+03  0.32963691017E+04  0.33175558323E+04  0.19900000000E+03 0.  0.
<mgrwt>
<rscale>  0 0.12319943E+04</rscale>
<asrwt>0</asrwt>
<pdfrwt beam="1">  1        2 0.52661938E+00 0.12319943E+04</pdfrwt>
<pdfrwt beam="2">  1       -2 0.14704981E-01 0.12319943E+04</pdfrwt>
<totfact> 0.33665795E+01</totfact>
</mgrwt>
</event>
<event>
 4    1  0.5080671E-005  0.7661140E+03  0.7818608E-02  0.9610404E-01
         -2   -1    0    0    0  501 -0.00000000000E+00  0.00000000000E+00  0.92321975948E+03  0.92321975948E+03  0.25500000000E-02 0. -1.
          2   -1    0    0  501    0  0.00000000000E+00 -0.00000000000E+00 -0.15893578596E+03  0.15893578598E+03  0.25500000000E-02 0.  1.
    5000001    1    1    2    0    0 -0.32560984086E+03 -0.26432313400E+02  0.35349791806E+03  0.52084759166E+03  0.19900000000E+03 0.  0.
   -5000001    1    1    2    0    0  0.32560984086E+03  0.26432313400E+02  0.41078605545E+03  0.56130795381E+03  0.19900000000E+03 0.  0.
<mgrwt>
<rscale>  0 0.76611398E+03</rscale>
<asrwt>0</asrwt>
<pdfrwt beam="1">  1        2 0.22705113E-01 0.76611398E+03</pdfrwt>
<pdfrwt beam="2">  1       -2 0.13188853E+00 0.76611398E+03</pdfrwt>
<totfact> 0.10351022E+02</totfact>
</mgrwt>
</event>
<event>
 4    1  0.5080671E-005  0.5254296E+03  0.7818608E-02  0.1007347E+00
         -2   -1    0    0    0  501 -0.00000000000E+00  0.00000000000E+00  0.22815011176E+02  0.22815011319E+02  0.25500000000E-02 0. -1.
          2   -1    0    0  501    0  0.00000000000E+00 -0.00000000000E+00 -0.30251602011E+04  0.30251602011E+04  0.25500000000E-02 0.  1.
    5000001    1    1    2    0    0 -0.12122525460E+03  0.12118391958E+03 -0.15364388032E+04  0.15587258581E+04  0.19900000000E+03 0.  0.
   -5000001    1    1    2    0    0  0.12122525460E+03 -0.12118391958E+03 -0.14659063867E+04  0.14892493543E+04  0.19900000000E+03 0.  0.
<mgrwt>
<rscale>  0 0.52542959E+03</rscale>
<asrwt>0</asrwt>
<pdfrwt beam="1">  1        2 0.43216549E+00 0.52542959E+03</pdfrwt>
<pdfrwt beam="2">  1       -2 0.32592892E-02 0.52542959E+03</pdfrwt>
<totfact> 0.97469969E+02</totfact>
</mgrwt>
</event>
<event>
 4    1  0.5080671E-005  0.4702688E+03  0.7818608E-02  0.1021844E+00
          2   -1    0    0  501    0  0.00000000000E+00  0.00000000000E+00  0.12649194522E+03  0.12649194525E+03  0.25500000000E-02 0. -1.
         -2   -1    0    0    0  501 -0.00000000000E+00 -0.00000000000E+00 -0.43708860876E+03  0.43708860877E+03  0.25500000000E-02 0.  1.
    5000001    1    1    2    0    0  0.57392031545E+02 -0.10960219222E+03 -0.17868146550E+03  0.29467702988E+03  0.19900000000E+03 0.  0.
   -5000001    1    1    2    0    0 -0.57392031545E+02  0.10960219222E+03 -0.13191519804E+03  0.26890352414E+03  0.19900000000E+03 0.  0.
<mgrwt>
<rscale>  0 0.47026881E+03</rscale>
<asrwt>0</asrwt>
<pdfrwt beam="1">  1        2 0.18070278E-01 0.47026881E+03</pdfrwt>
<pdfrwt beam="2">  1       -2 0.62441229E-01 0.47026881E+03</pdfrwt>
<totfact> 0.76604072E+02</totfact>
</mgrwt>
</event>
<event>
 4    1  0.5080671E-005  0.6374254E+03  0.7818608E-02  0.9830665E-01
          2   -1    0    0  501    0  0.00000000000E+00  0.00000000000E+00  0.12173591242E+03  0.12173591245E+03  0.25500000000E-02 0.  1.
         -2   -1    0    0    0  501 -0.00000000000E+00 -0.00000000000E+00 -0.83441091679E+03  0.83441091680E+03  0.25500000000E-02 0. -1.
    5000001    1    1    2    0    0 -0.10265008493E+03 -0.16605034582E+03 -0.58807393560E+03  0.65080082285E+03  0.19900000000E+03 0.  0.
   -5000001    1    1    2    0    0  0.10265008493E+03  0.16605034582E+03 -0.12460106877E+03  0.30534600640E+03  0.19900000000E+03 0.  0.
<mgrwt>
<rscale>  0 0.63742537E+03</rscale>
<asrwt>0</asrwt>
<pdfrwt beam="1">  1        2 0.17390845E-01 0.63742537E+03</pdfrwt>
<pdfrwt beam="2">  1       -2 0.11920156E+00 0.63742537E+03</pdfrwt>
<totfact> 0.18335393E+02</totfact>
</mgrwt>
</event>
<event>
 4    1  0.5080671E-005  0.7249482E+03  0.7818608E-02  0.9675494E-01
          2   -1    0    0  501    0  0.00000000000E+00  0.00000000000E+00  0.10098892321E+04  0.10098892321E+04  0.25500000000E-02 0.  1.
         -2   -1    0    0    0  501 -0.00000000000E+00 -0.00000000000E+00 -0.13010086327E+03  0.13010086329E+03  0.25500000000E-02 0. -1.
    5000001    1    1    2    0    0 -0.27848942532E+03 -0.11315168500E+03  0.49929265048E+03  0.61583586665E+03  0.19900000000E+03 0.  0.
   -5000001    1    1    2    0    0  0.27848942532E+03  0.11315168500E+03  0.38049571839E+03  0.52415422878E+03  0.19900000000E+03 0.  0.
<mgrwt>
<rscale>  0 0.72494817E+03</rscale>
<asrwt>0</asrwt>
<pdfrwt beam="1">  1        2 0.14426988E+00 0.72494817E+03</pdfrwt>
<pdfrwt beam="2">  1       -2 0.18585839E-01 0.72494817E+03</pdfrwt>
<totfact> 0.67443437E+02</totfact>
</mgrwt>
</event>
<event>
 4    1  0.5080671E-005  0.4914636E+03  0.7818608E-02  0.1016031E+00
          2   -1    0    0  501    0  0.00000000000E+00  0.00000000000E+00  0.24385171473E+03  0.24385171474E+03  0.25500000000E-02 0.  1.
         -2   -1    0    0    0  501 -0.00000000000E+00 -0.00000000000E+00 -0.24762639968E+03  0.24762639970E+03  0.25500000000E-02 0. -1.
    5000001    1    1    2    0    0  0.13932029822E+03 -0.28879415914E+02  0.21328768657E+02  0.24556075120E+03  0.19900000000E+03 0.  0.
   -5000001    1    1    2    0    0 -0.13932029822E+03  0.28879415914E+02 -0.25103453612E+02  0.24591736324E+03  0.19900000000E+03 0.  0.
<mgrwt>
<rscale>  0 0.49146362E+03</rscale>
<asrwt>0</asrwt>
<pdfrwt beam="1">  1        2 0.34835959E-01 0.49146362E+03</pdfrwt>
<pdfrwt beam="2">  1       -2 0.35375200E-01 0.49146362E+03</pdfrwt>
<totfact> 0.11283160E+03</totfact>
</mgrwt>
</event>
<event>
 4    1  0.5080671E-005  0.8180304E+03  0.7818608E-02  0.9534279E-01
          2   -1    0    0  501    0  0.00000000000E+00  0.00000000000E+00  0.13678310033E+04  0.13678310033E+04  0.25500000000E-02 0.  1.
         -2   -1    0    0    0  501 -0.00000000000E+00 -0.00000000000E+00 -0.12230562118E+03  0.12230562120E+03  0.25500000000E-02 0. -1.
    5000001    1    1    2    0    0  0.13478782043E+02  0.18593211112E+03  0.67423938307E+02  0.28089039672E+03  0.19900000000E+03 0.  0.
   -5000001    1    1    2    0    0 -0.13478782043E+02 -0.18593211112E+03  0.11781014438E+04  0.12092462278E+04  0.19900000000E+03 0.  0.
<mgrwt>
<rscale>  0 0.81803037E+03</rscale>
<asrwt>0</asrwt>
<pdfrwt beam="1">  1        2 0.19540443E+00 0.81803037E+03</pdfrwt>
<pdfrwt beam="2">  1       -2 0.17472231E-01 0.81803037E+03</pdfrwt>
<totfact> 0.46721618E+02</totfact>
</mgrwt>
</event>
<event>
 4    1  0.5080671E-005  0.5831452E+03  0.7818608E-02  0.9941005E-01
         -2   -1    0    0    0  501 -0.00000000000E+00  0.00000000000E+00  0.60305877178E+02  0.60305877232E+02  0.25500000000E-02 0. -1.
          2   -1    0    0  501    0  0.00000000000E+00 -0.00000000000E+00 -0.14097230204E+04  0.14097230204E+04  0.25500000000E-02 0.  1.
    5000001    1    1    2    0    0  0.19524516998E+03  0.55295155028E+02 -0.83876526616E+03  0.88561075100E+03  0.19900000000E+03 0.  0.
   -5000001    1    1    2    0    0 -0.19524516998E+03 -0.55295155028E+02 -0.51065187707E+03  0.58441814664E+03  0.19900000000E+03 0.  0.
<mgrwt>
<rscale>  0 0.58314521E+03</rscale>
<asrwt>0</asrwt>
<pdfrwt beam="1">  1        2 0.20138898E+00 0.58314521E+03</pdfrwt>
<pdfrwt beam="2">  1       -2 0.86151262E-02 0.58314521E+03</pdfrwt>
<totfact> 0.14459087E+03</totfact>
</mgrwt>
</event>
<event>
 4    1  0.5080671E-005  0.1313110E+04  0.7818608E-02  0.9019233E-01
          2   -1    0    0  501    0  0.00000000000E+00  0.00000000000E+00  0.62280183582E+03  0.62280183582E+03  0.25500000000E-02 0.  1.
         -2   -1    0    0    0  501 -0.00000000000E+00 -0.00000000000E+00 -0.69213696694E+03  0.69213696695E+03  0.25500000000E-02 0. -1.
    5000001    1    1    2    0    0  0.23571371059E+02  0.43240261754E+03 -0.48688889241E+03  0.68131448446E+03  0.19900000000E+03 0.  0.
   -5000001    1    1    2    0    0 -0.23571371059E+02 -0.43240261754E+03  0.41755376128E+03  0.63362431831E+03  0.19900000000E+03 0.  0.
<mgrwt>
<rscale>  0 0.13131096E+04</rscale>
<asrwt>0</asrwt>
<pdfrwt beam="1">  1        2 0.88971691E-01 0.13131096E+04</pdfrwt>
<pdfrwt beam="2">  1       -2 0.98876709E-01 0.13131096E+04</pdfrwt>
<totfact> 0.43185482E+01</totfact>
</mgrwt>
</event>
<event>
 4    1  0.5080671E-005  0.5986057E+03  0.7818608E-02  0.9908303E-01
         -2   -1    0    0    0  501 -0.00000000000E+00  0.00000000000E+00  0.62772040434E+02  0.62772040486E+02  0.25500000000E-02 0. -1.
          2   -1    0    0  501    0  0.00000000000E+00 -0.00000000000E+00 -0.14271034299E+04  0.14271034299E+04  0.25500000000E-02 0.  1.
    5000001    1    1    2    0    0  0.22249959040E+03  0.20482727852E+02 -0.66360964622E+03  0.72794530868E+03  0.19900000000E+03 0.  0.
   -5000001    1    1    2    0    0 -0.22249959040E+03 -0.20482727852E+02 -0.70072174324E+03  0.76193016171E+03  0.19900000000E+03 0.  0.
<mgrwt>
<rscale>  0 0.59860569E+03</rscale>
<asrwt>0</asrwt>
<pdfrwt beam="1">  1        2 0.20387190E+00 0.59860569E+03</pdfrwt>
<pdfrwt beam="2">  1       -2 0.89674352E-02 0.59860569E+03</pdfrwt>
<totfact> 0.13268308E+03</totfact>
</mgrwt>
</event>
<event>
 4    1  0.5080671E-005  0.8226699E+03  0.7818608E-02  0.9527771E-01
          2   -1    0    0  501    0  0.00000000000E+00  0.00000000000E+00  0.11059538705E+04  0.11059538705E+04  0.25500000000E-02 0.  1.
         -2   -1    0    0    0  501 -0.00000000000E+00 -0.00000000000E+00 -0.15298687069E+03  0.15298687071E+03  0.25500000000E-02 0. -1.
    5000001    1    1    2    0    0  0.19047533686E+03 -0.21499988233E+03  0.14440382813E+03  0.37809954897E+03  0.19900000000E+03 0.  0.
   -5000001    1    1    2    0    0 -0.19047533686E+03  0.21499988233E+03  0.80856317168E+03  0.88084119225E+03  0.19900000000E+03 0.  0.
<mgrwt>
<rscale>  0 0.82266985E+03</rscale>
<asrwt>0</asrwt>
<pdfrwt beam="1">  1        2 0.15799341E+00 0.82266985E+03</pdfrwt>
<pdfrwt beam="2">  1       -2 0.21855267E-01 0.82266985E+03</pdfrwt>
<totfact> 0.44316802E+02</totfact>
</mgrwt>
</event>
<event>
 4    1  0.5080671E-005  0.9938711E+03  0.7818608E-02  0.9315293E-01
          2   -1    0    0  501    0  0.00000000000E+00  0.00000000000E+00  0.35911654442E+04  0.35911654443E+04  0.25500000000E-02 0.  1.
         -2   -1    0    0    0  501 -0.00000000000E+00 -0.00000000000E+00 -0.68764564606E+02  0.68764564653E+02  0.25500000000E-02 0. -1.
    5000001    1    1    2    0    0 -0.37888931490E+03  0.95045918662E+02  0.26228824789E+04  0.26592676319E+04  0.19900000000E+03 0.  0.
   -5000001    1    1    2    0    0  0.37888931490E+03 -0.95045918662E+02  0.89951840071E+03  0.10006623770E+04  0.19900000000E+03 0.  0.
<mgrwt>
<rscale>  0 0.99387107E+03</rscale>
<asrwt>0</asrwt>
<pdfrwt beam="1">  1        2 0.51302378E+00 0.99387107E+03</pdfrwt>
<pdfrwt beam="2">  1       -2 0.98235064E-02 0.99387107E+03</pdfrwt>
<totfact> 0.77398583E+01</totfact>
</mgrwt>
</event>
<event>
 4    1  0.5080671E-005  0.5445348E+03  0.7818608E-02  0.1002767E+00
          2   -1    0    0  501    0  0.00000000000E+00  0.00000000000E+00  0.47658322558E+02  0.47658322627E+02  0.25500000000E-02 0.  1.
         -2   -1    0    0    0  501 -0.00000000000E+00 -0.00000000000E+00 -0.15554376026E+04  0.15554376026E+04  0.25500000000E-02 0. -1.
    5000001    1    1    2    0    0  0.10325118483E+03 -0.10836458866E+03 -0.42972015402E+03  0.49665289893E+03  0.19900000000E+03 0.  0.
   -5000001    1    1    2    0    0 -0.10325118483E+03  0.10836458866E+03 -0.10780591260E+04  0.11064430263E+04  0.19900000000E+03 0.  0.
<mgrwt>
<rscale>  0 0.54453484E+03</rscale>
<asrwt>0</asrwt>
<pdfrwt beam="1">  1        2 0.68083328E-02 0.54453484E+03</pdfrwt>
<pdfrwt beam="2">  1       -2 0.22220534E+00 0.54453484E+03</pdfrwt>
<totfact> 0.10832076E+02</totfact>
</mgrwt>
</event>
<event>
 4    1  0.5080671E-005  0.5705896E+03  0.7818608E-02  0.9968375E-01
          2   -1    0    0  501    0  0.00000000000E+00  0.00000000000E+00  0.23578180029E+03  0.23578180031E+03  0.25500000000E-02 0.  1.
         -2   -1    0    0    0  501 -0.00000000000E+00 -0.00000000000E+00 -0.34520526547E+03  0.34520526548E+03  0.25500000000E-02 0. -1.
    5000001    1    1    2    0    0  0.11279637159E+03  0.16724213485E+03 -0.20953924669E+02  0.28413556636E+03  0.19900000000E+03 0.  0.
   -5000001    1    1    2    0    0 -0.11279637159E+03 -0.16724213485E+03 -0.88469540509E+02  0.29685149943E+03  0.19900000000E+03 0.  0.
<mgrwt>
<rscale>  0 0.57058959E+03</rscale>
<asrwt>0</asrwt>
<pdfrwt beam="1">  1        2 0.33683114E-01 0.57058959E+03</pdfrwt>
<pdfrwt beam="2">  1       -2 0.49315038E-01 0.57058959E+03</pdfrwt>
<totfact> 0.61193790E+02</totfact>
</mgrwt>
</event>
<event>
 4    1  0.5080671E-005  0.6015985E+03  0.7818608E-02  0.9902095E-01
          2   -1    0    0  501    0  0.00000000000E+00  0.00000000000E+00  0.16103566658E+04  0.16103566658E+04  0.25500000000E-02 0.  1.
         -2   -1    0    0    0  501 -0.00000000000E+00 -0.00000000000E+00 -0.56186421886E+02  0.56186421944E+02  0.25500000000E-02 0. -1.
    5000001    1    1    2    0    0 -0.19022031548E+03  0.11460999446E+03  0.88649751844E+03  0.93530640405E+03  0.19900000000E+03 0.  0.
   -5000001    1    1    2    0    0  0.19022031548E+03 -0.11460999446E+03  0.66767272551E+03  0.73123668374E+03  0.19900000000E+03 0.  0.
<mgrwt>
<rscale>  0 0.60159847E+03</rscale>
<asrwt>0</asrwt>
<pdfrwt beam="1">  1        2 0.23005096E+00 0.60159847E+03</pdfrwt>
<pdfrwt beam="2">  1       -2 0.80266314E-02 0.60159847E+03</pdfrwt>
<totfact> 0.12720427E+03</totfact>
</mgrwt>
</event>
<event>
 4    1  0.5080671E-005  0.4518369E+03  0.7818608E-02  0.1027176E+00
         -2   -1    0    0    0  501 -0.00000000000E+00  0.00000000000E+00  0.12871951401E+03  0.12871951404E+03  0.25500000000E-02 0. -1.
          2   -1    0    0  501    0  0.00000000000E+00 -0.00000000000E+00 -0.39651443915E+03  0.39651443916E+03  0.25500000000E-02 0.  1.
    5000001    1    1    2    0    0  0.15892811681E+02 -0.49057159270E+02 -0.24281369816E+03  0.31814883051E+03  0.19900000000E+03 0.  0.
   -5000001    1    1    2    0    0 -0.15892811681E+02  0.49057159270E+02 -0.24981226976E+02  0.20708512269E+03  0.19900000000E+03 0.  0.
<mgrwt>
<rscale>  0 0.45183690E+03</rscale>
<asrwt>0</asrwt>
<pdfrwt beam="1">  1        2 0.56644919E-01 0.45183690E+03</pdfrwt>
<pdfrwt beam="2">  1       -2 0.18388502E-01 0.45183690E+03</pdfrwt>
<totfact> 0.21397947E+03</totfact>
</mgrwt>
</event>
<event>
 4    1  0.5080671E-005  0.5180444E+03  0.7818608E-02  0.1009173E+00
          2   -1    0    0  501    0  0.00000000000E+00  0.00000000000E+00  0.13354683665E+04  0.13354683665E+04  0.25500000000E-02 0.  1.
         -2   -1    0    0    0  501 -0.00000000000E+00 -0.00000000000E+00 -0.50238931466E+02  0.50238931531E+02  0.25500000000E-02 0. -1.
    5000001    1    1    2    0    0 -0.56902953729E+02  0.13419216690E+03  0.43121412819E+03  0.49678175102E+03  0.19900000000E+03 0.  0.
   -5000001    1    1    2    0    0  0.56902953729E+02 -0.13419216690E+03  0.85401530680E+03  0.88892554697E+03  0.19900000000E+03 0.  0.
<mgrwt>
<rscale>  0 0.51804441E+03</rscale>
<asrwt>0</asrwt>
<pdfrwt beam="1">  1        2 0.19078118E+00 0.51804441E+03</pdfrwt>
<pdfrwt beam="2">  1       -2 0.71769908E-02 0.51804441E+03</pdfrwt>
<totfact> 0.21204205E+03</totfact>
</mgrwt>
</event>
<event>
 4    1  0.5080671E-005  0.5204222E+03  0.7818608E-02  0.1008582E+00
         -2   -1    0    0    0  501 -0.00000000000E+00  0.00000000000E+00  0.86236175336E+02  0.86236175374E+02  0.25500000000E-02 0. -1.
          2   -1    0    0  501    0  0.00000000000E+00 -0.00000000000E+00 -0.78516719770E+03  0.78516719771E+03  0.25500000000E-02 0.  1.
    5000001    1    1    2    0    0 -0.35692383018E+02  0.83981150292E+02 -0.58496985468E+03  0.62459387661E+03  0.19900000000E+03 0.  0.
   -5000001    1    1    2    0    0  0.35692383018E+02 -0.83981150292E+02 -0.11396116769E+03  0.24680949648E+03  0.19900000000E+03 0.  0.
<mgrwt>
<rscale>  0 0.52042220E+03</rscale>
<asrwt>0</asrwt>
<pdfrwt beam="1">  1        2 0.11216674E+00 0.52042220E+03</pdfrwt>
<pdfrwt beam="2">  1       -2 0.12319454E-01 0.52042220E+03</pdfrwt>
<totfact> 0.18964157E+03</totfact>
</mgrwt>
</event>
<event>
 4    1  0.5080671E-005  0.6237114E+03  0.7818608E-02  0.9857398E-01
         -2   -1    0    0    0  501 -0.00000000000E+00  0.00000000000E+00  0.21650304982E+03  0.21650304983E+03  0.25500000000E-02 0. -1.
          2   -1    0    0  501    0  0.00000000000E+00 -0.00000000000E+00 -0.44920375559E+03  0.44920375560E+03  0.25500000000E-02 0.  1.
    5000001    1    1    2    0    0 -0.15875095079E+03 -0.16726460875E+03 -0.18773934399E+03  0.35780773468E+03  0.19900000000E+03 0.  0.
   -5000001    1    1    2    0    0  0.15875095079E+03  0.16726460875E+03 -0.44961361778E+02  0.30789907075E+03  0.19900000000E+03 0.  0.
<mgrwt>
<rscale>  0 0.62371142E+03</rscale>
<asrwt>0</asrwt>
<pdfrwt beam="1">  1        2 0.64171965E-01 0.62371142E+03</pdfrwt>
<pdfrwt beam="2">  1       -2 0.30929007E-01 0.62371142E+03</pdfrwt>
<totfact> 0.73781597E+02</totfact>
</mgrwt>
</event>
<event>
 4    1  0.5080671E-005  0.8150903E+03  0.7818608E-02  0.9538428E-01
          2   -1    0    0  501    0  0.00000000000E+00  0.00000000000E+00  0.22722711551E+04  0.22722711551E+04  0.25500000000E-02 0.  1.
         -2   -1    0    0    0  501 -0.00000000000E+00 -0.00000000000E+00 -0.73095618143E+02  0.73095618188E+02  0.25500000000E-02 0. -1.
    5000001    1    1    2    0    0 -0.89045283237E+02  0.33334584274E+03  0.13478411190E+04  0.14054626268E+04  0.19900000000E+03 0.  0.
   -5000001    1    1    2    0    0  0.89045283237E+02 -0.33334584274E+03  0.85133441794E+03  0.93990414644E+03  0.19900000000E+03 0.  0.
<mgrwt>
<rscale>  0 0.81509034E+03</rscale>
<asrwt>0</asrwt>
<pdfrwt beam="1">  1        2 0.32461020E+00 0.81509034E+03</pdfrwt>
<pdfrwt beam="2">  1       -2 0.10442230E-01 0.81509034E+03</pdfrwt>
<totfact> 0.37904049E+02</totfact>
</mgrwt>
</event>
<event>
 4    1  0.5080671E-005  0.8981860E+03  0.7818608E-02  0.9427852E-01
          2   -1    0    0  501    0  0.00000000000E+00  0.00000000000E+00  0.13407084446E+03  0.13407084448E+03  0.25500000000E-02 0.  1.
         -2   -1    0    0    0  501 -0.00000000000E+00 -0.00000000000E+00 -0.15043131096E+04  0.15043131096E+04  0.25500000000E-02 0. -1.
    5000001    1    1    2    0    0 -0.10163745351E+03  0.37463282178E+03 -0.49032941070E+03  0.65628031671E+03  0.19900000000E+03 0.  0.
   -5000001    1    1    2    0    0  0.10163745351E+03 -0.37463282178E+03 -0.87991285443E+03  0.98210363735E+03  0.19900000000E+03 0.  0.
<mgrwt>
<rscale>  0 0.89818601E+03</rscale>
<asrwt>0</asrwt>
<pdfrwt beam="1">  1        2 0.19152979E-01 0.89818601E+03</pdfrwt>
<pdfrwt beam="2">  1       -2 0.21490186E+00 0.89818601E+03</pdfrwt>
<totfact> 0.32169727E+01</totfact>
</mgrwt>
</event>
<event>
 4    1  0.5080671E-005  0.6669031E+03  0.7818608E-02  0.9775569E-01
         -2   -1    0    0    0  501 -0.00000000000E+00  0.00000000000E+00  0.95405537713E+02  0.95405537747E+02  0.25500000000E-02 0. -1.
          2   -1    0    0  501    0  0.00000000000E+00 -0.00000000000E+00 -0.11654451491E+04  0.11654451491E+04  0.25500000000E-02 0.  1.
    5000001    1    1    2    0    0  0.95302171571E+02 -0.12673645513E+03 -0.94246303767E+03  0.97620807738E+03  0.19900000000E+03 0.  0.
   -5000001    1    1    2    0    0 -0.95302171571E+02  0.12673645513E+03 -0.12757657372E+03  0.28464260947E+03  0.19900000000E+03 0.  0.
<mgrwt>
<rscale>  0 0.66690305E+03</rscale>
<asrwt>0</asrwt>
<pdfrwt beam="1">  1        2 0.16649216E+00 0.66690305E+03</pdfrwt>
<pdfrwt beam="2">  1       -2 0.13629363E-01 0.66690305E+03</pdfrwt>
<totfact> 0.92726493E+02</totfact>
</mgrwt>
</event>
<event>
 4    1  0.5080671E-005  0.5455876E+03  0.7818608E-02  0.1002520E+00
         -2   -1    0    0    0  501 -0.00000000000E+00  0.00000000000E+00  0.27487761483E+02  0.27487761601E+02  0.25500000000E-02 0. -1.
          2   -1    0    0  501    0  0.00000000000E+00 -0.00000000000E+00 -0.27072574029E+04  0.27072574029E+04  0.25500000000E-02 0.  1.
    5000001    1    1    2    0    0  0.79132042794E+02  0.16250857034E+03 -0.11077616479E+04  0.11399156917E+04  0.19900000000E+03 0.  0.
   -5000001    1    1    2    0    0 -0.79132042794E+02 -0.16250857034E+03 -0.15720079935E+04  0.15948294728E+04  0.19900000000E+03 0.  0.
<mgrwt>
<rscale>  0 0.54558756E+03</rscale>
<asrwt>0</asrwt>
<pdfrwt beam="1">  1        2 0.38675089E+00 0.54558756E+03</pdfrwt>
<pdfrwt beam="2">  1       -2 0.39268248E-02 0.54558756E+03</pdfrwt>
<totfact> 0.10811977E+03</totfact>
</mgrwt>
</event>
<event>
 4    1  0.5080671E-005  0.9167910E+03  0.7818608E-02  0.9404832E-01
          2   -1    0    0  501    0  0.00000000000E+00  0.00000000000E+00  0.12736353361E+03  0.12736353364E+03  0.25500000000E-02 0. -1.
         -2   -1    0    0    0  501 -0.00000000000E+00 -0.00000000000E+00 -0.16498164741E+04  0.16498164741E+04  0.25500000000E-02 0.  1.
    5000001    1    1    2    0    0  0.11814182598E+03  0.39150601145E+03 -0.87243177879E+03  0.98385601420E+03  0.19900000000E+03 0.  0.
   -5000001    1    1    2    0    0 -0.11814182598E+03 -0.39150601145E+03 -0.65002116166E+03  0.79332399349E+03  0.19900000000E+03 0.  0.
<mgrwt>
<rscale>  0 0.91679105E+03</rscale>
<asrwt>0</asrwt>
<pdfrwt beam="1">  1        2 0.18194792E-01 0.91679105E+03</pdfrwt>
<pdfrwt beam="2">  1       -2 0.23568805E+00 0.91679105E+03</pdfrwt>
<totfact> 0.25340395E+01</totfact>
</mgrwt>
</event>
<event>
 4    1  0.5080671E-005  0.6826510E+03  0.7818608E-02  0.9747370E-01
         -2   -1    0    0    0  501 -0.00000000000E+00  0.00000000000E+00  0.93997028365E+02  0.93997028400E+02  0.25500000000E-02 0. -1.
          2   -1    0    0  501    0  0.00000000000E+00 -0.00000000000E+00 -0.12394338837E+04  0.12394338837E+04  0.25500000000E-02 0.  1.
    5000001    1    1    2    0    0  0.18342740463E+03 -0.19206630730E+03 -0.41685652244E+03  0.53282777656E+03  0.19900000000E+03 0.  0.
   -5000001    1    1    2    0    0 -0.18342740463E+03  0.19206630730E+03 -0.72858033294E+03  0.80060313559E+03  0.19900000000E+03 0.  0.
<mgrwt>
<rscale>  0 0.68265101E+03</rscale>
<asrwt>0</asrwt>
<pdfrwt beam="1">  1        2 0.17706197E+00 0.68265101E+03</pdfrwt>
<pdfrwt beam="2">  1       -2 0.13428148E-01 0.68265101E+03</pdfrwt>
<totfact> 0.86325371E+02</totfact>
</mgrwt>
</event>
<event>
 4    1  0.5080671E-005  0.4548719E+03  0.7818608E-02  0.1026279E+00
          2   -1    0    0  501    0  0.00000000000E+00  0.00000000000E+00  0.12863224777E+03  0.12863224780E+03  0.25500000000E-02 0.  1.
         -2   -1    0    0    0  501 -0.00000000000E+00 -0.00000000000E+00 -0.40213176588E+03  0.40213176589E+03  0.25500000000E-02 0. -1.
    5000001    1    1    2    0    0 -0.10761729167E+03  0.18645813104E+02 -0.12037378879E+03  0.25694356742E+03  0.19900000000E+03 0.  0.
   -5000001    1    1    2    0    0  0.10761729167E+03 -0.18645813104E+02 -0.15312572932E+03  0.27382044626E+03  0.19900000000E+03 0.  0.
<mgrwt>
<rscale>  0 0.45487191E+03</rscale>
<asrwt>0</asrwt>
<pdfrwt beam="1">  1        2 0.18376036E-01 0.45487191E+03</pdfrwt>
<pdfrwt beam="2">  1       -2 0.57447395E-01 0.45487191E+03</pdfrwt>
<totfact> 0.89405631E+02</totfact>
</mgrwt>
</event>
<event>
 4    1  0.5080671E-005  0.5172207E+03  0.7818608E-02  0.1009379E+00
          2   -1    0    0  501    0  0.00000000000E+00  0.00000000000E+00  0.32587302636E+04  0.32587302636E+04  0.25500000000E-02 0.  1.
         -2   -1    0    0    0  501 -0.00000000000E+00 -0.00000000000E+00 -0.20523122937E+02  0.20523123095E+02  0.25500000000E-02 0. -1.
    5000001    1    1    2    0    0  0.65813744830E+02  0.51748825236E+02  0.71646376084E+03  0.74828517994E+03  0.19900000000E+03 0.  0.
   -5000001    1    1    2    0    0 -0.65813744830E+02 -0.51748825236E+02  0.25217433798E+04  0.25309682068E+04  0.19900000000E+03 0.  0.
<mgrwt>
<rscale>  0 0.51722073E+03</rscale>
<asrwt>0</asrwt>
<pdfrwt beam="1">  1        2 0.46553281E+00 0.51722073E+03</pdfrwt>
<pdfrwt beam="2">  1       -2 0.29318752E-02 0.51722073E+03</pdfrwt>
<totfact> 0.85031990E+02</totfact>
</mgrwt>
</event>
<event>
 4    1  0.5080671E-005  0.6292428E+03  0.7818608E-02  0.9846528E-01
          2   -1    0    0  501    0  0.00000000000E+00  0.00000000000E+00  0.18257187669E+04  0.18257187669E+04  0.25500000000E-02 0.  1.
         -2   -1    0    0    0  501 -0.00000000000E+00 -0.00000000000E+00 -0.54217894142E+02  0.54217894202E+02  0.25500000000E-02 0. -1.
    5000001    1    1    2    0    0 -0.21826585202E+03  0.10037007830E+03  0.10078958390E+04  0.10550683186E+04  0.19900000000E+03 0.  0.
   -5000001    1    1    2    0    0  0.21826585202E+03 -0.10037007830E+03  0.76360503377E+03  0.82486834245E+03  0.19900000000E+03 0.  0.
<mgrwt>
<rscale>  0 0.62924280E+03</rscale>
<asrwt>0</asrwt>
<pdfrwt beam="1">  1        2 0.26081692E+00 0.62924280E+03</pdfrwt>
<pdfrwt beam="2">  1       -2 0.77454148E-02 0.62924280E+03</pdfrwt>
<totfact> 0.10449433E+03</totfact>
</mgrwt>
</event>
<event>
 4    1  0.5080671E-005  0.5815418E+03  0.7818608E-02  0.9944459E-01
          2   -1    0    0  501    0  0.00000000000E+00  0.00000000000E+00  0.18422461607E+04  0.18422461607E+04  0.25500000000E-02 0.  1.
         -2   -1    0    0    0  501 -0.00000000000E+00 -0.00000000000E+00 -0.45893816172E+02  0.45893816243E+02  0.25500000000E-02 0. -1.
    5000001    1    1    2    0    0 -0.59572058444E+02 -0.87276065189E+02  0.30143223418E+03  0.37633540028E+03  0.19900000000E+03 0.  0.
   -5000001    1    1    2    0    0  0.59572058444E+02  0.87276065189E+02  0.14949201104E+04  0.15118045767E+04  0.19900000000E+03 0.  0.
<mgrwt>
<rscale>  0 0.58154177E+03</rscale>
<asrwt>0</asrwt>
<pdfrwt beam="1">  1        2 0.26317806E+00 0.58154177E+03</pdfrwt>
<pdfrwt beam="2">  1       -2 0.65562585E-02 0.58154177E+03</pdfrwt>
<totfact> 0.13375396E+03</totfact>
</mgrwt>
</event>
<event>
 4    1  0.5080671E-005  0.5201332E+03  0.7818608E-02  0.1008653E+00
         -2   -1    0    0    0  501 -0.00000000000E+00  0.00000000000E+00  0.29869736956E+02  0.29869737065E+02  0.25500000000E-02 0. -1.
          2   -1    0    0  501    0  0.00000000000E+00 -0.00000000000E+00 -0.22643200430E+04  0.22643200430E+04  0.25500000000E-02 0.  1.
    5000001    1    1    2    0    0  0.56226620780E+02 -0.41997723230E+02 -0.44672373216E+03  0.49405296732E+03  0.19900000000E+03 0.  0.
   -5000001    1    1    2    0    0 -0.56226620780E+02  0.41997723230E+02 -0.17877265739E+04  0.18001368127E+04  0.19900000000E+03 0.  0.
<mgrwt>
<rscale>  0 0.52013323E+03</rscale>
<asrwt>0</asrwt>
<pdfrwt beam="1">  1        2 0.32347418E+00 0.52013323E+03</pdfrwt>
<pdfrwt beam="2">  1       -2 0.42671067E-02 0.52013323E+03</pdfrwt>
<totfact> 0.16059333E+03</totfact>
</mgrwt>
</event>
<event>
 4    1  0.5080671E-005  0.5952120E+03  0.7818608E-02  0.9915390E-01
         -2   -1    0    0    0  501 -0.00000000000E+00  0.00000000000E+00  0.55315724260E+03  0.55315724260E+03  0.25500000000E-02 0. -1.
          2   -1    0    0  501    0  0.00000000000E+00 -0.00000000000E+00 -0.16011598426E+03  0.16011598428E+03  0.25500000000E-02 0.  1.
    5000001    1    1    2    0    0  0.76539784005E+02  0.18341160591E+03  0.79903336759E+02  0.29237595479E+03  0.19900000000E+03 0.  0.
   -5000001    1    1    2    0    0 -0.76539784005E+02 -0.18341160591E+03  0.31313792158E+03  0.42089727209E+03  0.19900000000E+03 0.  0.
<mgrwt>
<rscale>  0 0.59521195E+03</rscale>
<asrwt>0</asrwt>
<pdfrwt beam="1">  1        2 0.22873712E-01 0.59521195E+03</pdfrwt>
<pdfrwt beam="2">  1       -2 0.79022464E-01 0.59521195E+03</pdfrwt>
<totfact> 0.34863783E+02</totfact>
</mgrwt>
</event>
<event>
 4    1  0.5080671E-005  0.4767939E+03  0.7818608E-02  0.1020020E+00
         -2   -1    0    0    0  501 -0.00000000000E+00  0.00000000000E+00  0.80192462431E+02  0.80192462471E+02  0.25500000000E-02 0. -1.
          2   -1    0    0  501    0  0.00000000000E+00 -0.00000000000E+00 -0.70870868112E+03  0.70870868112E+03  0.25500000000E-02 0.  1.
    5000001    1    1    2    0    0  0.11744306321E+03 -0.54194817007E+02 -0.27718101839E+03  0.36491131559E+03  0.19900000000E+03 0.  0.
   -5000001    1    1    2    0    0 -0.11744306321E+03  0.54194817007E+02 -0.35133520030E+03  0.42398982801E+03  0.19900000000E+03 0.  0.
<mgrwt>
<rscale>  0 0.47679385E+03</rscale>
<asrwt>0</asrwt>
<pdfrwt beam="1">  1        2 0.10124409E+00 0.47679385E+03</pdfrwt>
<pdfrwt beam="2">  1       -2 0.11456066E-01 0.47679385E+03</pdfrwt>
<totfact> 0.24248257E+03</totfact>
</mgrwt>
</event>
<event>
 4    1  0.5080671E-005  0.7296736E+03  0.7818608E-02  0.9667790E-01
          2   -1    0    0  501    0  0.00000000000E+00  0.00000000000E+00  0.10257955372E+04  0.10257955372E+04  0.25500000000E-02 0.  1.
         -2   -1    0    0    0  501 -0.00000000000E+00 -0.00000000000E+00 -0.12975869917E+03  0.12975869920E+03  0.25500000000E-02 0. -1.
    5000001    1    1    2    0    0 -0.23472000109E+03 -0.18910092834E+03  0.36645990693E+03  0.51453523048E+03  0.19900000000E+03 0.  0.
   -5000001    1    1    2    0    0  0.23472000109E+03  0.18910092834E+03  0.52957693113E+03  0.64101900596E+03  0.19900000000E+03 0.  0.
<mgrwt>
<rscale>  0 0.72967361E+03</rscale>
<asrwt>0</asrwt>
<pdfrwt beam="1">  1        2 0.14654222E+00 0.72967361E+03</pdfrwt>
<pdfrwt beam="2">  1       -2 0.18536958E-01 0.72967361E+03</pdfrwt>
<totfact> 0.66248557E+02</totfact>
</mgrwt>
</event>
<event>
 4    1  0.5080671E-005  0.5023556E+03  0.7818608E-02  0.1013166E+00
          2   -1    0    0  501    0  0.00000000000E+00  0.00000000000E+00  0.52983085925E+02  0.52983085986E+02  0.25500000000E-02 0.  1.
         -2   -1    0    0    0  501 -0.00000000000E+00 -0.00000000000E+00 -0.11907630061E+04  0.11907630061E+04  0.25500000000E-02 0. -1.
    5000001    1    1    2    0    0  0.14018803048E+03 -0.61414304362E+02 -0.54894485954E+03  0.60362725211E+03  0.19900000000E+03 0.  0.
   -5000001    1    1    2    0    0 -0.14018803048E+03  0.61414304362E+02 -0.58883506066E+03  0.64011884000E+03  0.19900000000E+03 0.  0.
<mgrwt>
<rscale>  0 0.50235565E+03</rscale>
<asrwt>0</asrwt>
<pdfrwt beam="1">  1        2 0.75690130E-02 0.50235565E+03</pdfrwt>
<pdfrwt beam="2">  1       -2 0.17010898E+00 0.50235565E+03</pdfrwt>
<totfact> 0.20686089E+02</totfact>
</mgrwt>
</event>
<event>
 4    1  0.5080671E-005  0.5510797E+03  0.7818608E-02  0.1001244E+00
         -2   -1    0    0    0  501 -0.00000000000E+00  0.00000000000E+00  0.60650894897E+02  0.60650894950E+02  0.25500000000E-02 0. -1.
          2   -1    0    0  501    0  0.00000000000E+00 -0.00000000000E+00 -0.12517904486E+04  0.12517904486E+04  0.25500000000E-02 0.  1.
    5000001    1    1    2    0    0 -0.14750351092E+03  0.10803400766E+03 -0.46748189183E+03  0.53997125084E+03  0.19900000000E+03 0.  0.
   -5000001    1    1    2    0    0  0.14750351092E+03 -0.10803400766E+03 -0.72365766185E+03  0.77247009269E+03  0.19900000000E+03 0.  0.
<mgrwt>
<rscale>  0 0.55107971E+03</rscale>
<asrwt>0</asrwt>
<pdfrwt beam="1">  1        2 0.17882719E+00 0.55107971E+03</pdfrwt>
<pdfrwt beam="2">  1       -2 0.86644143E-02 0.55107971E+03</pdfrwt>
<totfact> 0.17443266E+03</totfact>
</mgrwt>
</event>
<event>
 4    1  0.5080671E-005  0.6896182E+03  0.7818608E-02  0.9735153E-01
          2   -1    0    0  501    0  0.00000000000E+00  0.00000000000E+00  0.17138019960E+03  0.17138019962E+03  0.25500000000E-02 0.  1.
         -2   -1    0    0    0  501 -0.00000000000E+00 -0.00000000000E+00 -0.69374016338E+03  0.69374016338E+03  0.25500000000E-02 0. -1.
    5000001    1    1    2    0    0  0.19207773732E+03 -0.20734990187E+02 -0.51817794422E+03  0.58773563689E+03  0.19900000000E+03 0.  0.
   -5000001    1    1    2    0    0 -0.19207773732E+03  0.20734990187E+02 -0.41820195556E+01  0.27738472611E+03  0.19900000000E+03 0.  0.
<mgrwt>
<rscale>  0 0.68961824E+03</rscale>
<asrwt>0</asrwt>
<pdfrwt beam="1">  1        2 0.24482886E-01 0.68961824E+03</pdfrwt>
<pdfrwt beam="2">  1       -2 0.99105736E-01 0.68961824E+03</pdfrwt>
<totfact> 0.19136599E+02</totfact>
</mgrwt>
</event>
<event>
 4    1  0.5080671E-005  0.4286669E+03  0.7818608E-02  0.1034282E+00
          2   -1    0    0  501    0  0.00000000000E+00  0.00000000000E+00  0.12930509210E+04  0.12930509210E+04  0.25500000000E-02 0.  1.
         -2   -1    0    0    0  501 -0.00000000000E+00 -0.00000000000E+00 -0.35527462110E+02  0.35527462201E+02  0.25500000000E-02 0. -1.
    5000001    1    1    2    0    0 -0.41173743524E+01  0.68574920203E+02  0.50407998692E+03  0.54627566820E+03  0.19900000000E+03 0.  0.
   -5000001    1    1    2    0    0  0.41173743524E+01 -0.68574920203E+02  0.75344347200E+03  0.78230271503E+03  0.19900000000E+03 0.  0.
<mgrwt>
<rscale>  0 0.42866685E+03</rscale>
<asrwt>0</asrwt>
<pdfrwt beam="1">  1        2 0.18472158E+00 0.42866685E+03</pdfrwt>
<pdfrwt beam="2">  1       -2 0.50753513E-02 0.42866685E+03</pdfrwt>
<totfact> 0.38357438E+03</totfact>
</mgrwt>
</event>
<event>
 4    1  0.5080671E-005  0.5062170E+03  0.7818608E-02  0.1012169E+00
         -2   -1    0    0    0  501 -0.00000000000E+00  0.00000000000E+00  0.18175220085E+02  0.18175220264E+02  0.25500000000E-02 0. -1.
          2   -1    0    0  501    0  0.00000000000E+00 -0.00000000000E+00 -0.35247941134E+04  0.35247941134E+04  0.25500000000E-02 0.  1.
    5000001    1    1    2    0    0  0.56131521517E+02  0.14588406816E+03 -0.17916441008E+04  0.18094260120E+04  0.19900000000E+03 0.  0.
   -5000001    1    1    2    0    0 -0.56131521517E+02 -0.14588406816E+03 -0.17149747925E+04  0.17335433216E+04  0.19900000000E+03 0.  0.
<mgrwt>
<rscale>  0 0.50621699E+03</rscale>
<asrwt>0</asrwt>
<pdfrwt beam="1">  1        2 0.50354158E+00 0.50621699E+03</pdfrwt>
<pdfrwt beam="2">  1       -2 0.25964623E-02 0.50621699E+03</pdfrwt>
<totfact> 0.71748899E+02</totfact>
</mgrwt>
</event>
<event>
 4    1  0.5080671E-005  0.6055748E+03  0.7818608E-02  0.9893907E-01
          2   -1    0    0  501    0  0.00000000000E+00  0.00000000000E+00  0.10285130800E+03  0.10285130803E+03  0.25500000000E-02 0. -1.
         -2   -1    0    0    0  501 -0.00000000000E+00 -0.00000000000E+00 -0.89138579762E+03  0.89138579763E+03  0.25500000000E-02 0.  1.
    5000001    1    1    2    0    0  0.21739882521E+03 -0.48751740705E+02 -0.31316438900E+03  0.43279546666E+03  0.19900000000E+03 0.  0.
   -5000001    1    1    2    0    0 -0.21739882521E+03  0.48751740705E+02 -0.47537010063E+03  0.56144163899E+03  0.19900000000E+03 0.  0.
<mgrwt>
<rscale>  0 0.60557475E+03</rscale>
<asrwt>0</asrwt>
<pdfrwt beam="1">  1        2 0.14693044E-01 0.60557475E+03</pdfrwt>
<pdfrwt beam="2">  1       -2 0.12734082E+00 0.60557475E+03</pdfrwt>
<totfact> 0.19076229E+02</totfact>
</mgrwt>
</event>
<event>
 4    1  0.5080671E-005  0.4585890E+03  0.7818608E-02  0.1025191E+00
         -2   -1    0    0    0  501 -0.00000000000E+00  0.00000000000E+00  0.18272957948E+03  0.18272957950E+03  0.25500000000E-02 0. -1.
          2   -1    0    0  501    0  0.00000000000E+00 -0.00000000000E+00 -0.28772552708E+03  0.28772552709E+03  0.25500000000E-02 0.  1.
    5000001    1    1    2    0    0 -0.11005858892E+03 -0.28900830983E+02 -0.47185806907E+02  0.23404198641E+03  0.19900000000E+03 0.  0.
   -5000001    1    1    2    0    0  0.11005858892E+03  0.28900830983E+02 -0.57810140687E+02  0.23641312018E+03  0.19900000000E+03 0.  0.
<mgrwt>
<rscale>  0 0.45858899E+03</rscale>
<asrwt>0</asrwt>
<pdfrwt beam="1">  1        2 0.41103647E-01 0.45858899E+03</pdfrwt>
<pdfrwt beam="2">  1       -2 0.26104226E-01 0.45858899E+03</pdfrwt>
<totfact> 0.16458039E+03</totfact>
</mgrwt>
</event>
<event>
 4    1  0.5080671E-005  0.4554794E+03  0.7818608E-02  0.1026101E+00
         -2   -1    0    0    0  501 -0.00000000000E+00  0.00000000000E+00  0.61202782533E+02  0.61202782586E+02  0.25500000000E-02 0. -1.
          2   -1    0    0  501    0  0.00000000000E+00 -0.00000000000E+00 -0.84743486703E+03  0.84743486703E+03  0.25500000000E-02 0.  1.
    5000001    1    1    2    0    0 -0.55972731160E+02 -0.94763939332E+02 -0.41764777027E+03  0.47554580310E+03  0.19900000000E+03 0.  0.
   -5000001    1    1    2    0    0  0.55972731160E+02  0.94763939332E+02 -0.36858431422E+03  0.43309184652E+03  0.19900000000E+03 0.  0.
<mgrwt>
<rscale>  0 0.45547940E+03</rscale>
<asrwt>0</asrwt>
<pdfrwt beam="1">  1        2 0.12106212E+00 0.45547940E+03</pdfrwt>
<pdfrwt beam="2">  1       -2 0.87432552E-02 0.45547940E+03</pdfrwt>
<totfact> 0.29952443E+03</totfact>
</mgrwt>
</event>
<event>
 4    1  0.5080671E-005  0.7519210E+03  0.7818608E-02  0.9632341E-01
          2   -1    0    0  501    0  0.00000000000E+00  0.00000000000E+00  0.35559707488E+04  0.35559707488E+04  0.25500000000E-02 0.  1.
         -2   -1    0    0    0  501 -0.00000000000E+00 -0.00000000000E+00 -0.39749008846E+02  0.39749008927E+02  0.25500000000E-02 0. -1.
    5000001    1    1    2    0    0  0.24423353426E+03 -0.20293409290E+03  0.19026083603E+04  0.19391626641E+04  0.19900000000E+03 0.  0.
   -5000001    1    1    2    0    0 -0.24423353426E+03  0.20293409290E+03  0.16136133797E+04  0.16565570936E+04  0.19900000000E+03 0.  0.
<mgrwt>
<rscale>  0 0.75192104E+03</rscale>
<asrwt>0</asrwt>
<pdfrwt beam="1">  1        2 0.50799556E+00 0.75192104E+03</pdfrwt>
<pdfrwt beam="2">  1       -2 0.56784328E-02 0.75192104E+03</pdfrwt>
<totfact> 0.20066288E+02</totfact>
</mgrwt>
</event>
<event>
 4    1  0.5080671E-005  0.8464900E+03  0.7818608E-02  0.9495060E-01
         -2   -1    0    0    0  501 -0.00000000000E+00  0.00000000000E+00  0.10239347540E+04  0.10239347540E+04  0.25500000000E-02 0. -1.
          2   -1    0    0  501    0  0.00000000000E+00 -0.00000000000E+00 -0.17494895035E+03  0.17494895037E+03  0.25500000000E-02 0.  1.
    5000001    1    1    2    0    0 -0.35676159276E+03 -0.74680061291E+02  0.54024338995E+03  0.68141020393E+03  0.19900000000E+03 0.  0.
   -5000001    1    1    2    0    0  0.35676159276E+03  0.74680061291E+02  0.30874241366E+03  0.51747350040E+03  0.19900000000E+03 0.  0.
<mgrwt>
<rscale>  0 0.84648995E+03</rscale>
<asrwt>0</asrwt>
<pdfrwt beam="1">  1        2 0.24992707E-01 0.84648995E+03</pdfrwt>
<pdfrwt beam="2">  1       -2 0.14627639E+00 0.84648995E+03</pdfrwt>
<totfact> 0.70640247E+01</totfact>
</mgrwt>
</event>
<event>
 4    1  0.5080671E-005  0.8169034E+03  0.7818608E-02  0.9535867E-01
         -2   -1    0    0    0  501 -0.00000000000E+00  0.00000000000E+00  0.11174196044E+03  0.11174196047E+03  0.25500000000E-02 0. -1.
          2   -1    0    0  501    0  0.00000000000E+00 -0.00000000000E+00 -0.14930184343E+04  0.14930184343E+04  0.25500000000E-02 0.  1.
    5000001    1    1    2    0    0 -0.28213963248E+03 -0.16447163927E+03 -0.97243906393E+03  0.10449365653E+04  0.19900000000E+03 0.  0.
   -5000001    1    1    2    0    0  0.28213963248E+03  0.16447163927E+03 -0.40883740991E+03  0.55982382950E+03  0.19900000000E+03 0.  0.
<mgrwt>
<rscale>  0 0.81690344E+03</rscale>
<asrwt>0</asrwt>
<pdfrwt beam="1">  1        2 0.21328834E+00 0.81690344E+03</pdfrwt>
<pdfrwt beam="2">  1       -2 0.15963138E-01 0.81690344E+03</pdfrwt>
<totfact> 0.46768116E+02</totfact>
</mgrwt>
</event>
<event>
 4    1  0.5080671E-005  0.5224089E+03  0.7818608E-02  0.1008090E+00
          2   -1    0    0  501    0  0.00000000000E+00  0.00000000000E+00  0.82643308077E+02  0.82643308116E+02  0.25500000000E-02 0.  1.
         -2   -1    0    0    0  501 -0.00000000000E+00 -0.00000000000E+00 -0.82556905465E+03  0.82556905465E+03  0.25500000000E-02 0. -1.
    5000001    1    1    2    0    0  0.26662536899E+02  0.14443312746E+03 -0.51748661825E+03  0.57355489645E+03  0.19900000000E+03 0.  0.
   -5000001    1    1    2    0    0 -0.26662536899E+02 -0.14443312746E+03 -0.22543912832E+03  0.33465746632E+03  0.19900000000E+03 0.  0.
<mgrwt>
<rscale>  0 0.52240887E+03</rscale>
<asrwt>0</asrwt>
<pdfrwt beam="1">  1        2 0.11806187E-01 0.52240887E+03</pdfrwt>
<pdfrwt beam="2">  1       -2 0.11793843E+00 0.52240887E+03</pdfrwt>
<totfact> 0.30253277E+02</totfact>
</mgrwt>
</event>
<event>
 4    1  0.5080671E-005  0.4370930E+03  0.7818608E-02  0.1031642E+00
          2   -1    0    0  501    0  0.00000000000E+00  0.00000000000E+00  0.93170873670E+03  0.93170873671E+03  0.25500000000E-02 0.  1.
         -2   -1    0    0    0  501 -0.00000000000E+00 -0.00000000000E+00 -0.51263421524E+02  0.51263421587E+02  0.25500000000E-02 0. -1.
    5000001    1    1    2    0    0  0.77208053684E+02 -0.43264662024E+02  0.39945245343E+03  0.45496832536E+03  0.19900000000E+03 0.  0.
   -5000001    1    1    2    0    0 -0.77208053684E+02  0.43264662024E+02  0.48099286175E+03  0.52800383293E+03  0.19900000000E+03 0.  0.
<mgrwt>
<rscale>  0 0.43709302E+03</rscale>
<asrwt>0</asrwt>
<pdfrwt beam="1">  1        2 0.13310125E+00 0.43709302E+03</pdfrwt>
<pdfrwt beam="2">  1       -2 0.73233460E-02 0.43709302E+03</pdfrwt>
<totfact> 0.34988345E+03</totfact>
</mgrwt>
</event>
<event>
 4    1  0.5080671E-005  0.7695304E+03  0.7818608E-02  0.9605199E-01
         -2   -1    0    0    0  501 -0.00000000000E+00  0.00000000000E+00  0.26822822671E+03  0.26822822673E+03  0.25500000000E-02 0. -1.
          2   -1    0    0  501    0  0.00000000000E+00 -0.00000000000E+00 -0.55193392712E+03  0.55193392712E+03  0.25500000000E-02 0.  1.
    5000001    1    1    2    0    0  0.24537123700E+03 -0.20274661873E+03 -0.23184806458E+03  0.44121169568E+03  0.19900000000E+03 0.  0.
   -5000001    1    1    2    0    0 -0.24537123700E+03  0.20274661873E+03 -0.51857635826E+02  0.37895045817E+03  0.19900000000E+03 0.  0.
<mgrwt>
<rscale>  0 0.76953040E+03</rscale>
<asrwt>0</asrwt>
<pdfrwt beam="1">  1        2 0.78847704E-01 0.76953040E+03</pdfrwt>
<pdfrwt beam="2">  1       -2 0.38318318E-01 0.76953040E+03</pdfrwt>
<totfact> 0.38710848E+02</totfact>
</mgrwt>
</event>
<event>
 4    1  0.5080671E-005  0.7022622E+03  0.7818608E-02  0.9713371E-01
         -2   -1    0    0    0  501 -0.00000000000E+00  0.00000000000E+00  0.64806109804E+03  0.64806109805E+03  0.25500000000E-02 0. -1.
          2   -1    0    0  501    0  0.00000000000E+00 -0.00000000000E+00 -0.19024911153E+03  0.19024911154E+03  0.25500000000E-02 0.  1.
    5000001    1    1    2    0    0  0.24222742380E+03 -0.52515736969E+02  0.40700776770E+03  0.51641877429E+03  0.19900000000E+03 0.  0.
   -5000001    1    1    2    0    0 -0.24222742380E+03  0.52515736969E+02  0.50804218820E+02  0.32189143530E+03  0.19900000000E+03 0.  0.
<mgrwt>
<rscale>  0 0.70226220E+03</rscale>
<asrwt>0</asrwt>
<pdfrwt beam="1">  1        2 0.27178445E-01 0.70226220E+03</pdfrwt>
<pdfrwt beam="2">  1       -2 0.92580157E-01 0.70226220E+03</pdfrwt>
<totfact> 0.19902812E+02</totfact>
</mgrwt>
</event>
<event>
 4    1  0.5080671E-005  0.5144987E+03  0.7818608E-02  0.1010062E+00
         -2   -1    0    0    0  501 -0.00000000000E+00  0.00000000000E+00  0.27493151110E+03  0.27493151112E+03  0.25500000000E-02 0. -1.
          2   -1    0    0  501    0  0.00000000000E+00 -0.00000000000E+00 -0.24070437198E+03  0.24070437199E+03  0.25500000000E-02 0.  1.
    5000001    1    1    2    0    0 -0.14650150457E+01 -0.15846108832E+03  0.55462411927E+02  0.26036348038E+03  0.19900000000E+03 0.  0.
   -5000001    1    1    2    0    0  0.14650150457E+01  0.15846108832E+03 -0.21235272799E+02  0.25527240272E+03  0.19900000000E+03 0.  0.
<mgrwt>
<rscale>  0 0.51449866E+03</rscale>
<asrwt>0</asrwt>
<pdfrwt beam="1">  1        2 0.34386339E-01 0.51449866E+03</pdfrwt>
<pdfrwt beam="2">  1       -2 0.39275930E-01 0.51449866E+03</pdfrwt>
<totfact> 0.93741569E+02</totfact>
</mgrwt>
</event>
<event>
 4    1  0.5080671E-005  0.7776247E+03  0.7818608E-02  0.9592981E-01
         -2   -1    0    0    0  501 -0.00000000000E+00  0.00000000000E+00  0.38890219818E+02  0.38890219902E+02  0.25500000000E-02 0. -1.
          2   -1    0    0  501    0  0.00000000000E+00 -0.00000000000E+00 -0.38872254292E+04  0.38872254292E+04  0.25500000000E-02 0.  1.
    5000001    1    1    2    0    0  0.15504782703E+03 -0.11663456584E+03 -0.32969608957E+04  0.33086546508E+04  0.19900000000E+03 0.  0.
   -5000001    1    1    2    0    0 -0.15504782703E+03  0.11663456584E+03 -0.55137431371E+03  0.61746099831E+03  0.19900000000E+03 0.  0.
<mgrwt>
<rscale>  0 0.77762472E+03</rscale>
<asrwt>0</asrwt>
<pdfrwt beam="1">  1        2 0.55531767E+00 0.77762472E+03</pdfrwt>
<pdfrwt beam="2">  1       -2 0.55557481E-02 0.77762472E+03</pdfrwt>
<totfact> 0.12827381E+02</totfact>
</mgrwt>
</event>
<event>
 4    1  0.5080671E-005  0.1341509E+04  0.7818608E-02  0.8997281E-01
          2   -1    0    0  501    0  0.00000000000E+00  0.00000000000E+00  0.69703240207E+03  0.69703240207E+03  0.25500000000E-02 0.  1.
         -2   -1    0    0    0  501 -0.00000000000E+00 -0.00000000000E+00 -0.64546707646E+03  0.64546707647E+03  0.25500000000E-02 0. -1.
    5000001    1    1    2    0    0  0.53422032594E+03  0.29085426496E+03  0.22673659757E+03  0.67896836802E+03  0.19900000000E+03 0.  0.
   -5000001    1    1    2    0    0 -0.53422032594E+03 -0.29085426496E+03 -0.17517127197E+03  0.66353111052E+03  0.19900000000E+03 0.  0.
<mgrwt>
<rscale>  0 0.13415088E+04</rscale>
<asrwt>0</asrwt>
<pdfrwt beam="1">  1        2 0.99576057E-01 0.13415088E+04</pdfrwt>
<pdfrwt beam="2">  1       -2 0.92209582E-01 0.13415088E+04</pdfrwt>
<totfact> 0.44257424E+01</totfact>
</mgrwt>
</event>
<event>
 4    1  0.5080671E-005  0.1067834E+04  0.7818608E-02  0.9237123E-01
          2   -1    0    0  501    0  0.00000000000E+00  0.00000000000E+00  0.24492079102E+04  0.24492079102E+04  0.25500000000E-02 0.  1.
         -2   -1    0    0    0  501 -0.00000000000E+00 -0.00000000000E+00 -0.11639163692E+03  0.11639163695E+03  0.25500000000E-02 0. -1.
    5000001    1    1    2    0    0  0.15800858261E+03  0.45820477873E+03  0.91965087559E+03  0.10584314170E+04  0.19900000000E+03 0.  0.
   -5000001    1    1    2    0    0 -0.15800858261E+03 -0.45820477873E+03  0.14131653977E+04  0.15071681302E+04  0.19900000000E+03 0.  0.
<mgrwt>
<rscale>  0 0.10678339E+04</rscale>
<asrwt>0</asrwt>
<pdfrwt beam="1">  1        2 0.34988683E+00 0.10678339E+04</pdfrwt>
<pdfrwt beam="2">  1       -2 0.16627377E-01 0.10678339E+04</pdfrwt>
<totfact> 0.13830052E+02</totfact>
</mgrwt>
</event>
<event>
 4    1  0.5080671E-005  0.6684636E+03  0.7818608E-02  0.9772737E-01
         -2   -1    0    0    0  501 -0.00000000000E+00  0.00000000000E+00  0.14920297164E+04  0.14920297164E+04  0.25500000000E-02 0. -1.
          2   -1    0    0  501    0  0.00000000000E+00 -0.00000000000E+00 -0.74871774201E+02  0.74871774244E+02  0.25500000000E-02 0.  1.
    5000001    1    1    2    0    0 -0.17726709358E+03 -0.18535857345E+03  0.89505109126E+03  0.95210234701E+03  0.19900000000E+03 0.  0.
   -5000001    1    1    2    0    0  0.17726709358E+03  0.18535857345E+03  0.52210685093E+03  0.61479914363E+03  0.19900000000E+03 0.  0.
<mgrwt>
<rscale>  0 0.66846365E+03</rscale>
<asrwt>0</asrwt>
<pdfrwt beam="1">  1        2 0.10695967E-01 0.66846365E+03</pdfrwt>
<pdfrwt beam="2">  1       -2 0.21314711E+00 0.66846365E+03</pdfrwt>
<totfact> 0.68372844E+01</totfact>
</mgrwt>
</event>
<event>
 4    1  0.5080671E-005  0.4437086E+03  0.7818608E-02  0.1029615E+00
          2   -1    0    0  501    0  0.00000000000E+00  0.00000000000E+00  0.16190274551E+04  0.16190274551E+04  0.25500000000E-02 0.  1.
         -2   -1    0    0    0  501 -0.00000000000E+00 -0.00000000000E+00 -0.30400559348E+02  0.30400559455E+02  0.25500000000E-02 0. -1.
    5000001    1    1    2    0    0  0.14355813965E+02 -0.34964657292E+02  0.11307243803E+04  0.11487241797E+04  0.19900000000E+03 0.  0.
   -5000001    1    1    2    0    0 -0.14355813965E+02  0.34964657292E+02  0.45790251542E+03  0.50070383490E+03  0.19900000000E+03 0.  0.
<mgrwt>
<rscale>  0 0.44370864E+03</rscale>
<asrwt>0</asrwt>
<pdfrwt beam="1">  1        2 0.23128961E+00 0.44370864E+03</pdfrwt>
<pdfrwt beam="2">  1       -2 0.43429376E-02 0.44370864E+03</pdfrwt>
<totfact> 0.32977200E+03</totfact>
</mgrwt>
</event>
<event>
 4    1  0.5080671E-005  0.8067674E+03  0.7818608E-02  0.9550273E-01
         -2   -1    0    0    0  501 -0.00000000000E+00  0.00000000000E+00  0.63631126460E+02  0.63631126511E+02  0.25500000000E-02 0. -1.
          2   -1    0    0  501    0  0.00000000000E+00 -0.00000000000E+00 -0.25572140188E+04  0.25572140188E+04  0.25500000000E-02 0.  1.
    5000001    1    1    2    0    0  0.66063952175E+02 -0.33702880294E+03 -0.14802496919E+04  0.15325446193E+04  0.19900000000E+03 0.  0.
   -5000001    1    1    2    0    0 -0.66063952175E+02  0.33702880294E+03 -0.10133332004E+04  0.10883005260E+04  0.19900000000E+03 0.  0.
<mgrwt>
<rscale>  0 0.80676740E+03</rscale>
<asrwt>0</asrwt>
<pdfrwt beam="1">  1        2 0.36531622E+00 0.80676740E+03</pdfrwt>
<pdfrwt beam="2">  1       -2 0.90901625E-02 0.80676740E+03</pdfrwt>
<totfact> 0.33903405E+02</totfact>
</mgrwt>
</event>
<event>
 4    1  0.5080671E-005  0.5958674E+03  0.7818608E-02  0.9914017E-01
          2   -1    0    0  501    0  0.00000000000E+00  0.00000000000E+00  0.19180399639E+03  0.19180399641E+03  0.25500000000E-02 0.  1.
         -2   -1    0    0    0  501 -0.00000000000E+00 -0.00000000000E+00 -0.46278754690E+03  0.46278754691E+03  0.25500000000E-02 0. -1.
    5000001    1    1    2    0    0 -0.12743404450E+03 -0.17086524483E+03 -0.20257666282E+03  0.35506713718E+03  0.19900000000E+03 0.  0.
   -5000001    1    1    2    0    0  0.12743404450E+03  0.17086524483E+03 -0.68406887692E+02  0.29952440614E+03  0.19900000000E+03 0.  0.
<mgrwt>
<rscale>  0 0.59586744E+03</rscale>
<asrwt>0</asrwt>
<pdfrwt beam="1">  1        2 0.27400571E-01 0.59586744E+03</pdfrwt>
<pdfrwt beam="2">  1       -2 0.66112506E-01 0.59586744E+03</pdfrwt>
<totfact> 0.41904266E+02</totfact>
</mgrwt>
</event>
<event>
 4    1  0.5080671E-005  0.1030356E+04  0.7818608E-02  0.9275864E-01
         -2   -1    0    0    0  501 -0.00000000000E+00  0.00000000000E+00  0.86651108188E+02  0.86651108225E+02  0.25500000000E-02 0. -1.
          2   -1    0    0  501    0  0.00000000000E+00 -0.00000000000E+00 -0.30629514652E+04  0.30629514652E+04  0.25500000000E-02 0.  1.
    5000001    1    1    2    0    0  0.19004753740E+03  0.43335725492E+03 -0.16210621509E+04  0.17003999747E+04  0.19900000000E+03 0.  0.
   -5000001    1    1    2    0    0 -0.19004753740E+03 -0.43335725492E+03 -0.13552382062E+04  0.14492025988E+04  0.19900000000E+03 0.  0.
<mgrwt>
<rscale>  0 0.10303555E+04</rscale>
<asrwt>0</asrwt>
<pdfrwt beam="1">  1        2 0.43756443E+00 0.10303555E+04</pdfrwt>
<pdfrwt beam="2">  1       -2 0.12378732E-01 0.10303555E+04</pdfrwt>
<totfact> 0.10709346E+02</totfact>
</mgrwt>
</event>
<event>
 4    1  0.5080671E-005  0.8937601E+03  0.7818608E-02  0.9433415E-01
          2   -1    0    0  501    0  0.00000000000E+00  0.00000000000E+00  0.24684452140E+03  0.24684452141E+03  0.25500000000E-02 0.  1.
         -2   -1    0    0    0  501 -0.00000000000E+00 -0.00000000000E+00 -0.80901856749E+03  0.80901856749E+03  0.25500000000E-02 0. -1.
    5000001    1    1    2    0    0  0.36742556377E+03  0.13743280663E+03 -0.18797963110E+03  0.47835829977E+03  0.19900000000E+03 0.  0.
   -5000001    1    1    2    0    0 -0.36742556377E+03 -0.13743280663E+03 -0.37419441499E+03  0.57750478913E+03  0.19900000000E+03 0.  0.
<mgrwt>
<rscale>  0 0.89376015E+03</rscale>
<asrwt>0</asrwt>
<pdfrwt beam="1">  1        2 0.35263503E-01 0.89376015E+03</pdfrwt>
<pdfrwt beam="2">  1       -2 0.11557408E+00 0.89376015E+03</pdfrwt>
<totfact> 0.86704027E+01</totfact>
</mgrwt>
</event>
<event>
 4    1  0.5080671E-005  0.5865466E+03  0.7818608E-02  0.9933718E-01
         -2   -1    0    0    0  501 -0.00000000000E+00  0.00000000000E+00  0.41201679460E+02  0.41201679539E+02  0.25500000000E-02 0. -1.
          2   -1    0    0  501    0  0.00000000000E+00 -0.00000000000E+00 -0.20875172466E+04  0.20875172466E+04  0.25500000000E-02 0.  1.
    5000001    1    1    2    0    0 -0.19763931599E+03  0.48362095773E+02 -0.76632581845E+03  0.81746954167E+03  0.19900000000E+03 0.  0.
   -5000001    1    1    2    0    0  0.19763931599E+03 -0.48362095773E+02 -0.12799897487E+04  0.13112493845E+04  0.19900000000E+03 0.  0.
<mgrwt>
<rscale>  0 0.58654656E+03</rscale>
<asrwt>0</asrwt>
<pdfrwt beam="1">  1        2 0.29821668E+00 0.58654656E+03</pdfrwt>
<pdfrwt beam="2">  1       -2 0.58859555E-02 0.58654656E+03</pdfrwt>
<totfact> 0.11925956E+03</totfact>
</mgrwt>
</event>
<event>
 4    1  0.5080671E-005  0.8223148E+03  0.7818608E-02  0.9528267E-01
         -2   -1    0    0    0  501 -0.00000000000E+00  0.00000000000E+00  0.93152803149E+02  0.93152803184E+02  0.25500000000E-02 0. -1.
          2   -1    0    0  501    0  0.00000000000E+00 -0.00000000000E+00 -0.18147645755E+04  0.18147645755E+04  0.25500000000E-02 0.  1.
    5000001    1    1    2    0    0  0.34971960700E+03 -0.43974240073E+02 -0.10283072101E+04  0.11051037308E+04  0.19900000000E+03 0.  0.
   -5000001    1    1    2    0    0 -0.34971960700E+03  0.43974240073E+02 -0.69330456220E+03  0.80281364792E+03  0.19900000000E+03 0.  0.
<mgrwt>
<rscale>  0 0.82231480E+03</rscale>
<asrwt>0</asrwt>
<pdfrwt beam="1">  1        2 0.25925206E+00 0.82231480E+03</pdfrwt>
<pdfrwt beam="2">  1       -2 0.13307544E-01 0.82231480E+03</pdfrwt>
<totfact> 0.43337677E+02</totfact>
</mgrwt>
</event>
<event>
 4    1  0.5080671E-005  0.5249750E+03  0.7818608E-02  0.1007458E+00
         -2   -1    0    0    0  501 -0.00000000000E+00  0.00000000000E+00  0.70961715568E+02  0.70961715613E+02  0.25500000000E-02 0. -1.
          2   -1    0    0  501    0  0.00000000000E+00 -0.00000000000E+00 -0.97094181379E+03  0.97094181379E+03  0.25500000000E-02 0.  1.
    5000001    1    1    2    0    0 -0.14655266593E+03 -0.51620231668E+02 -0.59250507917E+03  0.64405403582E+03  0.19900000000E+03 0.  0.
   -5000001    1    1    2    0    0  0.14655266593E+03  0.51620231668E+02 -0.30747501905E+03  0.39784949359E+03  0.19900000000E+03 0.  0.
<mgrwt>
<rscale>  0 0.52497504E+03</rscale>
<asrwt>0</asrwt>
<pdfrwt beam="1">  1        2 0.13870597E+00 0.52497504E+03</pdfrwt>
<pdfrwt beam="2">  1       -2 0.10137388E-01 0.52497504E+03</pdfrwt>
<totfact> 0.19706926E+03</totfact>
</mgrwt>
</event>
<event>
 4    1  0.5080671E-005  0.5432324E+03  0.7818608E-02  0.1003073E+00
          2   -1    0    0  501    0  0.00000000000E+00  0.00000000000E+00  0.14541518451E+03  0.14541518454E+03  0.25500000000E-02 0.  1.
         -2   -1    0    0    0  501 -0.00000000000E+00 -0.00000000000E+00 -0.50734293753E+03  0.50734293753E+03  0.25500000000E-02 0. -1.
    5000001    1    1    2    0    0 -0.16150079230E+03  0.88645484809E+02 -0.16258897311E+03  0.31619092660E+03  0.19900000000E+03 0.  0.
   -5000001    1    1    2    0    0  0.16150079230E+03 -0.88645484809E+02 -0.19933877990E+03  0.33656719547E+03  0.19900000000E+03 0.  0.
<mgrwt>
<rscale>  0 0.54323242E+03</rscale>
<asrwt>0</asrwt>
<pdfrwt beam="1">  1        2 0.20773598E-01 0.54323242E+03</pdfrwt>
<pdfrwt beam="2">  1       -2 0.72477562E-01 0.54323242E+03</pdfrwt>
<totfact> 0.47221860E+02</totfact>
</mgrwt>
</event>
<event>
 4    1  0.5080671E-005  0.6409461E+03  0.7818608E-02  0.9823918E-01
          2   -1    0    0  501    0  0.00000000000E+00  0.00000000000E+00  0.90192281239E+03  0.90192281239E+03  0.25500000000E-02 0.  1.
         -2   -1    0    0    0  501 -0.00000000000E+00 -0.00000000000E+00 -0.11387112051E+03  0.11387112054E+03  0.25500000000E-02 0. -1.
    5000001    1    1    2    0    0 -0.16818913127E+03 -0.14358689868E+03  0.20518967779E+03  0.36139809797E+03  0.19900000000E+03 0.  0.
   -5000001    1    1    2    0    0  0.16818913127E+03  0.14358689868E+03  0.58286201409E+03  0.65439583496E+03  0.19900000000E+03 0.  0.
<mgrwt>
<rscale>  0 0.64094605E+03</rscale>
<asrwt>0</asrwt>
<pdfrwt beam="1">  1        2 0.12884612E+00 0.64094605E+03</pdfrwt>
<pdfrwt beam="2">  1       -2 0.16267303E-01 0.64094605E+03</pdfrwt>
<totfact> 0.99316715E+02</totfact>
</mgrwt>
</event>
<event>
 4    1  0.5080671E-005  0.1115552E+04  0.7818608E-02  0.9190165E-01
          2   -1    0    0  501    0  0.00000000000E+00  0.00000000000E+00  0.14996553538E+03  0.14996553540E+03  0.25500000000E-02 0.  1.
         -2   -1    0    0    0  501 -0.00000000000E+00 -0.00000000000E+00 -0.20745703345E+04  0.20745703345E+04  0.25500000000E-02 0. -1.
    5000001    1    1    2    0    0  0.46036603921E+03 -0.84079948681E+02 -0.50536462515E+03  0.71693844378E+03  0.19900000000E+03 0.  0.
   -5000001    1    1    2    0    0 -0.46036603921E+03  0.84079948681E+02 -0.14192401740E+04  0.15075974261E+04  0.19900000000E+03 0.  0.
<mgrwt>
<rscale>  0 0.11155520E+04</rscale>
<asrwt>0</asrwt>
<pdfrwt beam="1">  1        2 0.21423649E-01 0.11155520E+04</pdfrwt>
<pdfrwt beam="2">  1       -2 0.29636717E+00 0.11155520E+04</pdfrwt>
<totfact> 0.88107292E+00</totfact>
</mgrwt>
</event>
<event>
 4    1  0.5080671E-005  0.7275378E+03  0.7818608E-02  0.9671264E-01
         -2   -1    0    0    0  501 -0.00000000000E+00  0.00000000000E+00  0.55087388820E+02  0.55087388879E+02  0.25500000000E-02 0. -1.
          2   -1    0    0  501    0  0.00000000000E+00 -0.00000000000E+00 -0.24021435271E+04  0.24021435271E+04  0.25500000000E-02 0.  1.
    5000001    1    1    2    0    0  0.15828545507E+03 -0.23226845225E+03 -0.77786173063E+03  0.85068959743E+03  0.19900000000E+03 0.  0.
   -5000001    1    1    2    0    0 -0.15828545507E+03  0.23226845225E+03 -0.15691944076E+04  0.16065413185E+04  0.19900000000E+03 0.  0.
<mgrwt>
<rscale>  0 0.72753781E+03</rscale>
<asrwt>0</asrwt>
<pdfrwt beam="1">  1        2 0.34316330E+00 0.72753781E+03</pdfrwt>
<pdfrwt beam="2">  1       -2 0.78696285E-02 0.72753781E+03</pdfrwt>
<totfact> 0.51720592E+02</totfact>
</mgrwt>
</event>
<event>
 4    1  0.5080671E-005  0.1069431E+04  0.7818608E-02  0.9235510E-01
          2   -1    0    0  501    0  0.00000000000E+00  0.00000000000E+00  0.38796795906E+03  0.38796795906E+03  0.25500000000E-02 0.  1.
         -2   -1    0    0    0  501 -0.00000000000E+00 -0.00000000000E+00 -0.73696940571E+03  0.73696940572E+03  0.25500000000E-02 0. -1.
    5000001    1    1    2    0    0  0.49146502315E+03 -0.13623732325E+02 -0.24581354847E+03  0.58459282896E+03  0.19900000000E+03 0.  0.
   -5000001    1    1    2    0    0 -0.49146502315E+03  0.13623732325E+02 -0.10318789819E+03  0.54034453582E+03  0.19900000000E+03 0.  0.
<mgrwt>
<rscale>  0 0.10694307E+04</rscale>
<asrwt>0</asrwt>
<pdfrwt beam="1">  1        2 0.55423994E-01 0.10694307E+04</pdfrwt>
<pdfrwt beam="2">  1       -2 0.10528134E+00 0.10694307E+04</pdfrwt>
<totfact> 0.65061179E+01</totfact>
</mgrwt>
</event>
<event>
 4    1  0.5080671E-005  0.6430371E+03  0.7818608E-02  0.9819933E-01
         -2   -1    0    0    0  501 -0.00000000000E+00  0.00000000000E+00  0.29630979937E+02  0.29630980047E+02  0.25500000000E-02 0. -1.
          2   -1    0    0  501    0  0.00000000000E+00 -0.00000000000E+00 -0.34887198080E+04  0.34887198080E+04  0.25500000000E-02 0.  1.
    5000001    1    1    2    0    0 -0.10440527458E+03  0.21031532075E+03 -0.12209579837E+04  0.12591554287E+04  0.19900000000E+03 0.  0.
   -5000001    1    1    2    0    0  0.10440527458E+03 -0.21031532075E+03 -0.22381308444E+04  0.22591953594E+04  0.19900000000E+03 0.  0.
<mgrwt>
<rscale>  0 0.64303713E+03</rscale>
<asrwt>0</asrwt>
<pdfrwt beam="1">  1        2 0.49838828E+00 0.64303713E+03</pdfrwt>
<pdfrwt beam="2">  1       -2 0.42329994E-02 0.64303713E+03</pdfrwt>
<totfact> 0.35209675E+02</totfact>
</mgrwt>
</event>
<event>
 4    1  0.5080671E-005  0.7843790E+03  0.7818608E-02  0.9582907E-01
         -2   -1    0    0    0  501 -0.00000000000E+00  0.00000000000E+00  0.16227788338E+03  0.16227788340E+03  0.25500000000E-02 0. -1.
          2   -1    0    0  501    0  0.00000000000E+00 -0.00000000000E+00 -0.94783456957E+03  0.94783456957E+03  0.25500000000E-02 0.  1.
    5000001    1    1    2    0    0  0.25892102106E+03 -0.68686429607E+02 -0.10117087377E+03  0.34870398113E+03  0.19900000000E+03 0.  0.
   -5000001    1    1    2    0    0 -0.25892102106E+03  0.68686429607E+02 -0.68438581242E+03  0.76140847184E+03  0.19900000000E+03 0.  0.
<mgrwt>
<rscale>  0 0.78437896E+03</rscale>
<asrwt>0</asrwt>
<pdfrwt beam="1">  1        2 0.13540494E+00 0.78437896E+03</pdfrwt>
<pdfrwt beam="2">  1       -2 0.23182555E-01 0.78437896E+03</pdfrwt>
<totfact> 0.49869552E+02</totfact>
</mgrwt>
</event>
<event>
 4    1  0.5080671E-005  0.6886233E+03  0.7818608E-02  0.9736888E-01
          2   -1    0    0  501    0  0.00000000000E+00  0.00000000000E+00  0.20484532226E+04  0.20484532226E+04  0.25500000000E-02 0.  1.
         -2   -1    0    0    0  501 -0.00000000000E+00 -0.00000000000E+00 -0.57873184265E+02  0.57873184322E+02  0.25500000000E-02 0. -1.
    5000001    1    1    2    0    0  0.21637506744E+03  0.94741410017E+02  0.14607369434E+04  0.14930329944E+04  0.19900000000E+03 0.  0.
   -5000001    1    1    2    0    0 -0.21637506744E+03 -0.94741410017E+02  0.52984309492E+03  0.61329341250E+03  0.19900000000E+03 0.  0.
<mgrwt>
<rscale>  0 0.68862330E+03</rscale>
<asrwt>0</asrwt>
<pdfrwt beam="1">  1        2 0.29263608E+00 0.68862330E+03</pdfrwt>
<pdfrwt beam="2">  1       -2 0.82676005E-02 0.68862330E+03</pdfrwt>
<totfact> 0.72451688E+02</totfact>
</mgrwt>
</event>
<event>
 4    1  0.5080671E-005  0.5266239E+03  0.7818608E-02  0.1007054E+00
         -2   -1    0    0    0  501 -0.00000000000E+00  0.00000000000E+00  0.92657551327E+03  0.92657551327E+03  0.25500000000E-02 0. -1.
          2   -1    0    0  501    0  0.00000000000E+00 -0.00000000000E+00 -0.74827329075E+02  0.74827329119E+02  0.25500000000E-02 0.  1.
    5000001    1    1    2    0    0  0.14212594002E+03  0.11485295242E+02  0.61024110362E+03  0.65751570276E+03  0.19900000000E+03 0.  0.
   -5000001    1    1    2    0    0 -0.14212594002E+03 -0.11485295242E+02  0.24150708058E+03  0.34388713963E+03  0.19900000000E+03 0.  0.
<mgrwt>
<rscale>  0 0.52662385E+03</rscale>
<asrwt>0</asrwt>
<pdfrwt beam="1">  1        2 0.10689619E-01 0.52662385E+03</pdfrwt>
<pdfrwt beam="2">  1       -2 0.13236792E+00 0.52662385E+03</pdfrwt>
<totfact> 0.25701033E+02</totfact>
</mgrwt>
</event>
<event>
 4    1  0.5080671E-005  0.7368825E+03  0.7818608E-02  0.9656157E-01
          2   -1    0    0  501    0  0.00000000000E+00  0.00000000000E+00  0.14644612666E+04  0.14644612666E+04  0.25500000000E-02 0.  1.
         -2   -1    0    0    0  501 -0.00000000000E+00 -0.00000000000E+00 -0.92695486494E+02  0.92695486529E+02  0.25500000000E-02 0. -1.
    5000001    1    1    2    0    0 -0.13327650718E+03 -0.27873073382E+03  0.63019377684E+03  0.72951946218E+03  0.19900000000E+03 0.  0.
   -5000001    1    1    2    0    0  0.13327650718E+03  0.27873073382E+03  0.74157200331E+03  0.82763729098E+03  0.19900000000E+03 0.  0.
<mgrwt>
<rscale>  0 0.73688249E+03</rscale>
<asrwt>0</asrwt>
<pdfrwt beam="1">  1        2 0.20920873E+00 0.73688249E+03</pdfrwt>
<pdfrwt beam="2">  1       -2 0.13242214E-01 0.73688249E+03</pdfrwt>
<totfact> 0.66618050E+02</totfact>
</mgrwt>
</event>
<event>
 4    1  0.5080671E-005  0.5059010E+03  0.7818608E-02  0.1012250E+00
         -2   -1    0    0    0  501 -0.00000000000E+00  0.00000000000E+00  0.32302964585E+02  0.32302964686E+02  0.25500000000E-02 0. -1.
          2   -1    0    0  501    0  0.00000000000E+00 -0.00000000000E+00 -0.19807452581E+04  0.19807452581E+04  0.25500000000E-02 0.  1.
    5000001    1    1    2    0    0 -0.12150705291E+03 -0.58750249856E+02 -0.12867134496E+04  0.13089874167E+04  0.19900000000E+03 0.  0.
   -5000001    1    1    2    0    0  0.12150705291E+03  0.58750249856E+02 -0.66172884396E+03  0.70406080611E+03  0.19900000000E+03 0.  0.
<mgrwt>
<rscale>  0 0.50590095E+03</rscale>
<asrwt>0</asrwt>
<pdfrwt beam="1">  1        2 0.28296353E+00 0.50590095E+03</pdfrwt>
<pdfrwt beam="2">  1       -2 0.46147105E-02 0.50590095E+03</pdfrwt>
<totfact> 0.19751501E+03</totfact>
</mgrwt>
</event>
<event>
 4    1  0.5080671E-005  0.4525821E+03  0.7818608E-02  0.1026955E+00
         -2   -1    0    0    0  501 -0.00000000000E+00  0.00000000000E+00  0.89975173983E+03  0.89975173983E+03  0.25500000000E-02 0. -1.
          2   -1    0    0  501    0  0.00000000000E+00 -0.00000000000E+00 -0.56913087290E+02  0.56913087348E+02  0.25500000000E-02 0.  1.
    5000001    1    1    2    0    0  0.98665024452E+01  0.10367562852E+03  0.47971807801E+03  0.52969464617E+03  0.19900000000E+03 0.  0.
   -5000001    1    1    2    0    0 -0.98665024452E+01 -0.10367562852E+03  0.36312057453E+03  0.42697018100E+03  0.19900000000E+03 0.  0.
<mgrwt>
<rscale>  0 0.45258214E+03</rscale>
<asrwt>0</asrwt>
<pdfrwt beam="1">  1        2 0.81304417E-02 0.45258214E+03</pdfrwt>
<pdfrwt beam="2">  1       -2 0.12853595E+00 0.45258214E+03</pdfrwt>
<totfact> 0.39239171E+02</totfact>
</mgrwt>
</event>
<event>
 4    1  0.5080671E-005  0.4900533E+03  0.7818608E-02  0.1016408E+00
          2   -1    0    0  501    0  0.00000000000E+00  0.00000000000E+00  0.15009597153E+04  0.15009597153E+04  0.25500000000E-02 0.  1.
         -2   -1    0    0    0  501 -0.00000000000E+00 -0.00000000000E+00 -0.39999773275E+02  0.39999773356E+02  0.25500000000E-02 0. -1.
    5000001    1    1    2    0    0 -0.23417596480E+02 -0.14091230981E+03  0.74837461974E+03  0.78744538499E+03  0.19900000000E+03 0.  0.
   -5000001    1    1    2    0    0  0.23417596480E+02  0.14091230981E+03  0.71258532227E+03  0.75351410365E+03  0.19900000000E+03 0.  0.
<mgrwt>
<rscale>  0 0.49005326E+03</rscale>
<asrwt>0</asrwt>
<pdfrwt beam="1">  1        2 0.21442282E+00 0.49005326E+03</pdfrwt>
<pdfrwt beam="2">  1       -2 0.57142532E-02 0.49005326E+03</pdfrwt>
<totfact> 0.24807076E+03</totfact>
</mgrwt>
</event>
<event>
 4    1  0.5080671E-005  0.5309968E+03  0.7818608E-02  0.1005991E+00
         -2   -1    0    0    0  501 -0.00000000000E+00  0.00000000000E+00  0.73282987300E+02  0.73282987344E+02  0.25500000000E-02 0. -1.
          2   -1    0    0  501    0  0.00000000000E+00 -0.00000000000E+00 -0.96187933897E+03  0.96187933897E+03  0.25500000000E-02 0.  1.
    5000001    1    1    2    0    0  0.16205455041E+03  0.56567360505E+02 -0.37065959501E+03  0.45436887983E+03  0.19900000000E+03 0.  0.
   -5000001    1    1    2    0    0 -0.16205455041E+03 -0.56567360505E+02 -0.51793675666E+03  0.58079344649E+03  0.19900000000E+03 0.  0.
<mgrwt>
<rscale>  0 0.53099677E+03</rscale>
<asrwt>0</asrwt>
<pdfrwt beam="1">  1        2 0.13741133E+00 0.53099677E+03</pdfrwt>
<pdfrwt beam="2">  1       -2 0.10468999E-01 0.53099677E+03</pdfrwt>
<totfact> 0.18947315E+03</totfact>
</mgrwt>
</event>
<event>
 4    1  0.5080671E-005  0.5352740E+03  0.7818608E-02  0.1004961E+00
          2   -1    0    0  501    0  0.00000000000E+00  0.00000000000E+00  0.36683391465E+03  0.36683391466E+03  0.25500000000E-02 0.  1.
         -2   -1    0    0    0  501 -0.00000000000E+00 -0.00000000000E+00 -0.19526431995E+03  0.19526431997E+03  0.25500000000E-02 0. -1.
    5000001    1    1    2    0    0 -0.17721169716E+03  0.35836837951E+01  0.11175777733E+03  0.28897686619E+03  0.19900000000E+03 0.  0.
   -5000001    1    1    2    0    0  0.17721169716E+03 -0.35836837951E+01  0.59811817372E+02  0.27312136844E+03  0.19900000000E+03 0.  0.
<mgrwt>
<rscale>  0 0.53527404E+03</rscale>
<asrwt>0</asrwt>
<pdfrwt beam="1">  1        2 0.52404844E-01 0.53527404E+03</pdfrwt>
<pdfrwt beam="2">  1       -2 0.27894903E-01 0.53527404E+03</pdfrwt>
<totfact> 0.11185253E+03</totfact>
</mgrwt>
</event>
<event>
 4    1  0.5080671E-005  0.4838203E+03  0.7818608E-02  0.1018091E+00
          2   -1    0    0  501    0  0.00000000000E+00  0.00000000000E+00  0.73351972210E+02  0.73351972255E+02  0.25500000000E-02 0.  1.
         -2   -1    0    0    0  501 -0.00000000000E+00 -0.00000000000E+00 -0.79780421146E+03  0.79780421146E+03  0.25500000000E-02 0. -1.
    5000001    1    1    2    0    0  0.10133317180E+03  0.58506017975E+02 -0.49241858269E+03  0.54384595836E+03  0.19900000000E+03 0.  0.
   -5000001    1    1    2    0    0 -0.10133317180E+03 -0.58506017975E+02 -0.23203365656E+03  0.32731022536E+03  0.19900000000E+03 0.  0.
<mgrwt>
<rscale>  0 0.48382027E+03</rscale>
<asrwt>0</asrwt>
<pdfrwt beam="1">  1        2 0.10478854E-01 0.48382027E+03</pdfrwt>
<pdfrwt beam="2">  1       -2 0.11397203E+00 0.48382027E+03</pdfrwt>
<totfact> 0.38177226E+02</totfact>
</mgrwt>
</event>
<event>
 4    1  0.5080671E-005  0.5914908E+03  0.7818608E-02  0.9923219E-01
          2   -1    0    0  501    0  0.00000000000E+00  0.00000000000E+00  0.10388363468E+04  0.10388363468E+04  0.25500000000E-02 0.  1.
         -2   -1    0    0    0  501 -0.00000000000E+00 -0.00000000000E+00 -0.84195488692E+02  0.84195488731E+02  0.25500000000E-02 0. -1.
    5000001    1    1    2    0    0 -0.16702421044E+03  0.48615702345E+02  0.72923124743E+03  0.77565442409E+03  0.19900000000E+03 0.  0.
   -5000001    1    1    2    0    0  0.16702421044E+03 -0.48615702345E+02  0.22540961066E+03  0.34737741142E+03  0.19900000000E+03 0.  0.
<mgrwt>
<rscale>  0 0.59149077E+03</rscale>
<asrwt>0</asrwt>
<pdfrwt beam="1">  1        2 0.14840519E+00 0.59149077E+03</pdfrwt>
<pdfrwt beam="2">  1       -2 0.12027927E-01 0.59149077E+03</pdfrwt>
<totfact> 0.13547971E+03</totfact>
</mgrwt>
</event>
<event>
 4    1  0.5080671E-005  0.1089218E+04  0.7818608E-02  0.9215765E-01
          2   -1    0    0  501    0  0.00000000000E+00  0.00000000000E+00  0.14171056522E+04  0.14171056522E+04  0.25500000000E-02 0.  1.
         -2   -1    0    0    0  501 -0.00000000000E+00 -0.00000000000E+00 -0.20929903194E+03  0.20929903196E+03  0.25500000000E-02 0. -1.
    5000001    1    1    2    0    0 -0.28853247221E+03 -0.40821279082E+03  0.72980262839E+03  0.90669815623E+03  0.19900000000E+03 0.  0.
   -5000001    1    1    2    0    0  0.28853247221E+03  0.40821279082E+03  0.47800399188E+03  0.71970652794E+03  0.19900000000E+03 0.  0.
<mgrwt>
<rscale>  0 0.10892178E+04</rscale>
<asrwt>0</asrwt>
<pdfrwt beam="1">  1        2 0.20244367E+00 0.10892178E+04</pdfrwt>
<pdfrwt beam="2">  1       -2 0.29899861E-01 0.10892178E+04</pdfrwt>
<totfact> 0.16571317E+02</totfact>
</mgrwt>
</event>
<event>
 4    1  0.5080671E-005  0.8668087E+03  0.7818608E-02  0.9468050E-01
         -2   -1    0    0    0  501 -0.00000000000E+00  0.00000000000E+00  0.10292969226E+03  0.10292969230E+03  0.25500000000E-02 0. -1.
          2   -1    0    0  501    0  0.00000000000E+00 -0.00000000000E+00 -0.18249286204E+04  0.18249286204E+04  0.25500000000E-02 0.  1.
    5000001    1    1    2    0    0 -0.15140138210E+03 -0.31725358220E+03 -0.51169645759E+03  0.65192520938E+03  0.19900000000E+03 0.  0.
   -5000001    1    1    2    0    0  0.15140138210E+03  0.31725358220E+03 -0.12103024706E+04  0.12759331033E+04  0.19900000000E+03 0.  0.
<mgrwt>
<rscale>  0 0.86680872E+03</rscale>
<asrwt>0</asrwt>
<pdfrwt beam="1">  1        2 0.26070407E+00 0.86680872E+03</pdfrwt>
<pdfrwt beam="2">  1       -2 0.14704243E-01 0.86680872E+03</pdfrwt>
<totfact> 0.36107461E+02</totfact>
</mgrwt>
</event>
<event>
 4    1  0.5080671E-005  0.5198504E+03  0.7818608E-02  0.1008724E+00
         -2   -1    0    0    0  501 -0.00000000000E+00  0.00000000000E+00  0.32782507128E+02  0.32782507227E+02  0.25500000000E-02 0. -1.
          2   -1    0    0  501    0  0.00000000000E+00 -0.00000000000E+00 -0.20608888344E+04  0.20608888344E+04  0.25500000000E-02 0.  1.
    5000001    1    1    2    0    0 -0.70711565285E+02 -0.15093386587E+03 -0.10679285943E+04  0.10990239487E+04  0.19900000000E+03 0.  0.
   -5000001    1    1    2    0    0  0.70711565285E+02  0.15093386587E+03 -0.96017773304E+03  0.99464739298E+03  0.19900000000E+03 0.  0.
<mgrwt>
<rscale>  0 0.51985037E+03</rscale>
<asrwt>0</asrwt>
<pdfrwt beam="1">  1        2 0.29441261E+00 0.51985037E+03</pdfrwt>
<pdfrwt beam="2">  1       -2 0.46832166E-02 0.51985037E+03</pdfrwt>
<totfact> 0.17597504E+03</totfact>
</mgrwt>
</event>
<event>
 4    1  0.5080671E-005  0.9214902E+03  0.7818608E-02  0.9399109E-01
         -2   -1    0    0    0  501 -0.00000000000E+00  0.00000000000E+00  0.65906351660E+03  0.65906351660E+03  0.25500000000E-02 0. -1.
          2   -1    0    0  501    0  0.00000000000E+00 -0.00000000000E+00 -0.32210259420E+03  0.32210259421E+03  0.25500000000E-02 0.  1.
    5000001    1    1    2    0    0 -0.21221140228E+03 -0.30385466659E+03  0.36859796629E+03  0.55930921539E+03  0.19900000000E+03 0.  0.
   -5000001    1    1    2    0    0  0.21221140228E+03  0.30385466659E+03 -0.31637043893E+02  0.42185689542E+03  0.19900000000E+03 0.  0.
<mgrwt>
<rscale>  0 0.92149025E+03</rscale>
<asrwt>0</asrwt>
<pdfrwt beam="1">  1        2 0.46014656E-01 0.92149025E+03</pdfrwt>
<pdfrwt beam="2">  1       -2 0.94151931E-01 0.92149025E+03</pdfrwt>
<totfact> 0.10514922E+02</totfact>
</mgrwt>
</event>
<event>
 4    1  0.5080671E-005  0.1234020E+04  0.7818608E-02  0.9083589E-01
          2   -1    0    0  501    0  0.00000000000E+00  0.00000000000E+00  0.30310679512E+04  0.30310679512E+04  0.25500000000E-02 0.  1.
         -2   -1    0    0    0  501 -0.00000000000E+00 -0.00000000000E+00 -0.12559975297E+03  0.12559975299E+03  0.25500000000E-02 0. -1.
    5000001    1    1    2    0    0 -0.58379645020E+03  0.15213515488E+02  0.14709374723E+04  0.15950886476E+04  0.19900000000E+03 0.  0.
   -5000001    1    1    2    0    0  0.58379645020E+03 -0.15213515488E+02  0.14345307259E+04  0.15615790566E+04  0.19900000000E+03 0.  0.
<mgrwt>
<rscale>  0 0.12340201E+04</rscale>
<asrwt>0</asrwt>
<pdfrwt beam="1">  1        2 0.43300973E+00 0.12340201E+04</pdfrwt>
<pdfrwt beam="2">  1       -2 0.17942821E-01 0.12340201E+04</pdfrwt>
<totfact> 0.58278811E+01</totfact>
</mgrwt>
</event>
<event>
 4    1  0.5080671E-005  0.6521044E+03  0.7818608E-02  0.9802838E-01
          2   -1    0    0  501    0  0.00000000000E+00  0.00000000000E+00  0.12507984446E+04  0.12507984446E+04  0.25500000000E-02 0.  1.
         -2   -1    0    0    0  501 -0.00000000000E+00 -0.00000000000E+00 -0.84993746387E+02  0.84993746425E+02  0.25500000000E-02 0. -1.
    5000001    1    1    2    0    0 -0.18113955904E+02 -0.25181198154E+03  0.47123632701E+03  0.57044023818E+03  0.19900000000E+03 0.  0.
   -5000001    1    1    2    0    0  0.18113955904E+02  0.25181198154E+03  0.69456837115E+03  0.76535195280E+03  0.19900000000E+03 0.  0.
<mgrwt>
<rscale>  0 0.65210443E+03</rscale>
<asrwt>0</asrwt>
<pdfrwt beam="1">  1        2 0.17868548E+00 0.65210443E+03</pdfrwt>
<pdfrwt beam="2">  1       -2 0.12141965E-01 0.65210443E+03</pdfrwt>
<totfact> 0.10066376E+03</totfact>
</mgrwt>
</event>
<event>
 4    1  0.5080671E-005  0.5282564E+03  0.7818608E-02  0.1006656E+00
          2   -1    0    0  501    0  0.00000000000E+00  0.00000000000E+00  0.54639244136E+03  0.54639244136E+03  0.25500000000E-02 0.  1.
         -2   -1    0    0    0  501 -0.00000000000E+00 -0.00000000000E+00 -0.12768056975E+03  0.12768056978E+03  0.25500000000E-02 0. -1.
    5000001    1    1    2    0    0 -0.66987030478E+02  0.15964992427E+03  0.19189068849E+03  0.32618767129E+03  0.19900000000E+03 0.  0.
   -5000001    1    1    2    0    0  0.66987030478E+02 -0.15964992427E+03  0.22682118312E+03  0.34788533985E+03  0.19900000000E+03 0.  0.
<mgrwt>
<rscale>  0 0.52825637E+03</rscale>
<asrwt>0</asrwt>
<pdfrwt beam="1">  1        2 0.78056063E-01 0.52825637E+03</pdfrwt>
<pdfrwt beam="2">  1       -2 0.18240081E-01 0.52825637E+03</pdfrwt>
<totfact> 0.15156861E+03</totfact>
</mgrwt>
</event>
<event>
 4    1  0.5080671E-005  0.5136883E+03  0.7818608E-02  0.1010267E+00
         -2   -1    0    0    0  501 -0.00000000000E+00  0.00000000000E+00  0.28279095899E+03  0.28279095900E+03  0.25500000000E-02 0. -1.
          2   -1    0    0  501    0  0.00000000000E+00 -0.00000000000E+00 -0.23327800779E+03  0.23327800780E+03  0.25500000000E-02 0.  1.
    5000001    1    1    2    0    0 -0.16197695201E+03  0.13820002645E+01  0.36187637351E+02  0.25913121773E+03  0.19900000000E+03 0.  0.
   -5000001    1    1    2    0    0  0.16197695201E+03 -0.13820002645E+01  0.13325313857E+02  0.25693774907E+03  0.19900000000E+03 0.  0.
<mgrwt>
<rscale>  0 0.51368828E+03</rscale>
<asrwt>0</asrwt>
<pdfrwt beam="1">  1        2 0.33325429E-01 0.51368828E+03</pdfrwt>
<pdfrwt beam="2">  1       -2 0.40398709E-01 0.51368828E+03</pdfrwt>
<totfact> 0.91910900E+02</totfact>
</mgrwt>
</event>
<event>
 4    1  0.5080671E-005  0.6806816E+03  0.7818608E-02  0.9750852E-01
         -2   -1    0    0    0  501 -0.00000000000E+00  0.00000000000E+00  0.66173854959E+02  0.66173855008E+02  0.25500000000E-02 0. -1.
          2   -1    0    0  501    0  0.00000000000E+00 -0.00000000000E+00 -0.17504171764E+04  0.17504171764E+04  0.25500000000E-02 0.  1.
    5000001    1    1    2    0    0 -0.23702075712E+03  0.12125861672E+03 -0.10372963625E+04  0.10892507678E+04  0.19900000000E+03 0.  0.
   -5000001    1    1    2    0    0  0.23702075712E+03 -0.12125861672E+03 -0.64694695894E+03  0.72734026365E+03  0.19900000000E+03 0.  0.
<mgrwt>
<rscale>  0 0.68068158E+03</rscale>
<asrwt>0</asrwt>
<pdfrwt beam="1">  1        2 0.25005957E+00 0.68068158E+03</pdfrwt>
<pdfrwt beam="2">  1       -2 0.94534089E-02 0.68068158E+03</pdfrwt>
<totfact> 0.82653703E+02</totfact>
</mgrwt>
</event>
<event>
 4    1  0.5080671E-005  0.4990116E+03  0.7818608E-02  0.1014037E+00
          2   -1    0    0  501    0  0.00000000000E+00  0.00000000000E+00  0.12220629701E+04  0.12220629701E+04  0.25500000000E-02 0.  1.
         -2   -1    0    0    0  501 -0.00000000000E+00 -0.00000000000E+00 -0.50941020872E+02  0.50941020935E+02  0.25500000000E-02 0. -1.
    5000001    1    1    2    0    0 -0.13348869743E+03 -0.61346807596E+02  0.66898745029E+03  0.71325161885E+03  0.19900000000E+03 0.  0.
   -5000001    1    1    2    0    0  0.13348869743E+03  0.61346807596E+02  0.50213449890E+03  0.55975237216E+03  0.19900000000E+03 0.  0.
<mgrwt>
<rscale>  0 0.49901156E+03</rscale>
<asrwt>0</asrwt>
<pdfrwt beam="1">  1        2 0.17458040E+00 0.49901156E+03</pdfrwt>
<pdfrwt beam="2">  1       -2 0.72772896E-02 0.49901156E+03</pdfrwt>
<totfact> 0.23916915E+03</totfact>
</mgrwt>
</event>
<event>
 4    1  0.5080671E-005  0.7006659E+03  0.7818608E-02  0.9716094E-01
         -2   -1    0    0    0  501 -0.00000000000E+00  0.00000000000E+00  0.12338780166E+03  0.12338780168E+03  0.25500000000E-02 0. -1.
          2   -1    0    0  501    0  0.00000000000E+00 -0.00000000000E+00 -0.99469447617E+03  0.99469447618E+03  0.25500000000E-02 0.  1.
    5000001    1    1    2    0    0 -0.22565624195E+02  0.26116034426E+03 -0.62726361722E+03  0.70836048612E+03  0.19900000000E+03 0.  0.
   -5000001    1    1    2    0    0  0.22565624195E+02 -0.26116034426E+03 -0.24404305729E+03  0.40972179174E+03  0.19900000000E+03 0.  0.
<mgrwt>
<rscale>  0 0.70066587E+03</rscale>
<asrwt>0</asrwt>
<pdfrwt beam="1">  1        2 0.14209921E+00 0.70066587E+03</pdfrwt>
<pdfrwt beam="2">  1       -2 0.17626829E-01 0.70066587E+03</pdfrwt>
<totfact> 0.75558629E+02</totfact>
</mgrwt>
</event>
<event>
 4    1  0.5080671E-005  0.7001631E+03  0.7818608E-02  0.9716953E-01
         -2   -1    0    0    0  501 -0.00000000000E+00  0.00000000000E+00  0.91360113201E+03  0.91360113201E+03  0.25500000000E-02 0. -1.
          2   -1    0    0  501    0  0.00000000000E+00 -0.00000000000E+00 -0.13414724859E+03  0.13414724861E+03  0.25500000000E-02 0.  1.
    5000001    1    1    2    0    0  0.10443933381E+03 -0.23316414135E+03  0.58871894133E+03  0.67191077022E+03  0.19900000000E+03 0.  0.
   -5000001    1    1    2    0    0 -0.10443933381E+03  0.23316414135E+03  0.19073494209E+03  0.37583761040E+03  0.19900000000E+03 0.  0.
<mgrwt>
<rscale>  0 0.70016306E+03</rscale>
<asrwt>0</asrwt>
<pdfrwt beam="1">  1        2 0.19163892E-01 0.70016306E+03</pdfrwt>
<pdfrwt beam="2">  1       -2 0.13051445E+00 0.70016306E+03</pdfrwt>
<totfact> 0.12998341E+02</totfact>
</mgrwt>
</event>
<event>
 4    1  0.5080671E-005  0.1217812E+04  0.7818608E-02  0.9097407E-01
          2   -1    0    0  501    0  0.00000000000E+00  0.00000000000E+00  0.19987667627E+04  0.19987667627E+04  0.25500000000E-02 0.  1.
         -2   -1    0    0    0  501 -0.00000000000E+00 -0.00000000000E+00 -0.18549774273E+03  0.18549774274E+03  0.25500000000E-02 0. -1.
    5000001    1    1    2    0    0 -0.90472994691E+02 -0.56140228837E+03  0.74814882202E+03  0.96056522530E+03  0.19900000000E+03 0.  0.
   -5000001    1    1    2    0    0  0.90472994691E+02  0.56140228837E+03  0.10651201980E+04  0.12236992802E+04  0.19900000000E+03 0.  0.
<mgrwt>
<rscale>  0 0.12178123E+04</rscale>
<asrwt>0</asrwt>
<pdfrwt beam="1">  1        2 0.28553813E+00 0.12178123E+04</pdfrwt>
<pdfrwt beam="2">  1       -2 0.26499676E-01 0.12178123E+04</pdfrwt>
<totfact> 0.10220954E+02</totfact>
</mgrwt>
</event>
<event>
 4    1  0.5080671E-005  0.8749062E+03  0.7818608E-02  0.9457505E-01
         -2   -1    0    0    0  501 -0.00000000000E+00  0.00000000000E+00  0.16068621303E+03  0.16068621305E+03  0.25500000000E-02 0. -1.
          2   -1    0    0  501    0  0.00000000000E+00 -0.00000000000E+00 -0.11909249785E+04  0.11909249785E+04  0.25500000000E-02 0.  1.
    5000001    1    1    2    0    0 -0.24959951830E+03 -0.29879773279E+03 -0.49415129418E+03  0.65982308704E+03  0.19900000000E+03 0.  0.
   -5000001    1    1    2    0    0  0.24959951830E+03  0.29879773279E+03 -0.53608747124E+03  0.69178810446E+03  0.19900000000E+03 0.  0.
<mgrwt>
<rscale>  0 0.87490622E+03</rscale>
<asrwt>0</asrwt>
<pdfrwt beam="1">  1        2 0.17013213E+00 0.87490622E+03</pdfrwt>
<pdfrwt beam="2">  1       -2 0.22955174E-01 0.87490622E+03</pdfrwt>
<totfact> 0.36185744E+02</totfact>
</mgrwt>
</event>
<event>
 4    1  0.5080671E-005  0.5018397E+03  0.7818608E-02  0.1013300E+00
          2   -1    0    0  501    0  0.00000000000E+00  0.00000000000E+00  0.31481703843E+03  0.31481703844E+03  0.25500000000E-02 0.  1.
         -2   -1    0    0    0  501 -0.00000000000E+00 -0.00000000000E+00 -0.19999160574E+03  0.19999160575E+03  0.25500000000E-02 0. -1.
    5000001    1    1    2    0    0 -0.17563579028E+02 -0.27240366785E+02 -0.95810051668E+02  0.22322876806E+03  0.19900000000E+03 0.  0.
   -5000001    1    1    2    0    0  0.17563579028E+02  0.27240366785E+02  0.21063548436E+03  0.29157987613E+03  0.19900000000E+03 0.  0.
<mgrwt>
<rscale>  0 0.50183968E+03</rscale>
<asrwt>0</asrwt>
<pdfrwt beam="1">  1        2 0.44973863E-01 0.50183968E+03</pdfrwt>
<pdfrwt beam="2">  1       -2 0.28570229E-01 0.50183968E+03</pdfrwt>
<totfact> 0.12668743E+03</totfact>
</mgrwt>
</event>
<event>
 4    1  0.5080671E-005  0.6050742E+03  0.7818608E-02  0.9894934E-01
          2   -1    0    0  501    0  0.00000000000E+00  0.00000000000E+00  0.19060223727E+04  0.19060223727E+04  0.25500000000E-02 0.  1.
         -2   -1    0    0    0  501 -0.00000000000E+00 -0.00000000000E+00 -0.48020781386E+02  0.48020781454E+02  0.25500000000E-02 0. -1.
    5000001    1    1    2    0    0 -0.14044797336E+03  0.17175811221E+03  0.76115748749E+03  0.81742779687E+03  0.19900000000E+03 0.  0.
   -5000001    1    1    2    0    0  0.14044797336E+03 -0.17175811221E+03  0.10968441038E+04  0.11366153573E+04  0.19900000000E+03 0.  0.
<mgrwt>
<rscale>  0 0.60507416E+03</rscale>
<asrwt>0</asrwt>
<pdfrwt beam="1">  1        2 0.27228879E+00 0.60507416E+03</pdfrwt>
<pdfrwt beam="2">  1       -2 0.68601147E-02 0.60507416E+03</pdfrwt>
<totfact> 0.11553416E+03</totfact>
</mgrwt>
</event>
<event>
 4    1  0.5080671E-005  0.1239052E+04  0.7818608E-02  0.9079345E-01
         -2   -1    0    0    0  501 -0.00000000000E+00  0.00000000000E+00  0.39138746404E+03  0.39138746405E+03  0.25500000000E-02 0. -1.
          2   -1    0    0  501    0  0.00000000000E+00 -0.00000000000E+00 -0.98064599425E+03  0.98064599425E+03  0.25500000000E-02 0.  1.
    5000001    1    1    2    0    0  0.38390122321E+03 -0.10235650714E+02  0.19651231026E+03  0.47508210429E+03  0.19900000000E+03 0.  0.
   -5000001    1    1    2    0    0 -0.38390122321E+03  0.10235650714E+02 -0.78577084048E+03  0.89695135402E+03  0.19900000000E+03 0.  0.
<mgrwt>
<rscale>  0 0.12390521E+04</rscale>
<asrwt>0</asrwt>
<pdfrwt beam="1">  1        2 0.14009228E+00 0.12390521E+04</pdfrwt>
<pdfrwt beam="2">  1       -2 0.55912495E-01 0.12390521E+04</pdfrwt>
<totfact> 0.85424515E+01</totfact>
</mgrwt>
</event>
<event>
 4    1  0.5080671E-005  0.5236479E+03  0.7818608E-02  0.1007784E+00
          2   -1    0    0  501    0  0.00000000000E+00  0.00000000000E+00  0.92574883832E+03  0.92574883833E+03  0.25500000000E-02 0.  1.
         -2   -1    0    0    0  501 -0.00000000000E+00 -0.00000000000E+00 -0.74050077826E+02  0.74050077870E+02  0.25500000000E-02 0. -1.
    5000001    1    1    2    0    0  0.16640312185E+03 -0.15514768759E+02  0.48682940115E+03  0.55184651202E+03  0.19900000000E+03 0.  0.
   -5000001    1    1    2    0    0 -0.16640312185E+03  0.15514768759E+02  0.36486935935E+03  0.44795240418E+03  0.19900000000E+03 0.  0.
<mgrwt>
<rscale>  0 0.52364787E+03</rscale>
<asrwt>0</asrwt>
<pdfrwt beam="1">  1        2 0.13224982E+00 0.52364787E+03</pdfrwt>
<pdfrwt beam="2">  1       -2 0.10578584E-01 0.52364787E+03</pdfrwt>
<totfact> 0.19625965E+03</totfact>
</mgrwt>
</event>
<event>
 4    1  0.5080671E-005  0.8062300E+03  0.7818608E-02  0.9551043E-01
          2   -1    0    0  501    0  0.00000000000E+00  0.00000000000E+00  0.74240738403E+03  0.74240738403E+03  0.25500000000E-02 0.  1.
         -2   -1    0    0    0  501 -0.00000000000E+00 -0.00000000000E+00 -0.21888481142E+03  0.21888481143E+03  0.25500000000E-02 0. -1.
    5000001    1    1    2    0    0  0.21059999925E+03 -0.25219705867E+03  0.11599932755E+03  0.40126370391E+03  0.19900000000E+03 0.  0.
   -5000001    1    1    2    0    0 -0.21059999925E+03  0.25219705867E+03  0.40752324506E+03  0.56002849155E+03  0.19900000000E+03 0.  0.
<mgrwt>
<rscale>  0 0.80622999E+03</rscale>
<asrwt>0</asrwt>
<pdfrwt beam="1">  1        2 0.10605820E+00 0.80622999E+03</pdfrwt>
<pdfrwt beam="2">  1       -2 0.31269258E-01 0.80622999E+03</pdfrwt>
<totfact> 0.39784604E+02</totfact>
</mgrwt>
</event>
<event>
 4    1  0.5080671E-005  0.6519630E+03  0.7818608E-02  0.9803103E-01
         -2   -1    0    0    0  501 -0.00000000000E+00  0.00000000000E+00  0.95278932048E+02  0.95278932082E+02  0.25500000000E-02 0. -1.
          2   -1    0    0  501    0  0.00000000000E+00 -0.00000000000E+00 -0.11152929628E+04  0.11152929628E+04  0.25500000000E-02 0.  1.
    5000001    1    1    2    0    0  0.14287764856E+03  0.14219412845E+03 -0.80957989915E+03  0.85770263246E+03  0.19900000000E+03 0.  0.
   -5000001    1    1    2    0    0 -0.14287764856E+03 -0.14219412845E+03 -0.21043413161E+03  0.35286926243E+03  0.19900000000E+03 0.  0.
<mgrwt>
<rscale>  0 0.65196295E+03</rscale>
<asrwt>0</asrwt>
<pdfrwt beam="1">  1        2 0.15932756E+00 0.65196295E+03</pdfrwt>
<pdfrwt beam="2">  1       -2 0.13611277E-01 0.65196295E+03</pdfrwt>
<totfact> 0.99353697E+02</totfact>
</mgrwt>
</event>
<event>
 4    1  0.5080671E-005  0.7309663E+03  0.7818608E-02  0.9665694E-01
          2   -1    0    0  501    0  0.00000000000E+00  0.00000000000E+00  0.10173765121E+04  0.10173765121E+04  0.25500000000E-02 0.  1.
         -2   -1    0    0    0  501 -0.00000000000E+00 -0.00000000000E+00 -0.13129646054E+03  0.13129646057E+03  0.25500000000E-02 0. -1.
    5000001    1    1    2    0    0 -0.26904274883E+03  0.59221536424E+02  0.65437298483E+03  0.73735757564E+03  0.19900000000E+03 0.  0.
   -5000001    1    1    2    0    0  0.26904274883E+03 -0.59221536424E+02  0.23170706676E+03  0.41131539706E+03  0.19900000000E+03 0.  0.
<mgrwt>
<rscale>  0 0.73096631E+03</rscale>
<asrwt>0</asrwt>
<pdfrwt beam="1">  1        2 0.14533950E+00 0.73096631E+03</pdfrwt>
<pdfrwt beam="2">  1       -2 0.18756637E-01 0.73096631E+03</pdfrwt>
<totfact> 0.65675569E+02</totfact>
</mgrwt>
</event>
<event>
 4    1  0.5080671E-005  0.9834037E+03  0.7818608E-02  0.9326937E-01
         -2   -1    0    0    0  501 -0.00000000000E+00  0.00000000000E+00  0.29143996448E+03  0.29143996449E+03  0.25500000000E-02 0. -1.
          2   -1    0    0  501    0  0.00000000000E+00 -0.00000000000E+00 -0.82957299709E+03  0.82957299709E+03  0.25500000000E-02 0.  1.
    5000001    1    1    2    0    0  0.30534968293E+03 -0.10842133375E+03 -0.62441833131E+03  0.73109019071E+03  0.19900000000E+03 0.  0.
   -5000001    1    1    2    0    0 -0.30534968293E+03  0.10842133375E+03  0.86285298692E+02  0.38992277088E+03  0.19900000000E+03 0.  0.
<mgrwt>
<rscale>  0 0.98340373E+03</rscale>
<asrwt>0</asrwt>
<pdfrwt beam="1">  1        2 0.11851043E+00 0.98340373E+03</pdfrwt>
<pdfrwt beam="2">  1       -2 0.41634281E-01 0.98340373E+03</pdfrwt>
<totfact> 0.19775220E+02</totfact>
</mgrwt>
</event>
<event>
 4    1  0.5080671E-005  0.7877312E+03  0.7818608E-02  0.9577948E-01
          2   -1    0    0  501    0  0.00000000000E+00  0.00000000000E+00  0.24828700263E+04  0.24828700263E+04  0.25500000000E-02 0.  1.
         -2   -1    0    0    0  501 -0.00000000000E+00 -0.00000000000E+00 -0.62480150353E+02  0.62480150405E+02  0.25500000000E-02 0. -1.
    5000001    1    1    2    0    0  0.30993653670E+03 -0.12082837695E+03  0.98472601440E+03  0.10582752368E+04  0.19900000000E+03 0.  0.
   -5000001    1    1    2    0    0 -0.30993653670E+03  0.12082837695E+03  0.14356638616E+04  0.14870749399E+04  0.19900000000E+03 0.  0.
<mgrwt>
<rscale>  0 0.78773115E+03</rscale>
<asrwt>0</asrwt>
<pdfrwt beam="1">  1        2 0.35469584E+00 0.78773115E+03</pdfrwt>
<pdfrwt beam="2">  1       -2 0.89257328E-02 0.78773115E+03</pdfrwt>
<totfact> 0.38218533E+02</totfact>
</mgrwt>
</event>
<event>
 4    1  0.5080671E-005  0.1766576E+04  0.7818608E-02  0.8724278E-01
          2   -1    0    0  501    0  0.00000000000E+00  0.00000000000E+00  0.28134496464E+04  0.28134496464E+04  0.25500000000E-02 0.  1.
         -2   -1    0    0    0  501 -0.00000000000E+00 -0.00000000000E+00 -0.27731011989E+03  0.27731011990E+03  0.25500000000E-02 0. -1.
    5000001    1    1    2    0    0 -0.79700064262E+03  0.30512853208E+03  0.14619778364E+04  0.17044921940E+04  0.19900000000E+03 0.  0.
   -5000001    1    1    2    0    0  0.79700064262E+03 -0.30512853208E+03  0.10741616901E+04  0.13862675723E+04  0.19900000000E+03 0.  0.
<mgrwt>
<rscale>  0 0.17665764E+04</rscale>
<asrwt>0</asrwt>
<pdfrwt beam="1">  1        2 0.40192135E+00 0.17665764E+04</pdfrwt>
<pdfrwt beam="2">  1       -2 0.39615734E-01 0.17665764E+04</pdfrwt>
<totfact> 0.17140479E+01</totfact>
</mgrwt>
</event>
<event>
 4    1  0.5080671E-005  0.5788019E+03  0.7818608E-02  0.9950388E-01
         -2   -1    0    0    0  501 -0.00000000000E+00  0.00000000000E+00  0.71641074973E+02  0.71641075019E+02  0.25500000000E-02 0. -1.
          2   -1    0    0  501    0  0.00000000000E+00 -0.00000000000E+00 -0.11690625240E+04  0.11690625241E+04  0.25500000000E-02 0.  1.
    5000001    1    1    2    0    0  0.82169820383E+01  0.20297401550E+03 -0.66386517861E+03  0.72220768836E+03  0.19900000000E+03 0.  0.
   -5000001    1    1    2    0    0 -0.82169820383E+01 -0.20297401550E+03 -0.43355627047E+03  0.51849591071E+03  0.19900000000E+03 0.  0.
<mgrwt>
<rscale>  0 0.57880185E+03</rscale>
<asrwt>0</asrwt>
<pdfrwt beam="1">  1        2 0.16700892E+00 0.57880185E+03</pdfrwt>
<pdfrwt beam="2">  1       -2 0.10234440E-01 0.57880185E+03</pdfrwt>
<totfact> 0.14823657E+03</totfact>
</mgrwt>
</event>
<event>
 4    1  0.5080671E-005  0.5433509E+03  0.7818608E-02  0.1003045E+00
         -2   -1    0    0    0  501 -0.00000000000E+00  0.00000000000E+00  0.11683244419E+03  0.11683244421E+03  0.25500000000E-02 0. -1.
          2   -1    0    0  501    0  0.00000000000E+00 -0.00000000000E+00 -0.63173840557E+03  0.63173840558E+03  0.25500000000E-02 0.  1.
    5000001    1    1    2    0    0  0.70569854968E+02 -0.16742981699E+03 -0.20985384738E+03  0.34154426552E+03  0.19900000000E+03 0.  0.
   -5000001    1    1    2    0    0 -0.70569854968E+02  0.16742981699E+03 -0.30505211401E+03  0.40702658428E+03  0.19900000000E+03 0.  0.
<mgrwt>
<rscale>  0 0.54335087E+03</rscale>
<asrwt>0</asrwt>
<pdfrwt beam="1">  1        2 0.90248342E-01 0.54335087E+03</pdfrwt>
<pdfrwt beam="2">  1       -2 0.16690350E-01 0.54335087E+03</pdfrwt>
<totfact> 0.14889364E+03</totfact>
</mgrwt>
</event>
<event>
 4    1  0.5080671E-005  0.5072861E+03  0.7818608E-02  0.1011894E+00
         -2   -1    0    0    0  501 -0.00000000000E+00  0.00000000000E+00  0.29996348813E+03  0.29996348814E+03  0.25500000000E-02 0. -1.
          2   -1    0    0  501    0  0.00000000000E+00 -0.00000000000E+00 -0.21447545146E+03  0.21447545147E+03  0.25500000000E-02 0.  1.
    5000001    1    1    2    0    0 -0.15022373669E+03  0.36299392335E+02  0.72292251518E+02  0.26212971327E+03  0.19900000000E+03 0.  0.
   -5000001    1    1    2    0    0  0.15022373669E+03 -0.36299392335E+02  0.13195785151E+02  0.25230922634E+03  0.19900000000E+03 0.  0.
<mgrwt>
<rscale>  0 0.50728613E+03</rscale>
<asrwt>0</asrwt>
<pdfrwt beam="1">  1        2 0.30639350E-01 0.50728613E+03</pdfrwt>
<pdfrwt beam="2">  1       -2 0.42851927E-01 0.50728613E+03</pdfrwt>
<totfact> 0.89973434E+02</totfact>
</mgrwt>
</event>
<event>
 4    1  0.5080671E-005  0.5896572E+03  0.7818608E-02  0.9927099E-01
         -2   -1    0    0    0  501 -0.00000000000E+00  0.00000000000E+00  0.48742388924E+02  0.48742388990E+02  0.25500000000E-02 0. -1.
          2   -1    0    0  501    0  0.00000000000E+00 -0.00000000000E+00 -0.17833327886E+04  0.17833327886E+04  0.25500000000E-02 0.  1.
    5000001    1    1    2    0    0 -0.20996431598E+03  0.53317713931E+02 -0.92905437746E+03  0.97451055863E+03  0.19900000000E+03 0.  0.
   -5000001    1    1    2    0    0  0.20996431598E+03 -0.53317713931E+02 -0.80553602221E+03  0.85756461895E+03  0.19900000000E+03 0.  0.
<mgrwt>
<rscale>  0 0.58965719E+03</rscale>
<asrwt>0</asrwt>
<pdfrwt beam="1">  1        2 0.25476179E+00 0.58965719E+03</pdfrwt>
<pdfrwt beam="2">  1       -2 0.69631996E-02 0.58965719E+03</pdfrwt>
<totfact> 0.13020747E+03</totfact>
</mgrwt>
</event>
<event>
 4    1  0.5080671E-005  0.5650298E+03  0.7818608E-02  0.9980738E-01
          2   -1    0    0  501    0  0.00000000000E+00  0.00000000000E+00  0.70878829302E+03  0.70878829302E+03  0.25500000000E-02 0.  1.
         -2   -1    0    0    0  501 -0.00000000000E+00 -0.00000000000E+00 -0.11260720647E+03  0.11260720650E+03  0.25500000000E-02 0. -1.
    5000001    1    1    2    0    0  0.16525770729E+03  0.74281422781E+02  0.42302453582E+03  0.50137670218E+03  0.19900000000E+03 0.  0.
   -5000001    1    1    2    0    0 -0.16525770729E+03 -0.74281422781E+02  0.17315655073E+03  0.32001879734E+03  0.19900000000E+03 0.  0.
<mgrwt>
<rscale>  0 0.56502980E+03</rscale>
<asrwt>0</asrwt>
<pdfrwt beam="1">  1        2 0.10125547E+00 0.56502980E+03</pdfrwt>
<pdfrwt beam="2">  1       -2 0.16086744E-01 0.56502980E+03</pdfrwt>
<totfact> 0.13794850E+03</totfact>
</mgrwt>
</event>
<event>
 4    1  0.5080671E-005  0.5510520E+03  0.7818608E-02  0.1001251E+00
         -2   -1    0    0    0  501 -0.00000000000E+00  0.00000000000E+00  0.49525768681E+03  0.49525768682E+03  0.25500000000E-02 0. -1.
          2   -1    0    0  501    0  0.00000000000E+00 -0.00000000000E+00 -0.15328298089E+03  0.15328298091E+03  0.25500000000E-02 0.  1.
    5000001    1    1    2    0    0  0.92628939580E+02 -0.12794362219E+03  0.45526560430E+02  0.25811501044E+03  0.19900000000E+03 0.  0.
   -5000001    1    1    2    0    0 -0.92628939580E+02  0.12794362219E+03  0.29644814549E+03  0.39042565730E+03  0.19900000000E+03 0.  0.
<mgrwt>
<rscale>  0 0.55105199E+03</rscale>
<asrwt>0</asrwt>
<pdfrwt beam="1">  1        2 0.21897569E-01 0.55105199E+03</pdfrwt>
<pdfrwt beam="2">  1       -2 0.70751098E-01 0.55105199E+03</pdfrwt>
<totfact> 0.46815093E+02</totfact>
</mgrwt>
</event>
<event>
 4    1  0.5080671E-005  0.6375419E+03  0.7818608E-02  0.9830441E-01
         -2   -1    0    0    0  501 -0.00000000000E+00  0.00000000000E+00  0.35871920730E+03  0.35871920730E+03  0.25500000000E-02 0. -1.
          2   -1    0    0  501    0  0.00000000000E+00 -0.00000000000E+00 -0.28327144919E+03  0.28327144920E+03  0.25500000000E-02 0.  1.
    5000001    1    1    2    0    0  0.16750839239E+03 -0.51098834434E+01 -0.14775900599E+03  0.29919708601E+03  0.19900000000E+03 0.  0.
   -5000001    1    1    2    0    0 -0.16750839239E+03  0.51098834434E+01  0.22320676410E+03  0.34279357049E+03  0.19900000000E+03 0.  0.
<mgrwt>
<rscale>  0 0.63754187E+03</rscale>
<asrwt>0</asrwt>
<pdfrwt beam="1">  1        2 0.40467350E-01 0.63754187E+03</pdfrwt>
<pdfrwt beam="2">  1       -2 0.51245601E-01 0.63754187E+03</pdfrwt>
<totfact> 0.46124036E+02</totfact>
</mgrwt>
</event>
<event>
 4    1  0.5080671E-005  0.4695668E+03  0.7818608E-02  0.1022043E+00
         -2   -1    0    0    0  501 -0.00000000000E+00  0.00000000000E+00  0.84137096837E+02  0.84137096876E+02  0.25500000000E-02 0. -1.
          2   -1    0    0  501    0  0.00000000000E+00 -0.00000000000E+00 -0.65515976931E+03  0.65515976931E+03  0.25500000000E-02 0.  1.
    5000001    1    1    2    0    0  0.69968323723E+02  0.10295897013E+03 -0.27746402853E+03  0.36343280394E+03  0.19900000000E+03 0.  0.
   -5000001    1    1    2    0    0 -0.69968323723E+02 -0.10295897013E+03 -0.29355864394E+03  0.37586406225E+03  0.19900000000E+03 0.  0.
<mgrwt>
<rscale>  0 0.46956678E+03</rscale>
<asrwt>0</asrwt>
<pdfrwt beam="1">  1        2 0.93594249E-01 0.46956678E+03</pdfrwt>
<pdfrwt beam="2">  1       -2 0.12019586E-01 0.46956678E+03</pdfrwt>
<totfact> 0.24640654E+03</totfact>
</mgrwt>
</event>
<event>
 4    1  0.5080671E-005  0.6134374E+03  0.7818608E-02  0.9877913E-01
         -2   -1    0    0    0  501 -0.00000000000E+00  0.00000000000E+00  0.44433735410E+02  0.44433735483E+02  0.25500000000E-02 0. -1.
          2   -1    0    0  501    0  0.00000000000E+00 -0.00000000000E+00 -0.21172283989E+04  0.21172283989E+04  0.25500000000E-02 0.  1.
    5000001    1    1    2    0    0  0.23149020087E+03 -0.26609369729E+02 -0.10836215262E+04  0.11261138413E+04  0.19900000000E+03 0.  0.
   -5000001    1    1    2    0    0 -0.23149020087E+03  0.26609369729E+02 -0.98917313732E+03  0.10355482931E+04  0.19900000000E+03 0.  0.
<mgrwt>
<rscale>  0 0.61343742E+03</rscale>
<asrwt>0</asrwt>
<pdfrwt beam="1">  1        2 0.30246114E+00 0.61343742E+03</pdfrwt>
<pdfrwt beam="2">  1       -2 0.63476778E-02 0.61343742E+03</pdfrwt>
<totfact> 0.10220483E+03</totfact>
</mgrwt>
</event>
<event>
 4    1  0.5080671E-005  0.6748779E+03  0.7818608E-02  0.9761186E-01
          2   -1    0    0  501    0  0.00000000000E+00  0.00000000000E+00  0.14710120949E+04  0.14710120949E+04  0.25500000000E-02 0.  1.
         -2   -1    0    0    0  501 -0.00000000000E+00 -0.00000000000E+00 -0.77405911214E+02  0.77405911256E+02  0.25500000000E-02 0. -1.
    5000001    1    1    2    0    0 -0.20700876492E+03 -0.15703672896E+03  0.50828941640E+03  0.60454304546E+03  0.19900000000E+03 0.  0.
   -5000001    1    1    2    0    0  0.20700876492E+03  0.15703672896E+03  0.88531676732E+03  0.94387496073E+03  0.19900000000E+03 0.  0.
<mgrwt>
<rscale>  0 0.67487786E+03</rscale>
<asrwt>0</asrwt>
<pdfrwt beam="1">  1        2 0.21014459E+00 0.67487786E+03</pdfrwt>
<pdfrwt beam="2">  1       -2 0.11057987E-01 0.67487786E+03</pdfrwt>
<totfact> 0.89278533E+02</totfact>
</mgrwt>
</event>
<event>
 4    1  0.5080671E-005  0.1527254E+04  0.7818608E-02  0.8866529E-01
         -2   -1    0    0    0  501 -0.00000000000E+00  0.00000000000E+00  0.19998606834E+03  0.19998606836E+03  0.25500000000E-02 0. -1.
          2   -1    0    0  501    0  0.00000000000E+00 -0.00000000000E+00 -0.29158351890E+04  0.29158351890E+04  0.25500000000E-02 0.  1.
    5000001    1    1    2    0    0  0.69903414777E+03 -0.10570929368E+03 -0.93143054982E+03  0.11861648552E+04  0.19900000000E+03 0.  0.
   -5000001    1    1    2    0    0 -0.69903414777E+03  0.10570929368E+03 -0.17844185709E+04  0.19296564022E+04  0.19900000000E+03 0.  0.
<mgrwt>
<rscale>  0 0.15272543E+04</rscale>
<asrwt>0</asrwt>
<pdfrwt beam="1">  1        2 0.41654786E+00 0.15272543E+04</pdfrwt>
<pdfrwt beam="2">  1       -2 0.28569440E-01 0.15272543E+04</pdfrwt>
<totfact> 0.28612741E+01</totfact>
</mgrwt>
</event>
<event>
 4    1  0.5080671E-005  0.7156631E+03  0.7818608E-02  0.9690815E-01
          2   -1    0    0  501    0  0.00000000000E+00  0.00000000000E+00  0.42735773944E+03  0.42735773945E+03  0.25500000000E-02 0.  1.
         -2   -1    0    0    0  501 -0.00000000000E+00 -0.00000000000E+00 -0.29961647688E+03  0.29961647689E+03  0.25500000000E-02 0. -1.
    5000001    1    1    2    0    0  0.47522493215E+02 -0.27888027153E+03 -0.29283884219E+02  0.34711833586E+03  0.19900000000E+03 0.  0.
   -5000001    1    1    2    0    0 -0.47522493215E+02  0.27888027153E+03  0.15702514678E+03  0.37985588048E+03  0.19900000000E+03 0.  0.
<mgrwt>
<rscale>  0 0.71566311E+03</rscale>
<asrwt>0</asrwt>
<pdfrwt beam="1">  1        2 0.61051106E-01 0.71566311E+03</pdfrwt>
<pdfrwt beam="2">  1       -2 0.42802354E-01 0.71566311E+03</pdfrwt>
<totfact> 0.41831208E+02</totfact>
</mgrwt>
</event>
<event>
 4    1  0.5080671E-005  0.1079466E+04  0.7818608E-02  0.9225440E-01
          2   -1    0    0  501    0  0.00000000000E+00  0.00000000000E+00  0.99809175496E+03  0.99809175496E+03  0.25500000000E-02 0.  1.
         -2   -1    0    0    0  501 -0.00000000000E+00 -0.00000000000E+00 -0.29186848128E+03  0.29186848129E+03  0.25500000000E-02 0. -1.
    5000001    1    1    2    0    0  0.32502330054E+03 -0.25173982824E+03  0.69675939976E+03  0.83311928808E+03  0.19900000000E+03 0.  0.
   -5000001    1    1    2    0    0 -0.32502330054E+03  0.25173982824E+03  0.94638739202E+01  0.45684094817E+03  0.19900000000E+03 0.  0.
<mgrwt>
<rscale>  0 0.10794657E+04</rscale>
<asrwt>0</asrwt>
<pdfrwt beam="1">  1        2 0.14258454E+00 0.10794657E+04</pdfrwt>
<pdfrwt beam="2">  1       -2 0.41695496E-01 0.10794657E+04</pdfrwt>
<totfact> 0.15240948E+02</totfact>
</mgrwt>
</event>
<event>
 4    1  0.5080671E-005  0.4154484E+03  0.7818608E-02  0.1038558E+00
          2   -1    0    0  501    0  0.00000000000E+00  0.00000000000E+00  0.14761469242E+04  0.14761469242E+04  0.25500000000E-02 0.  1.
         -2   -1    0    0    0  501 -0.00000000000E+00 -0.00000000000E+00 -0.29231059705E+02  0.29231059816E+02  0.25500000000E-02 0. -1.
    5000001    1    1    2    0    0  0.35883753580E+02 -0.24518494644E+01  0.55140134820E+03  0.58731431290E+03  0.19900000000E+03 0.  0.
   -5000001    1    1    2    0    0 -0.35883753580E+02  0.24518494644E+01  0.89551451625E+03  0.91806367108E+03  0.19900000000E+03 0.  0.
<mgrwt>
<rscale>  0 0.41544838E+03</rscale>
<asrwt>0</asrwt>
<pdfrwt beam="1">  1        2 0.21087816E+00 0.41544838E+03</pdfrwt>
<pdfrwt beam="2">  1       -2 0.41758651E-02 0.41544838E+03</pdfrwt>
<totfact> 0.41429678E+03</totfact>
</mgrwt>
</event>
<event>
 4    1  0.5080671E-005  0.6870111E+03  0.7818608E-02  0.9739706E-01
         -2   -1    0    0    0  501 -0.00000000000E+00  0.00000000000E+00  0.66376697658E+02  0.66376697707E+02  0.25500000000E-02 0. -1.
          2   -1    0    0  501    0  0.00000000000E+00 -0.00000000000E+00 -0.17776731731E+04  0.17776731731E+04  0.25500000000E-02 0.  1.
    5000001    1    1    2    0    0  0.20484881317E+03  0.99498226164E+02 -0.41843325243E+03  0.51628511503E+03  0.19900000000E+03 0.  0.
   -5000001    1    1    2    0    0 -0.20484881317E+03 -0.99498226164E+02 -0.12928632230E+04  0.13277647558E+04  0.19900000000E+03 0.  0.
<mgrwt>
<rscale>  0 0.68701113E+03</rscale>
<asrwt>0</asrwt>
<pdfrwt beam="1">  1        2 0.25395328E+00 0.68701113E+03</pdfrwt>
<pdfrwt beam="2">  1       -2 0.94823865E-02 0.68701113E+03</pdfrwt>
<totfact> 0.79635853E+02</totfact>
</mgrwt>
</event>
<event>
 4    1  0.5080671E-005  0.5234388E+03  0.7818608E-02  0.1007836E+00
         -2   -1    0    0    0  501 -0.00000000000E+00  0.00000000000E+00  0.40021848075E+02  0.40021848157E+02  0.25500000000E-02 0. -1.
          2   -1    0    0  501    0  0.00000000000E+00 -0.00000000000E+00 -0.17114912208E+04  0.17114912208E+04  0.25500000000E-02 0.  1.
    5000001    1    1    2    0    0  0.13999061671E+03  0.96418661710E+02 -0.83087340636E+03  0.87111741372E+03  0.19900000000E+03 0.  0.
   -5000001    1    1    2    0    0 -0.13999061671E+03 -0.96418661710E+02 -0.84059596637E+03  0.88039565524E+03  0.19900000000E+03 0.  0.
<mgrwt>
<rscale>  0 0.52343879E+03</rscale>
<asrwt>0</asrwt>
<pdfrwt beam="1">  1        2 0.24449870E+00 0.52343879E+03</pdfrwt>
<pdfrwt beam="2">  1       -2 0.57174079E-02 0.52343879E+03</pdfrwt>
<totfact> 0.19333405E+03</totfact>
</mgrwt>
</event>
